Control file title. For DL_FIELD 4.10
49932
    1MOL     C1    1   4.416   0.246   0.179 -0.2027  1.1005 -0.1641
    1MOL     C2    2   4.277   0.194   0.199 -0.2008  0.4513 -0.7732
    1MOL     C3    3   4.213   0.134   0.085  0.7113  0.5068 -0.7921
    1MOL     C4    4   4.077   0.101   0.094  0.6421 -0.3248 -0.9384
    1MOL     C5    5   4.013   0.102   0.219  0.7294  0.6883  0.3814
    1MOL     O6    6   3.881   0.069   0.221 -0.0648 -0.3483  0.4097
    1MOL     C7    7   4.082   0.161   0.330  0.3833  0.0312  0.0924
    1MOL     C8    8   4.210   0.214   0.319 -0.2865  0.2760  0.1012
    1MOL     C9    9   4.525   0.153   0.125  0.6271  0.4664 -0.2897
    1MOL    H10   10   4.411   0.330   0.110  2.0347  0.2669 -1.3810
    1MOL    H11   11   4.259   0.104   8.030 -0.0046 -1.1110 -0.6511
    1MOL    H12   12   4.018   0.064   0.011 -0.5721 -1.8585  0.5773
    1MOL    H13   13   3.863   8.038   0.159 -0.1103 -0.0386  0.0797
    1MOL    H14   14   4.030   0.161   0.425  1.1205 -0.4350  0.4953
    1MOL    H15   15   4.264   0.253   0.404 -0.5447 -0.9937  0.8592
    1MOL    H16   16   4.625   0.196   0.119  0.2109  1.7673  1.6908
    1MOL    H17   17   4.507   0.124   0.022 -1.8770  1.2348 -0.1008
    1MOL    H18   18   4.465   0.292   0.265  1.6205  0.4315 -0.8157
    1MOL    C19   19   4.550   0.023   0.206 -0.5597  0.3036  0.2396
    1MOL    C20   20   4.510   0.030   0.351 -0.0427  0.0446  0.0144
    1MOL    C21   21   4.590   0.110   0.440  0.6775  0.1143  0.3166
    1MOL    C22   22   4.551   0.112   0.577  0.3284  0.4621  0.0840
    1MOL    C23   23   4.449   0.031   0.631  0.6152  0.1251 -0.1961
    1MOL    O24   24   4.423   0.038   0.767 -0.2824 -0.5097 -0.4153
    1MOL    C25   25   4.384   7.978   0.549 -0.0296 -0.2642  0.2467
    1MOL    C26   26   4.406   7.988   0.407  0.1249  0.3800 -0.3369
    1MOL    C27   27   4.696   8.000   0.187  0.5272  0.1600 -0.2477
    1MOL    H28   28   4.487   7.984   0.161 -0.8853  0.4254  0.4904
    1MOL    H29   29   4.673   0.175   0.414  1.4345 -0.2546  1.8015
    1MOL    H30   30   4.609   0.171   0.646  2.4513 -0.9316 -0.4649
    1MOL    H31   31   4.369   8.008   0.804  0.8841 -1.9880 -1.3867
    1MOL    H32   32   4.303   7.918   0.588 -0.4371 -0.0733 -0.2998
    1MOL    H33   33   4.356   7.922   0.337  3.7907 -0.4870 -2.2755
    1MOL    H34   34   4.773   0.019   0.239  1.3385 -0.9246 -0.2389
    1MOL    H35   35   4.726   8.013   0.083  0.6235  0.3291 -0.1971
    1MOL    C36   36   4.723   7.848   0.215 -0.5175  0.0447 -0.3573
    1MOL    C37   37   4.631   7.759   0.131  0.2745 -0.8466  0.2119
    1MOL    C38   38   4.506   7.715   0.185  0.1338 -0.0376 -0.4126
    1MOL    C39   39   4.412   7.644   0.117  0.1629 -0.1560 -0.2730
    1MOL    C40   40   4.435   7.612   8.017 -0.2347  0.7513 -0.1207
    1MOL    O41   41   4.354   7.532   7.947 -0.0389 -0.4812  0.1860
    1MOL    C42   42   4.555   7.653   7.960 -0.0440 -0.1646  0.5448
    1MOL    C43   43   4.653   7.729   8.034  0.0183 -0.6530 -0.7159
    1MOL    C44   44   4.747   7.809   0.363  0.4675 -0.0790  0.3867
    1MOL    H45   45   4.817   7.834   0.163 -0.3578 -0.8441  0.1680
    1MOL    H46   46   4.482   7.738   0.288 -0.7672 -2.9056  0.0511
    1MOL    H47   47   4.322   7.598   0.157  0.7506 -1.2110 -0.1361
    1MOL    H48   48   4.378   7.523   7.856  1.4809 -1.2763  0.6423
    1MOL    H49   49   4.584   7.635   7.857  0.3248  1.2062  0.3990
    1MOL    H50   50   4.739   7.777   7.990 -0.1056  0.9581  0.7500
    1MOL    H51   51   4.834   7.857   0.406  2.5124 -0.9425 -2.6126
    1MOL    H52   52   4.659   7.850   0.413  0.0617 -1.5354  0.8831
    1MOL    C53   53   4.745   7.655   0.397 -0.2501 -0.2054  0.2014
    1MOL    C54   54   4.870   7.581   0.350  0.2737  0.1999 -0.2365
    1MOL    C55   55   4.991   7.583   0.425  0.3225 -0.6648  1.0427
    1MOL    C56   56   5.099   7.512   0.381  0.0450  0.1402 -0.5311
    1MOL    C57   57   5.094   7.429   0.272  0.2276  0.0362 -0.1639
    1MOL    O58   58   5.207   7.363   0.226 -0.1760  0.7765  0.3165
    1MOL    C59   59   4.970   7.410   0.209 -0.0939 -0.3536 -0.6032
    1MOL    C60   60   4.862   7.497   0.236 -0.6279 -0.3741 -0.3456
    1MOL    C61   61   4.714   7.619   0.545 -0.7712 -0.0849  0.2537
    1MOL    H62   62   4.657   7.621   0.342  0.0397 -0.0172 -0.3833
    1MOL    H63   63   4.997   7.641   0.516  1.3210  0.4478  0.2860
    1MOL    H64   64   5.199   7.506   0.423 -0.1553 -0.8223 -0.1719
    1MOL    H65   65   5.185   7.291   0.169  1.4298  0.0077  0.6495
    1MOL    H66   66   4.982   7.338   0.129 -0.2820 -1.3394  0.2358
    1MOL    H67   67   4.771   7.498   0.177 -1.2139  0.8519  0.5696
    1MOL    H68   68   4.645   7.696   0.578  0.3941  1.2271 -0.2813
    1MOL    H69   69   4.800   7.632   0.612 -1.4416 -2.6358  1.6864
    1MOL    C70   70   4.649   7.483   0.577  0.6877 -0.6966 -0.7555
    1MOL    C71   71   4.511   7.468   0.512 -0.0172  0.1152  0.5983
    1MOL    C72   72   4.500   7.370   0.413  0.6270  0.9338  0.1032
    1MOL    C73   73   4.380   7.350   0.347 -0.5202 -0.2449  0.2927
    1MOL    C74   74   4.270   7.427   0.386  0.2008 -0.1609  0.1937
    1MOL    O75   75   4.148   7.400   0.326  0.2751 -0.5625 -0.4076
    1MOL    C76   76   4.280   7.523   0.488 -0.2213  0.8569  0.1068
    1MOL    C77   77   4.401   7.548   0.550 -0.1462 -0.0927  0.2985
    1MOL    C78   78   4.632   7.462   0.726  0.4612 -0.3328  0.3555
    1MOL    H79   79   4.705   7.397   0.541  0.3656 -0.1692 -2.5492
    1MOL    H80   80   4.584   7.308   0.383  1.0002  0.8505  1.2823
    1MOL    H81   81   4.367   7.287   0.260  1.1684 -0.0956 -0.0876
    1MOL    H82   82   4.077   7.415   0.387  1.8609  1.1065  1.1138
    1MOL    H83   83   4.200   7.587   0.520 -1.6679 -0.6682 -0.3714
    1MOL    H84   84   4.395   7.620   0.630 -1.2186  0.3060 -0.1161
    1MOL    H85   85   4.554   7.385   0.731 -0.7845  0.5202 -3.5099
    1MOL    H86   86   4.588   7.553   0.765  1.3918  0.4779 -0.4706
    1MOL    C87   87   4.750   7.414   0.817  0.0498  0.8607 -0.2596
    1MOL    C88   88   4.851   7.322   0.748  0.1959  0.1814 -0.6681
    1MOL    C89   89   4.814   7.188   0.713 -0.5015 -0.5000 -0.0149
    1MOL    C90   90   4.906   7.105   0.638  0.0982 -0.8357  0.2042
    1MOL    C91   91   5.034   7.152   0.604 -0.3034  0.2937 -0.1323
    1MOL    O92   92   5.120   7.072   0.539  0.2410  0.3347  0.3247
    1MOL    C93   93   5.066   7.283   0.632 -0.1728 -0.2414  0.0355
    1MOL    C94   94   4.979   7.368   0.707 -0.5193  0.6805  0.4850
    1MOL    C95   95   4.706   7.347   0.952 -0.1724 -0.2942  0.2657
    1MOL    H96   96   4.802   7.507   0.839  2.1602 -0.2018 -0.6010
    1MOL    H97   97   4.716   7.147   0.733 -0.8176  0.4751  0.4841
    1MOL    H98   98   4.880   7.002   0.619 -0.7507 -0.7567  0.9047
    1MOL    H99   99   5.212   7.090   0.554  0.7265  0.2671 -2.3513
    1MOL   H100  100   5.151   7.329   0.585 -2.4493  2.4032 -1.6750
    1MOL   H101  101   5.003   7.472   0.722  2.9721  0.2566 -1.6456
    1MOL   H102  102   4.653   7.253   0.936 -0.4468  0.0281 -0.7410
    1MOL   H103  103   4.787   7.309   1.015  1.2712  1.5400 -0.4473
    1MOL   C104  104   4.614   7.440   1.037 -1.0018 -0.0045 -0.2602
    1MOL   C105  105   4.694   7.542   1.122 -0.4237  1.0356 -0.6627
    1MOL   C106  106   4.667   7.680   1.116 -0.1838 -0.6486 -0.6567
    1MOL   C107  107   4.736   7.774   1.194  0.1810 -0.2223 -0.5815
    1MOL   C108  108   4.828   7.723   1.290  0.1670 -0.6220  0.1760
    1MOL   O109  109   4.890   7.816   1.362 -0.1705 -0.2029 -0.0069
    1MOL   C110  110   4.852   7.591   1.301  0.5567  0.2648  0.2575
    1MOL   C111  111   4.792   7.496   1.214 -0.7430 -0.3287  0.0076
    1MOL   C112  112   4.514   7.363   1.124  0.6599  0.3126 -0.0827
    1MOL   H113  113   4.550   7.499   0.972 -0.4816  0.8871  0.0370
    1MOL   H114  114   4.590   7.714   1.049 -2.5168  1.4580  2.9477
    1MOL   H115  115   4.722   7.879   1.173  1.4041  0.4747  1.8853
    1MOL   H116  116   4.956   7.858   1.309 -0.0978 -1.4977 -0.9483
    1MOL   H117  117   4.923   7.552   1.373  0.6568 -0.7882 -0.3929
    1MOL   H118  118   4.797   7.390   1.233 -0.9894 -0.2535  0.5045
    1MOL   H119  119   4.456   7.432   1.184 -0.2520 -1.7524  1.4792
    1MOL   H120  120   4.577   7.300   1.187  0.3589  0.4350  0.3399
    1MOL   C121  121   4.410   7.268   1.058 -0.7089  0.0193  0.3942
    1MOL   C122  122   4.382   7.149   1.154  0.8334  0.0588  0.1828
    1MOL   C123  123   4.309   7.177   1.277 -0.0736 -0.9000  0.7449
    1MOL   C124  124   4.279   7.072   1.367 -0.1806  0.2750 -0.2046
    1MOL   C125  125   4.322   6.942   1.335  0.2969 -0.3470  0.2169
    1MOL   O126  126   4.290   6.835   1.415 -0.1377  1.1409 -0.5641
    1MOL   C127  127   4.393   6.920   1.221 -0.0876  0.3076  0.2928
    1MOL   C128  128   4.426   7.019   1.128  0.4232 -1.0428  0.3156
    1MOL   C129  129   4.283   7.350   1.021 -0.3733  0.1157  0.7237
    1MOL   H130  130   4.449   7.217   0.970  0.6516  1.0481  0.3972
    1MOL   H131  131   4.273   7.277   1.299 -0.4450 -0.7495 -0.5293
    1MOL   H132  132   4.227   7.088   1.460 -2.1937 -4.2321 -0.4157
    1MOL   H133  133   4.350   6.762   1.408  1.9438  2.7805 -0.4513
    1MOL   H134  134   4.444   6.826   1.201  1.8385  0.4738  4.0740
    1MOL   H135  135   4.464   7.003   1.028  1.7979  0.3143  0.6194
    1MOL   H136  136   4.313   7.436   0.960  0.0154  0.9935  2.1218
    1MOL   H137  137   4.246   7.397   1.112  0.2765 -0.7533  1.4405
    1MOL   C138  138   4.163   7.259   0.965 -0.0044 -0.5055  0.1836
    1MOL   C139  139   4.214   7.177   0.851 -0.9116  0.0502 -0.9907
    1MOL   C140  140   4.299   7.219   0.752 -0.1535 -0.4434  0.0318
    1MOL   C141  141   4.338   7.132   0.646 -0.0274 -0.2015 -0.3293
    1MOL   C142  142   4.294   7.001   0.641  0.5493 -0.4062  0.0183
    1MOL   O143  143   4.319   6.922   0.531  0.1914  0.0216  0.0135
    1MOL   C144  144   4.203   6.959   0.739 -0.4593  0.5895 -0.1009
    1MOL   C145  145   4.172   7.041   0.849 -0.0265  0.0484 -0.1327
    1MOL   C146  146   4.054   7.349   0.913 -0.1431  0.2966  0.4652
    1MOL   H147  147   4.133   7.186   1.041 -2.5407 -1.0205 -1.2466
    1MOL   H148  148   4.338   7.319   0.757  1.5199 -1.0949  0.2143
    1MOL   H149  149   4.390   7.169   0.558  0.3618  1.4301  0.5715
    1MOL   H150  150   4.315   6.975   0.453  0.9891  1.0949  0.6966
    1MOL   H151  151   4.158   6.861   0.733  0.4100  0.0510  1.7648
    1MOL   H152  152   4.101   7.007   0.922  0.0884 -1.5786 -0.7641
    1MOL   H153  153   3.974   7.291   0.865  1.9062 -2.0980 -0.1757
    1MOL   H154  154   4.093   7.416   0.837  2.0647 -2.3683 -0.8561
    1MOL   C155  155   3.983   7.433   1.019  1.1343  0.2792 -0.3598
    1MOL   C156  156   3.940   7.361   1.145  0.6188  0.2802 -0.4034
    1MOL   C157  157   3.998   7.399   1.267 -0.0571 -0.4133 -0.2377
    1MOL   C158  158   3.976   7.328   1.381 -1.1592  0.8808 -0.3304
    1MOL   C159  159   3.902   7.214   1.381 -0.1765  0.8817 -0.2345
    1MOL   O160  160   3.867   7.149   1.497 -0.6797 -0.1130  0.6192
    1MOL   C161  161   3.840   7.174   1.263  0.8358 -0.1031  0.2037
    1MOL   C162  162   3.867   7.243   1.140  0.9174  0.6429 -0.2741
    1MOL   C163  163   3.862   7.511   0.954 -0.0593 -0.4110  0.6485
    1MOL   H164  164   4.057   7.510   1.045 -0.1054  0.9956  1.1039
    1MOL   H165  165   4.055   7.491   1.272 -1.5918  0.5055  0.8499
    1MOL   H166  166   4.021   7.376   1.466  0.5679  0.3268 -0.9141
    1MOL   H167  167   3.912   7.169   1.578  0.8978 -2.6502  0.4287
    1MOL   H168  168   3.782   7.084   1.268  2.0662 -1.0006 -1.2265
    1MOL   H169  169   3.804   7.202   1.062  1.5333 -2.6938  0.9021
    1MOL   H170  170   3.801   7.550   1.036  0.8122  0.5135  0.8620
    1MOL   H171  171   3.786   7.440   0.920  0.2163 -1.2381  1.7169
    1MOL   C172  172   3.888   7.627   0.843 -0.2214  0.5672 -0.3147
    1MOL   C173  173   3.994   7.728   0.894  0.2496 -0.6839  0.7268
    1MOL   C174  174   3.948   7.829   0.980 -0.9235  0.0494 -0.3633
    1MOL   C175  175   4.035   7.939   1.006  0.0766  0.0629  0.4071
    1MOL   C176  176   4.171   7.935   0.969 -0.1641  1.0191 -0.3667
    1MOL   O177  177   4.258   8.032   1.010 -0.0644 -0.0348  0.6615
    1MOL   C178  178   4.216   7.828   0.889 -0.4575 -0.0954 -0.7489
    1MOL   C179  179   4.126   7.730   0.845  0.6677 -0.0654 -0.1525
    1MOL   C180  180   3.753   7.680   0.795  0.3570 -0.4305  0.3068
    1MOL   H181  181   3.930   7.584   0.752 -0.7952 -0.3570 -0.1500
    1MOL   H182  182   3.843   7.837   1.003 -1.0909  2.0169 -1.7299
    1MOL   H183  183   4.000   8.018   1.071  0.7875  0.1318  0.7049
    1MOL   H184  184   4.222   0.047   1.079  0.0334 -1.0791  1.5348
    1MOL   H185  185   4.310   7.811   0.838 -0.6221 -2.1595 -0.4155
    1MOL   H186  186   4.153   7.654   0.773  0.2933  0.8305 -1.2467
    1MOL   H187  187   3.691   7.707   0.881 -0.0304  1.9479 -0.6866
    1MOL   H188  188   3.691   7.605   0.747  0.2876 -0.3587  0.2839
    1MOL   C189  189   3.755   7.805   0.704 -0.3415  0.6002  0.4543
    1MOL   C190  190   3.800   7.759   0.568 -0.0316  0.0595 -0.2152
    1MOL   C191  191   3.714   7.704   0.475  0.5314  0.4425  0.1474
    1MOL   C192  192   3.751   7.669   0.341  0.9625  0.2566  0.5213
    1MOL   C193  193   3.888   7.690   0.303  0.5663 -0.0682  0.7395
    1MOL   O194  194   3.938   7.650   0.187  0.0066 -0.6911 -0.2548
    1MOL   C195  195   3.974   7.747   0.393  0.1408 -0.1905 -0.3088
    1MOL   C196  196   3.935   7.780   0.529  0.1054  0.4646  0.7359
    1MOL   C197  197   3.628   7.881   0.698 -1.5152  0.0762  0.9622
    1MOL   H198  198   3.826   7.875   0.747 -0.5916  1.9761 -1.3250
    1MOL   H199  199   3.611   7.681   0.498  0.0419  1.8048 -0.6095
    1MOL   H200  200   3.686   7.610   0.278  1.0768 -0.3236  0.9404
    1MOL   H201  201   4.030   7.659   0.170  0.2268 -1.2430  0.5935
    1MOL   H202  202   4.076   7.770   0.367  0.1487  0.3006  0.1502
    1MOL   H203  203   4.000   7.827   0.601  1.7785 -1.0370  0.2596
    1MOL   H204  204   3.569   7.894   0.789 -4.0976 -0.8969 -0.5539
    1MOL   H205  205   3.561   7.810   0.650  0.8687 -1.7404  0.1820
    1MOL   C206  206   3.640   8.032   0.655  0.5442 -0.4349  0.2915
    1MOL   C207  207   3.731   0.067   0.752 -0.1634  0.5732  0.0506
    1MOL   C208  208   3.710   0.069   0.890  0.7036 -0.1345  0.2207
    1MOL   C209  209   3.799   0.147   0.966 -0.0019 -0.1116  0.2118
    1MOL   C210  210   3.902   0.218   0.914  0.2411  0.3501  0.4338
    1MOL   O211  211   3.973   0.297   1.006  0.2101  0.0911 -0.2093
    1MOL   C212  212   3.924   0.214   0.778  0.8930  0.1598 -0.7144
    1MOL   C213  213   3.836   0.142   0.696  0.2297  0.6529  0.1261
    1MOL   C214  214   3.493   0.052   0.640 -0.2108  0.1653 -0.0816
    1MOL   H215  215   3.680   8.023   0.554 -1.3765 -3.0797 -0.3174
    1MOL   H216  216   3.631   0.023   0.947 -1.1085  2.0046 -0.5298
    1MOL   H217  217   3.786   0.149   1.073  1.1380  0.6997  0.3402
    1MOL   H218  218   4.056   0.331   0.976  0.7502 -1.4218 -0.4617
    1MOL   H219  219   4.004   0.270   0.730  1.1024 -0.5965 -1.2616
    1MOL   H220  220   3.852   0.148   0.590 -0.8084  1.2288 -0.0059
    1MOL   H221  221   3.452   0.062   0.740  0.6306 -1.7328  0.4624
    1MOL   H222  222   3.434   8.007   0.600  0.2469  1.2687 -3.1937
    1MOL   C223  223   3.474   0.178   0.550  0.2586  0.0779  0.3906
    1MOL   C224  224   3.327   0.211   0.538  0.2219 -0.4351  0.7840
    1MOL   C225  225   3.237   0.123   0.473  0.1591  0.1459 -0.0136
    1MOL   C226  226   3.097   0.159   0.473  0.0358  0.3776  0.2183
    1MOL   C227  227   3.058   0.281   0.516 -0.0941 -0.0652  0.3917
    1MOL   O228  228   2.930   0.309   0.511 -0.6058  0.2962  0.5636
    1MOL   C229  229   3.148   0.368   0.576  0.4915  0.6342 -0.1500
    1MOL   C230  230   3.280   0.335   0.584  0.2460  1.0990  0.2827
    1MOL   C231  231   3.545   0.174   0.416  0.3111 -0.0294  0.0696
    1MOL   H232  232   3.518   0.259   0.608  0.2160  1.4046 -1.3743
    1MOL   H233  233   3.268   0.028   0.434 -0.5321 -0.0994  0.0287
    1MOL   H234  234   3.026   0.092   0.427 -0.3674  0.6292  0.4705
    1MOL   H235  235   2.881   0.268   0.441 -0.7593  0.9117  0.3107
    1MOL   H236  236   3.117   0.461   0.620  0.1431 -0.0988  1.1821
    1MOL   H237  237   3.354   0.407   0.614  1.5852 -0.4254  0.7453
    1MOL   H238  238   3.651   0.152   0.421  0.2749 -0.0013  1.2006
    1MOL   H239  239   3.501   0.102   0.347  2.0217 -0.3783 -0.6666
    1MOL   C240  240   3.562   0.325   0.360  0.1231 -0.8936 -0.1693
    1MOL   C241  241   3.663   0.397   0.444  0.0353 -0.6924  0.0190
    1MOL   C242  242   3.629   0.506   0.524 -0.4478 -1.1926 -0.0215
    1MOL   C243  243   3.728   0.581   0.592 -0.3745  0.0910 -0.0526
    1MOL   C244  244   3.861   0.554   0.570 -0.6087  0.6037  0.4085
    1MOL   O245  245   3.953   0.642   0.619 -0.5765 -0.5713  0.8523
    1MOL   C246  246   3.895   0.442   0.491 -0.3827 -0.1225  0.0332
    1MOL   C247  247   3.797   0.372   0.423 -0.0309  0.3210  0.1962
    1MOL   C248  248   3.583   0.333   0.210 -0.6716  0.1617 -0.1352
    1MOL   H249  249   3.472   0.381   0.389  0.2882 -1.6628  1.9499
    1MOL   H250  250   3.525   0.535   0.528 -0.6383 -1.7879 -0.4396
    1MOL   H251  251   3.699   0.666   0.652  1.0408  1.0394 -0.6814
    1MOL   H252  252   3.934   0.729   0.652 -0.6078 -0.7737  1.3636
    1MOL   H253  253   3.999   0.422   0.473 -0.4915  0.3597 -1.1861
    1MOL   H254  254   3.832   0.295   0.355  0.4015 -0.5435  1.3822
    1MOL   H255  255   3.618   0.433   0.184 -1.1746  0.2935 -0.3091
    1MOL   H256  256   3.659   0.260   0.182 -0.1968  0.4045  0.5261
    1MOL   C257  257   3.461   0.305   0.120  0.3718 -0.5304 -0.6482
    1MOL   C258  258   3.355   0.416   0.117 -0.0876 -0.6871  0.0536
    1MOL   C259  259   3.236   0.405   0.196 -0.1046 -0.1436 -0.3565
    1MOL   C260  260   3.139   0.504   0.199 -0.1411 -0.7620  0.3312
    1MOL   C261  261   3.155   0.615   0.115 -0.2239 -0.5209  0.2588
    1MOL   O262  262   3.060   0.717   0.114  0.0655  0.5017 -0.2439
    1MOL   C263  263   3.269   0.629   0.033  0.0637  0.4097 -0.0028
    1MOL   C264  264   3.373   0.525   0.032 -0.2961  0.5817  0.6675
    1MOL   C265  265   3.491   0.254   8.020  0.2721 -0.0980 -0.2412
    1MOL   H266  266   3.417   0.218   0.168  1.3489 -0.5432  0.2372
    1MOL   H267  267   3.225   0.318   0.259  0.2330  1.2997  1.7296
    1MOL   H268  268   3.049   0.501   0.259 -0.5153  0.1454 -0.1683
    1MOL   H269  269   2.997   0.713   0.184  0.9225 -0.5566  0.4764
    1MOL   H270  270   3.290   0.720   8.017 -0.3928 -0.5240 -1.7960
    1MOL   H271  271   3.451   0.530   7.995 -1.3680 -4.1823 -0.9375
    1MOL   H272  272   3.570   0.180   8.008 -0.2551 -0.9042  1.2740
    1MOL   H273  273   3.531   0.336   7.959  2.9814 -3.0791 -2.6023
    1MOL   C274  274   3.359   0.193   7.961  0.6108  0.2881 -0.2597
    1MOL   C275  275   3.325   0.065   8.033 -0.2643  0.2554  0.0344
    1MOL   C276  276   3.391   7.982   8.002  0.1521  0.2191 -0.3231
    1MOL   C277  277   3.366   7.861   0.035  0.4879  0.0689  0.5338
    1MOL   C278  278   3.268   7.864   0.136  0.1244  0.2873  0.3588
    1MOL   O279  279   3.238   7.758   0.213 -0.3585  0.0554 -0.2755
    1MOL   C280  280   3.205   7.985   0.172  0.5638 -0.3533 -0.7671
    1MOL   C281  281   3.228   0.060   0.098  0.0557  0.4589  0.1619
    1MOL   C282  282   3.369   0.173   7.805 -0.1546  0.5103 -0.2972
    1MOL   H283  283   3.280   0.265   7.981 -0.8191 -1.6446  1.2499
    1MOL   H284  284   3.470   7.984   7.927  0.0585  2.6149 -0.3919
    1MOL   H285  285   3.420   7.767   0.032 -0.5270 -0.5447  1.0557
    1MOL   H286  286   3.176   7.774   0.282 -1.6006  0.5581 -1.4932
    1MOL   H287  287   3.130   7.978   0.249  3.0110 -1.5706  1.5757
    1MOL   H288  288   3.180   0.154   0.120  0.7763  1.8100 -3.6007
    1MOL   H289  289   3.466   0.134   7.777  0.1139  0.2850  0.9417
    1MOL   H290  290   3.291   0.102   7.776 -0.4032  0.6527  0.0215
    1MOL   C291  291   3.333   0.294   7.721 -0.0405 -0.6564  0.5430
    1MOL   C292  292   3.254   0.254   7.602 -0.1184  0.8603  0.2647
    1MOL   C293  293   3.120   0.296   7.578  0.3164 -0.5295 -1.2517
    1MOL   C294  294   3.051   0.245   7.469  0.2075  0.0134  0.1906
    1MOL   C295  295   3.108   0.165   7.372 -0.4525  0.1116 -0.1583
    1MOL   O296  296   3.041   0.128   7.261 -0.5821 -0.2464 -0.1229
    1MOL   C297  297   3.241   0.125   7.392 -0.1233 -0.3296  0.4486
    1MOL   C298  298   3.311   0.166   7.504  0.3548 -0.2821 -0.4807
    1MOL   C299  299   3.458   0.385   7.684  0.2837  0.8556 -0.4298
    1MOL   H300  300   3.265   0.359   7.777 -2.8407 -1.8809 -1.3408
    1MOL   H301  301   3.061   0.357   7.645  0.5106  1.1091 -2.5259
    1MOL   H302  302   2.948   0.274   7.450 -0.2144 -2.8292 -2.1605
    1MOL   H303  303   3.094   0.112   7.184 -1.1232 -0.9208 -0.3569
    1MOL   H304  304   3.291   0.068   7.315  1.5528  0.3313  1.0407
    1MOL   H305  305   3.416   0.147   7.520 -0.3736 -2.4288  1.9759
    1MOL   H306  306   3.537   0.322   7.643 -1.4659 -2.0616  0.5060
    1MOL   H307  307   3.518   0.422   7.768  2.0749 -2.3492 -0.1926
    1MOL   C308  308   3.429   0.496   7.582  0.1011 -0.2440 -0.2691
    1MOL   C309  309   3.562   0.547   7.517 -0.0788 -0.7763  0.0426
    1MOL   C310  310   3.634   0.658   7.575  0.4121  0.7806 -0.8237
    1MOL   C311  311   3.754   0.700   7.514 -0.4362  0.4519  0.2049
    1MOL   C312  312   3.807   0.637   7.400 -0.2273  0.2223 -0.0182
    1MOL   O313  313   3.930   0.674   7.358 -0.2883 -0.3565  0.2700
    1MOL   C314  314   3.741   0.520   7.348 -0.2458  0.1524 -0.6988
    1MOL   C315  315   3.620   0.479   7.407  0.2828 -0.5717  0.3576
    1MOL   C316  316   3.345   0.610   7.639 -0.8167 -0.0192 -0.3918
    1MOL   H317  317   3.380   0.439   7.503  0.5881  2.0161 -2.2765
    1MOL   H318  318   3.602   0.705   7.667 -0.2352  2.3039 -1.7963
    1MOL   H319  319   3.803   0.785   7.558  0.1709 -0.0946  0.6014
    1MOL   H320  320   3.941   0.767   7.344 -0.9589 -0.2812  0.2093
    1MOL   H321  321   3.786   0.463   7.268 -0.0881 -0.4225 -0.2001
    1MOL   H322  322   3.574   0.390   7.366 -0.5258  1.1230 -2.5241
    1MOL   H323  323   3.402   0.675   7.706 -1.0997  0.0049 -0.1693
    1MOL   H324  324   3.263   0.552   7.682  0.1043 -0.8846  0.2088
    1MOL   C325  325   3.290   0.703   7.528  0.7453  0.8636 -0.3370
    1MOL   C326  326   3.199   0.812   7.587  0.2269 -0.0422 -0.1014
    1MOL   C327  327   3.228   0.951   7.560 -0.2224  0.2008 -0.2423
    1MOL   C328  328   3.145   1.050   7.610  0.4278 -1.1348  0.5158
    1MOL   C329  329   3.041   1.019   7.700  0.4493  0.3553 -0.5281
    1MOL   O330  330   2.962   1.126   7.736  0.2998  0.4104 -0.0558
    1MOL   C331  331   3.015   0.879   7.722  0.1823  0.5769 -0.0083
    1MOL   C332  332   3.093   0.778   7.672 -0.4835 -0.1867 -0.3813
    1MOL   C333  333   3.209   0.630   7.416  0.1775  0.1674 -0.3398
    1MOL   H334  334   3.372   0.758   7.484  0.3489  1.6489 -0.0970
    1MOL   H335  335   3.311   0.973   7.494 -0.7076 -1.9921 -1.6481
    1MOL   H336  336   3.171   1.152   7.585 -1.5138 -0.6871  0.2573
    1MOL   H337  337   2.992   1.211   7.711  0.1786  0.4017 -0.2310
    1MOL   H338  338   2.933   0.843   7.783  0.5918 -1.0216 -0.3851
    1MOL   H339  339   3.074   0.675   7.697  1.2888 -0.2296  0.9263
    1MOL   H340  340   3.123   0.579   7.460 -1.6310  1.9463 -1.7340
    1MOL   H341  341   3.266   0.558   7.357  1.9850  0.5167  0.9340
    1MOL   H342  342   3.184   0.705   7.341  1.4605  0.1729 -0.7641
    2MOL     C1  343   0.010   6.780   2.287  0.8749 -0.4242 -0.4168
    2MOL     C2  344   0.042   6.873   2.164  0.1231  0.0316 -0.1676
    2MOL     C3  345   7.987   6.886   2.056 -0.1351 -0.5601 -0.7184
    2MOL     C4  346   8.000   6.987   1.961  0.1626 -0.1231  0.1877
    2MOL     C5  347   0.075   7.074   1.971  0.6569 -0.6387  0.2581
    2MOL     O6  348   0.074   7.189   1.892  0.4659  0.1206  0.0249
    2MOL     C7  349   0.180   7.053   2.065  0.3490  0.0182  0.2065
    2MOL     C8  350   0.157   6.956   2.165  0.1107  0.3284 -0.0933
    2MOL     C9  351   0.107   6.669   2.296 -0.1106 -0.2212  0.6392
    2MOL    H10  352   0.013   6.849   2.372 -0.9199  0.0663 -0.7430
    2MOL    H11  353   7.906   6.817   2.037 -1.5522  0.9179 -0.2038
    2MOL    H12  354   7.920   7.001   1.889  1.0335 -2.5856 -1.3205
    2MOL    H13  355   8.023   7.224   1.893  0.8724  1.2572 -1.4616
    2MOL    H14  356   0.264   7.121   2.066 -0.5720  1.1640  2.1817
    2MOL    H15  357   0.228   6.954   2.246 -1.7875  0.8235  1.6109
    2MOL    H16  358   0.204   6.719   2.297 -1.0733  1.7843 -0.8784
    2MOL    H17  359   0.102   6.619   2.199  0.6296  1.0985 -0.1012
    2MOL    H18  360   7.948   6.738   2.273  0.5633  0.7169 -1.7346
    2MOL    C19  361   0.099   6.576   2.422  0.4886 -0.3700 -0.1447
    2MOL    C20  362   0.066   6.643   2.558 -0.2802 -0.6017  0.4610
    2MOL    C21  363   0.153   6.744   2.606  0.5212  0.3145  0.1589
    2MOL    C22  364   0.122   6.818   2.722 -0.0595 -1.0198 -0.5922
    2MOL    C23  365   0.009   6.778   2.803 -0.3830  0.4908 -0.1109
    2MOL    O24  366   8.016   6.843   2.918 -0.0861 -0.7136  0.3370
    2MOL    C25  367   7.972   6.670   2.761  0.4403  0.4727 -0.0684
    2MOL    C26  368   7.986   6.610   2.631 -0.5061  0.3018  0.9898
    2MOL    C27  369   0.216   6.481   2.431  0.1648  0.8622 -0.0331
    2MOL    H28  370   0.012   6.528   2.378 -0.2603 -0.4386  1.3642
    2MOL    H29  371   0.233   6.765   2.537 -0.5348  1.5473 -0.7063
    2MOL    H30  372   0.175   6.903   2.763 -2.7955 -0.5769  2.2140
    2MOL    H31  373   0.057   6.887   2.946  2.5232 -3.6763 -1.9035
    2MOL    H32  374   7.886   6.639   2.820  1.0965 -0.9319  0.1523
    2MOL    H33  375   7.921   6.537   2.583  1.6848 -1.2244  0.2857
    2MOL    H34  376   0.308   6.531   2.463 -1.1402  2.8076  0.7619
    2MOL    H35  377   0.238   6.452   2.328 -1.2183  1.3049 -0.4660
    2MOL    C36  378   0.186   6.343   2.503 -0.2209  0.7431  0.1829
    2MOL    C37  379   0.313   6.294   2.568 -0.5786 -0.6088 -0.1174
    2MOL    C38  380   0.392   6.196   2.507 -0.3643  0.1347 -0.3070
    2MOL    C39  381   0.508   6.147   2.577  0.1122  0.3140 -1.2498
    2MOL    C40  382   0.539   6.194   2.709 -0.0181 -0.9110  0.4494
    2MOL    O41  383   0.642   6.152   2.780  0.4609 -0.0906  0.3978
    2MOL    C42  384   0.454   6.293   2.764  1.3593 -0.0353  0.2018
    2MOL    C43  385   0.350   6.352   2.689 -0.2614  0.2881 -0.4668
    2MOL    C44  386   0.099   6.242   2.413  0.0710  0.4957  0.4815
    2MOL    H45  387   0.122   6.374   2.585 -1.4606  0.0544 -0.5133
    2MOL    H46  388   0.370   6.145   2.415  0.8154 -0.5025 -0.2559
    2MOL    H47  389   0.571   6.068   2.539  0.4569  1.4533 -3.0998
    2MOL    H48  390   0.645   6.057   2.784  0.4204 -0.1399 -0.6087
    2MOL    H49  391   0.475   6.332   2.863 -1.2190 -0.3262  0.8948
    2MOL    H50  392   0.290   6.427   2.738 -0.0940  0.4428 -0.4981
    2MOL    H51  393   0.010   6.300   2.389 -1.0008 -1.3850 -0.1896
    2MOL    H52  394   0.144   6.205   2.321  0.3750  0.0310  0.8120
    2MOL    C53  395   0.051   6.109   2.485  0.6123 -0.4778 -0.7701
    2MOL    C54  396   8.000   6.140   2.615 -0.1629  0.4246  0.6772
    2MOL    C55  397   8.022   6.063   2.732 -1.4385 -0.2700  0.3726
    2MOL    C56  398   7.954   6.084   2.854  0.3241  0.2164 -0.1352
    2MOL    C57  399   7.869   6.200   2.860 -0.2550 -0.6850 -0.5735
    2MOL    O58  400   7.803   6.238   2.970 -0.2152 -0.3413 -0.0141
    2MOL    C59  401   7.850   6.281   2.746 -0.7090 -0.3243 -0.1763
    2MOL    C60  402   7.913   6.250   2.621  0.0490 -0.4637  0.2002
    2MOL    C61  403   8.007   6.011   2.395 -0.4772 -0.6596 -0.3911
    2MOL    H62  404   0.143   6.058   2.516  0.4103 -0.1224  0.4398
    2MOL    H63  405   0.052   5.979   2.727 -0.1086  0.7600  0.7355
    2MOL    H64  406   7.962   6.011   2.933  1.9985 -1.3725 -1.7306
    2MOL    H65  407   7.737   6.294   2.933 -0.6666 -0.1501  1.0546
    2MOL    H66  408   7.784   6.365   2.762 -0.7126 -0.2592 -0.5257
    2MOL    H67  409   7.883   6.302   2.532 -3.0950 -2.4682 -0.0147
    2MOL    H68  410   8.028   6.027   2.289  0.6269 -0.6833 -0.1764
    2MOL    H69  411   7.901   6.022   2.418  0.3732 -1.5957  4.6278
    2MOL    C70  412   8.025   5.860   2.420 -0.1419  0.3366  0.4315
    2MOL    C71  413   0.138   5.829   2.433  0.3095 -0.0371 -0.2873
    2MOL    C72  414   0.185   5.774   2.552  0.3701 -0.1016 -0.0525
    2MOL    C73  415   0.325   5.756   2.568 -0.3086 -0.1431 -0.0685
    2MOL    C74  416   0.415   5.771   2.458 -0.0091 -0.4861  0.8316
    2MOL    O75  417   0.546   5.744   2.473  0.1865 -0.8287  0.3367
    2MOL    C76  418   0.362   5.815   2.336 -0.3276 -0.0516 -0.4875
    2MOL    C77  419   0.227   5.849   2.327  0.0391  0.5832  0.4752
    2MOL    C78  420   7.954   5.775   2.312 -0.1351  0.5539  0.1120
    2MOL    H79  421   7.977   5.835   2.515  0.5113  0.2782  0.7477
    2MOL    H80  422   0.128   5.757   2.643  0.0612  0.6083 -0.1098
    2MOL    H81  423   0.366   5.731   2.664  0.8750 -0.2873 -0.6086
    2MOL    H82  424   0.593   5.707   2.400  3.4103  2.9307  0.3602
    2MOL    H83  425   0.433   5.850   2.262 -0.2771  0.5665 -0.1541
    2MOL    H84  426   0.202   5.895   2.233  2.1367  0.4363 -0.1800
    2MOL    H85  427   7.973   5.668   2.323 -0.3902  0.3213 -1.4838
    2MOL    H86  428   8.005   5.784   2.216 -0.6654  1.0897 -0.1237
    2MOL    C87  429   7.803   5.792   2.298 -0.9320 -0.7949  0.1481
    2MOL    C88  430   7.733   5.818   2.432 -0.6540 -0.8649 -0.0098
    2MOL    C89  431   7.663   5.942   2.451 -1.1793 -0.1486  0.7569
    2MOL    C90  432   7.599   5.970   2.574 -0.7067  0.1351 -0.4143
    2MOL    C91  433   7.607   5.879   2.684  0.2495  0.6608  0.5271
    2MOL    O92  434   7.552   5.895   2.806 -0.2943 -0.5517 -0.0740
    2MOL    C93  435   7.676   5.749   2.669  0.4221 -1.2723  0.0641
    2MOL    C94  436   7.736   5.725   2.542 -0.2883 -0.3211  0.2892
    2MOL    C95  437   7.751   5.672   2.222 -0.0130 -0.2677  0.1818
    2MOL    H96  438   7.783   5.879   2.236 -2.6393 -1.5463 -0.3702
    2MOL    H97  439   7.652   6.012   2.369 -3.5171  2.3103  3.0694
    2MOL    H98  440   7.544   6.062   2.590  0.1961  0.4465  1.0739
    2MOL    H99  441   7.567   5.817   2.857  0.1247 -0.8145 -0.5969
    2MOL   H100  442   7.679   5.675   2.748  3.4276 -1.2927 -0.0334
    2MOL   H101  443   7.777   5.626   2.529 -1.3714 -0.4467 -2.3940
    2MOL   H102  444   7.818   5.644   2.141 -1.7894 -0.0242 -1.4015
    2MOL   H103  445   7.770   5.584   2.284  1.1587 -0.5453 -0.5549
    2MOL   C104  446   7.607   5.687   2.170  0.3090 -0.1998  0.0407
    2MOL   C105  447   7.512   5.654   2.285  0.4666  0.5553  0.2750
    2MOL   C106  448   7.507   5.523   2.344  0.4861 -0.2031 -0.4312
    2MOL   C107  449   7.423   5.501   2.455 -0.3665  0.0318 -0.1953
    2MOL   C108  450   7.347   5.608   2.501 -0.0045 -0.1704 -1.3772
    2MOL   O109  451   7.272   5.595   2.614  0.1955 -0.0062  0.2126
    2MOL   C110  452   7.346   5.733   2.439 -0.3133 -0.9273  0.0701
    2MOL   C111  453   7.424   5.753   2.332 -0.2211 -0.3245 -0.3544
    2MOL   C112  454   7.565   5.603   2.042  0.9977  0.7196  0.0021
    2MOL   H113  455   7.585   5.788   2.138  1.0061  0.5425  1.8559
    2MOL   H114  456   7.562   5.439   2.303  0.0967  0.6551 -2.7438
    2MOL   H115  457   7.414   5.404   2.502  2.3159 -0.5957 -0.9056
    2MOL   H116  458   7.265   5.662   2.681  1.2813 -0.2718  0.6018
    2MOL   H117  459   7.285   5.812   2.479  0.5761  0.4194 -1.1724
    2MOL   H118  460   7.427   5.848   2.281 -2.0306 -0.0204  0.0811
    2MOL   H119  461   7.566   5.497   2.064 -0.9671  0.3771 -1.4540
    2MOL   H120  462   7.641   5.622   1.965 -0.9282  1.4388 -1.7728
    2MOL   C121  463   7.426   5.634   1.982  0.2384 -0.2228  1.1262
    2MOL   C122  464   7.428   5.768   1.903  0.3194  0.4196 -0.1356
    2MOL   C123  465   7.485   5.776   1.775 -0.0757 -0.0330  0.0276
    2MOL   C124  466   7.475   5.899   1.701 -0.1018  0.0223 -0.3690
    2MOL   C125  467   7.412   6.011   1.758  0.4451  0.0996  0.5494
    2MOL   O126  468   7.402   6.126   1.687 -0.0226  0.0795 -0.1662
    2MOL   C127  469   7.357   6.006   1.889 -0.1868  0.5527  0.4683
    2MOL   C128  470   7.367   5.883   1.960 -0.3956  0.2722  0.8635
    2MOL   C129  471   7.363   5.516   1.896 -0.2793 -0.2144 -0.3156
    2MOL   H130  472   7.353   5.636   2.063  0.3887 -1.8184  1.3223
    2MOL   H131  473   7.528   5.686   1.731  1.6196  0.4787  0.5968
    2MOL   H132  474   7.515   5.903   1.601  0.4557 -0.4040 -0.1690
    2MOL   H133  475   7.389   6.105   1.595  0.1163  0.3111 -0.2397
    2MOL   H134  476   7.298   6.086   1.930 -2.5317 -0.5014 -0.7816
    2MOL   H135  477   7.325   5.880   2.060  2.4151  1.0408  2.1283
    2MOL   H136  478   7.348   5.426   1.956 -0.0360 -0.6480 -0.9010
    2MOL   H137  479   7.443   5.487   1.829 -1.7473 -0.9764 -1.7881
    2MOL   C138  480   7.238   5.546   1.811 -0.0898 -0.1678 -0.4964
    2MOL   C139  481   7.114   5.592   1.891  0.0949  0.1046  0.2910
    2MOL   C140  482   7.081   5.539   2.022 -0.5058  0.2294 -0.7128
    2MOL   C141  483   6.977   5.595   2.097  0.1977 -0.1092 -0.2854
    2MOL   C142  484   6.894   5.694   2.033  0.2497 -0.8149 -0.2289
    2MOL   O143  485   6.785   5.748   2.101  0.3198  0.2074  0.0881
    2MOL   C144  486   6.912   5.737   1.898  0.2371  0.6803  0.3109
    2MOL   C145  487   7.025   5.685   1.831 -0.1489  0.0274  0.4876
    2MOL   C146  488   7.194   5.423   1.719  0.4770 -0.3175  0.1430
    2MOL   H147  489   7.257   5.631   1.746  0.8128  0.5884  0.7352
    2MOL   H148  490   7.144   5.462   2.062 -0.2396  0.9584  0.3066
    2MOL   H149  491   6.954   5.566   2.198  0.7089  3.0723  0.7993
    2MOL   H150  492   6.765   5.706   2.183  1.1761 -1.2555 -0.4310
    2MOL   H151  493   6.851   5.809   1.846 -1.4648 -0.9552 -0.0345
    2MOL   H152  494   7.044   5.720   1.731 -3.5549 -0.0950 -0.2781
    2MOL   H153  495   7.109   5.440   1.654  1.8562  0.4929 -1.4839
    2MOL   H154  496   7.152   5.347   1.785  0.9133 -0.7025 -0.0177
    2MOL   C155  497   7.306   5.356   1.626  0.3417 -0.4359  0.2831
    2MOL   C156  498   7.389   5.455   1.548  0.1769  0.6206  0.2572
    2MOL   C157  499   7.527   5.431   1.530 -0.3083  0.0637 -0.4586
    2MOL   C158  500   7.613   5.530   1.466 -0.1329  0.3393 -0.2390
    2MOL   C159  501   7.556   5.652   1.420  0.3322 -0.8152 -0.3630
    2MOL   O160  502   7.630   5.751   1.361  0.6518  0.3404 -0.1500
    2MOL   C161  503   7.415   5.671   1.435  0.4926  1.1817 -0.5167
    2MOL   C162  504   7.333   5.579   1.499 -0.3222 -0.2933  0.1074
    2MOL   C163  505   7.260   5.237   1.532 -0.0325  0.3437 -0.4145
    2MOL   H164  506   7.376   5.316   1.700  0.4374  2.1528  1.6458
    2MOL   H165  507   7.576   5.336   1.545  0.5686  0.2791 -1.8161
    2MOL   H166  508   7.718   5.511   1.456  0.1509  1.5609  0.3458
    2MOL   H167  509   7.719   5.743   1.389  0.9247  0.5631 -0.9388
    2MOL   H168  510   7.375   5.762   1.394 -1.2761  0.7509  0.2059
    2MOL   H169  511   7.229   5.607   1.506 -0.9915 -2.7326  0.4255
    2MOL   H170  512   7.206   5.180   1.607  0.9564  0.0100  0.0535
    2MOL   H171  513   7.351   5.187   1.498  0.3742  0.2662  0.7589
    2MOL   C172  514   7.170   5.280   1.413 -0.5529  0.6073 -0.1939
    2MOL   C173  515   7.060   5.181   1.393 -0.0520 -0.2609 -0.0967
    2MOL   C174  516   7.087   5.062   1.325 -0.0692 -0.7465 -0.4872
    2MOL   C175  517   6.981   4.975   1.299  0.0794 -0.6533 -0.0568
    2MOL   C176  518   6.850   5.014   1.327 -0.6252  0.5311 -0.0841
    2MOL   O177  519   6.746   4.938   1.290 -0.5705 -0.2408 -0.3129
    2MOL   C178  520   6.825   5.137   1.388 -0.5148 -0.1074 -0.3236
    2MOL   C179  521   6.927   5.220   1.419 -0.7852 -0.7848 -0.3572
    2MOL   C180  522   7.254   5.302   1.288 -0.0183  0.2419 -0.9304
    2MOL   H181  523   7.128   5.378   1.438  1.6039  1.7579 -0.8819
    2MOL   H182  524   7.189   5.035   1.300  0.3006 -0.4393  0.6750
    2MOL   H183  525   7.001   4.875   1.263  0.0825 -0.6198 -0.1494
    2MOL   H184  526   6.775   4.879   1.221  1.0031  0.8758 -0.6433
    2MOL   H185  527   6.726   5.170   1.413  0.8887  4.5525 -0.2512
    2MOL   H186  528   6.900   5.316   1.460 -2.8854 -1.9803  1.1268
    2MOL   H187  529   7.311   5.212   1.263 -0.4585 -0.4593  0.5461
    2MOL   H188  530   7.333   5.370   1.318 -0.1146 -0.9981  2.3188
    2MOL   C189  531   7.179   5.352   1.162 -0.5561  0.0574  0.8192
    2MOL   C190  532   7.147   5.496   1.171 -0.7449  0.2911  0.9497
    2MOL   C191  533   7.027   5.532   1.237 -0.3170 -1.2076 -0.0485
    2MOL   C192  534   7.005   5.671   1.266  0.2493 -0.6309 -0.4499
    2MOL   C193  535   7.097   5.769   1.231  0.2967 -0.5027  0.1909
    2MOL   O194  536   7.083   5.896   1.280  0.4061  0.0549 -0.5052
    2MOL   C195  537   7.214   5.737   1.157  0.2328 -0.1747 -0.3460
    2MOL   C196  538   7.239   5.597   1.127  0.7365  0.1151 -0.7850
    2MOL   C197  539   7.240   5.304   1.022 -0.3089  0.0406 -0.0099
    2MOL   H198  540   7.079   5.308   1.159 -0.8892  0.8964 -0.9892
    2MOL   H199  541   6.955   5.459   1.271 -0.2896 -0.5104  1.5715
    2MOL   H200  542   6.915   5.703   1.317  1.9654  1.6804  1.2086
    2MOL   H201  543   7.163   5.943   1.263  1.8668 -2.0383  0.3954
    2MOL   H202  544   7.282   5.812   1.118  0.2710  0.0772  0.2008
    2MOL   H203  545   7.335   5.569   1.087  2.8861  3.4324  1.7940
    2MOL   H204  546   7.228   5.197   1.004  1.8460 -0.3647  0.8138
    2MOL   H205  547   7.346   5.321   1.010  0.0062 -0.7299  1.4965
    2MOL   C206  548   7.186   5.367   0.889 -0.0111 -0.4821 -0.7609
    2MOL   C207  549   7.032   5.355   0.877 -0.1262  0.2483  0.3894
    2MOL   C208  550   6.966   5.232   0.867 -0.0705 -0.6475 -0.2702
    2MOL   C209  551   6.828   5.225   0.856 -0.4061  0.3253 -0.2515
    2MOL   C210  552   6.751   5.341   0.861  0.4624  0.2505  0.3030
    2MOL   O211  553   6.612   5.343   0.866 -0.5782  0.1252 -0.2251
    2MOL   C212  554   6.816   5.466   0.862  0.5763  0.1500 -0.7571
    2MOL   C213  555   6.957   5.477   0.864  0.2905  0.3281  0.4407
    2MOL   C214  556   7.252   5.315   0.763  0.5091  0.0973 -0.0928
    2MOL   H215  557   7.207   5.474   0.884 -1.2034 -0.2159 -0.3457
    2MOL   H216  558   7.026   5.142   0.868 -1.6229 -1.7934 -3.1877
    2MOL   H217  559   6.771   5.133   0.848 -0.0715 -0.1015  2.0665
    2MOL   H218  560   6.568   5.275   0.818 -0.2369  0.2259 -0.6767
    2MOL   H219  561   6.761   5.559   0.865  1.8508  0.9039 -0.6795
    2MOL   H220  562   7.005   5.574   0.871 -1.8144  1.4446 -0.3078
    2MOL   H221  563   7.220   5.214   0.736 -1.1449  0.6920 -0.4013
    2MOL   H222  564   7.359   5.323   0.784  0.9382  2.5226 -2.9101
    2MOL   C223  565   7.239   5.402   0.637  0.2061 -0.0476  0.7272
    2MOL   C224  566   7.122   5.359   0.551  0.5912  0.0879  0.0731
    2MOL   C225  567   7.010   5.444   0.532 -0.0312  0.5074  0.7962
    2MOL   C226  568   6.898   5.404   0.464 -0.2133 -0.4439  0.5166
    2MOL   C227  569   6.891   5.272   0.402  0.6844  0.3029  0.2100
    2MOL   O228  570   6.782   5.243   0.332  0.0330  0.0508  0.0010
    2MOL   C229  571   7.002   5.188   0.417  0.1065  0.3134  0.1786
    2MOL   C230  572   7.119   5.234   0.485  0.1126  0.2198  0.1055
    2MOL   C231  573   7.373   5.409   0.560 -0.1152 -0.6865 -0.1681
    2MOL   H232  574   7.217   5.504   0.668  0.6227  1.1465 -2.6045
    2MOL   H233  575   7.003   5.541   0.580  1.5046  0.3721  1.3094
    2MOL   H234  576   6.817   5.475   0.454 -1.0884 -1.1067  2.5660
    2MOL   H235  577   6.713   5.305   0.348  1.9200  1.6483  2.2523
    2MOL   H236  578   7.011   5.089   0.375 -0.1937 -0.7312  2.4972
    2MOL   H237  579   7.198   5.163   0.502 -1.2279 -1.1703  0.6837
    2MOL   H238  580   7.460   5.439   0.619 -0.3301 -1.9415  0.8076
    2MOL   H239  581   7.395   5.304   0.540 -1.2114 -1.0127  0.2920
    2MOL   C240  582   7.382   5.500   0.435  0.7003  0.3026  0.0264
    2MOL   C241  583   7.348   5.646   0.465  0.9453  0.7802  0.1031
    2MOL   C242  584   7.419   5.715   0.567  0.6382 -0.0583 -0.4564
    2MOL   C243  585   7.388   5.848   0.592 -0.0728  0.5120  0.4536
    2MOL   C244  586   7.293   5.917   0.520 -0.0151 -0.1086  0.0640
    2MOL   O245  587   7.284   6.054   0.527 -0.4127  0.1271  0.5089
    2MOL   C246  588   7.224   5.847   0.418 -0.0504 -0.1762  0.1655
    2MOL   C247  589   7.251   5.718   0.395  0.2824 -0.2989  0.7606
    2MOL   C248  590   7.524   5.479   0.379  0.4487 -0.0953  0.0309
    2MOL   H249  591   7.303   5.477   0.364  0.3886  0.0159  0.4659
    2MOL   H250  592   7.496   5.673   0.630  2.6576  0.5273 -2.4311
    2MOL   H251  593   7.458   5.891   0.662  1.1850  0.0622 -0.5066
    2MOL   H252  594   7.323   6.108   0.593 -2.2481  1.4639  0.5339
    2MOL   H253  595   7.149   5.894   0.356  0.2365 -0.6487 -0.5452
    2MOL   H254  596   7.197   5.669   0.316  0.2544 -1.1324  1.2938
    2MOL   H255  597   7.544   5.568   0.319  0.4129  0.7319  1.2354
    2MOL   H256  598   7.597   5.484   0.460  1.6391  1.2523 -1.1092
    2MOL   C257  599   7.526   5.355   0.279  0.2382  0.3650  0.3480
    2MOL   C258  600   7.427   5.364   0.162  0.1609 -0.5383 -0.1997
    2MOL   C259  601   7.326   5.271   0.139 -0.4442 -0.3609  0.2426
    2MOL   C260  602   7.231   5.287   0.038 -0.4210  0.6775  0.3813
    2MOL   C261  603   7.246   5.393   7.981 -0.4031  0.0495  0.2562
    2MOL   O262  604   7.181   5.396   7.861  0.4817  0.1001 -0.0501
    2MOL   C263  605   7.339   5.496   8.008 -0.7079 -0.2052  0.2269
    2MOL   C264  606   7.432   5.480   0.077  0.2222  0.5480 -0.3361
    2MOL   C265  607   7.664   5.324   0.225  0.1323  0.0849  0.0636
    2MOL   H266  608   7.492   5.270   0.338 -0.0429  1.3793  1.6901
    2MOL   H267  609   7.316   5.175   0.188  0.0056 -1.5515 -1.9048
    2MOL   H268  610   7.149   5.221   0.015 -0.7629  1.2988 -0.2432
    2MOL   H269  611   7.125   5.320   7.861 -0.1185  0.5246  1.7009
    2MOL   H270  612   7.352   5.576   7.936 -1.3880 -0.0625  0.2577
    2MOL   H271  613   7.514   5.550   0.085  0.5849  0.0788  0.1228
    2MOL   H272  614   7.687   5.393   0.144 -0.3498 -1.1862 -1.1738
    2MOL   H273  615   7.666   5.228   0.174  0.7044 -0.2628  0.7310
    2MOL   C274  616   7.777   5.326   0.331  0.1558  0.0146 -0.2638
    2MOL   C275  617   7.914   5.335   0.260 -0.3462 -0.1807 -0.3992
    2MOL   C276  618   7.989   5.450   0.266  0.5940  0.2657  0.8308
    2MOL   C277  619   0.058   5.475   0.178  0.4287  0.1779 -0.4674
    2MOL   C278  620   0.098   5.377   0.088  0.5437  0.5223  0.3683
    2MOL   O279  621   0.210   5.376   0.004 -1.0249  0.5168 -0.0122
    2MOL   C280  622   0.031   5.249   0.096 -0.0185  0.2276  0.3184
    2MOL   C281  623   7.959   5.227   0.177  0.5790  0.0273 -0.2257
    2MOL   C282  624   7.779   5.210   0.431  0.7084 -0.2585 -0.2908
    2MOL   H283  625   7.761   5.421   0.383 -2.8765 -0.3458 -0.4582
    2MOL   H284  626   7.959   5.518   0.345  0.5153  0.9236  0.2409
    2MOL   H285  627   0.112   5.568   0.186  0.8905  0.0312 -1.7730
    2MOL   H286  628   0.233   5.462   8.009 -0.5071 -0.1025 -1.3224
    2MOL   H287  629   0.068   5.162   0.044 -0.9155 -0.2616  0.4882
    2MOL   H288  630   7.899   5.137   0.168  1.8473 -0.6220 -2.8526
    2MOL   H289  631   7.682   5.191   0.478  1.1350  2.2640  1.7460
    2MOL   H290  632   7.813   5.120   0.379 -1.0276 -2.3046  1.9704
    2MOL   C291  633   7.869   5.242   0.552  0.5975  0.0086  0.1685
    2MOL   C292  634   7.897   5.107   0.629 -0.5232 -0.6008  0.6787
    2MOL   C293  635   8.017   5.037   0.609  0.6077  0.8363 -0.0421
    2MOL   C294  636   0.007   4.925   0.687  0.6016  0.3552 -0.1465
    2MOL   C295  637   7.953   4.881   0.781 -0.4268  0.2891  0.1051
    2MOL   O296  638   7.985   4.782   0.868  0.1916  0.0320  0.4563
    2MOL   C297  639   7.832   4.949   0.805 -0.0108 -0.4798 -0.2746
    2MOL   C298  640   7.806   5.064   0.726 -0.3216  0.1864  0.8292
    2MOL   C299  641   7.816   5.359   0.633  0.6413  0.1886 -0.6828
    2MOL   H300  642   7.967   5.269   0.512  1.3371 -0.6335  1.4812
    2MOL   H301  643   0.038   5.075   0.527  2.2567 -2.0540 -0.2779
    2MOL   H302  644   0.099   4.871   0.666 -0.5552 -0.7808 -2.5022
    2MOL   H303  645   0.040   4.762   0.866 -0.1578 -1.5473 -1.6520
    2MOL   H304  646   7.762   4.931   0.885  0.6668 -1.3323  0.1434
    2MOL   H305  647   7.710   5.111   0.738 -0.4650  0.3866 -0.8878
    2MOL   H306  648   7.709   5.346   0.621  0.6486  1.2042 -1.9261
    2MOL   H307  649   7.837   5.450   0.578  0.8584  0.0511 -0.8271
    2MOL   C308  650   7.864   5.381   0.778  0.3025 -0.9448 -0.0393
    2MOL   C309  651   7.795   5.490   0.849  0.3981  0.0548  0.0783
    2MOL   C310  652   7.768   5.486   0.986 -0.1190  0.0634  0.2878
    2MOL   C311  653   7.714   5.592   1.058  0.2788 -0.0662  0.1929
    2MOL   C312  654   7.653   5.698   0.986  0.0071  1.0895 -0.2709
    2MOL   O313  655   7.569   5.774   1.055 -0.0973  0.8715 -0.1718
    2MOL   C314  656   7.667   5.704   0.848 -0.3394  0.3198 -0.6370
    2MOL   C315  657   7.746   5.606   0.780  0.0666 -0.3808  0.1682
    2MOL   C316  658   8.018   5.399   0.782  0.2221 -0.6374  0.3197
    2MOL   H317  659   7.866   5.292   0.841  0.9443 -0.8878  0.0266
    2MOL   H318  660   7.816   5.405   1.039  0.9451  0.2256 -0.4060
    2MOL   H319  661   7.707   5.597   1.165 -0.5985 -0.1488  0.1468
    2MOL   H320  662   7.583   5.776   1.149  1.0362 -0.0420 -0.3154
    2MOL   H321  663   7.617   5.789   0.804 -2.8150 -0.5189  0.4840
    2MOL   H322  664   7.749   5.627   0.674  0.0159 -1.9989 -0.1712
    2MOL   H323  665   0.005   5.503   0.760  1.9999 -0.9894  0.5446
    2MOL   H324  666   0.030   5.347   0.700  0.3536  0.0250 -0.0251
    2MOL   C325  667   0.052   5.364   0.913  0.3648 -0.0808 -0.8276
    2MOL   C326  668   0.193   5.413   0.930 -0.5181 -0.2948 -0.7875
    2MOL   C327  669   0.274   5.428   0.816 -0.3475 -0.4791 -0.7011
    2MOL   C328  670   0.411   5.455   0.829 -0.4302 -0.3318  0.3362
    2MOL   C329  671   0.467   5.459   0.952 -0.9844  0.1312  0.2614
    2MOL   O330  672   0.607   5.462   0.972 -0.1776 -0.2177  0.3399
    2MOL   C331  673   0.390   5.449   1.068  0.3502 -0.2296 -0.0020
    2MOL   C332  674   0.250   5.426   1.060  0.6284 -0.0583 -0.3474
    2MOL   C333  675   0.049   5.209   0.953  0.2703 -0.1246 -0.1641
    2MOL   H334  676   8.032   5.419   0.987  0.6098  1.8132 -2.0008
    2MOL   H335  677   0.236   5.412   0.716  0.3251  0.5010 -1.1151
    2MOL   H336  678   0.478   5.445   0.745 -1.2140 -2.5948 -0.0601
    2MOL   H337  679   0.645   5.453   0.886 -1.2432  0.0565 -0.1667
    2MOL   H338  680   0.444   5.449   1.162 -0.6433  0.6152  0.5779
    2MOL   H339  681   0.184   5.408   1.143  2.2296 -0.6924  0.8211
    2MOL   H340  682   0.110   5.160   0.877  0.0710 -1.6540  0.6274
    2MOL   H341  683   7.990   5.162   0.974  0.4961  0.4939  2.5386
    2MOL   H342  684   0.111   5.201   1.043  1.7095  1.5569 -0.9858
    3MOL     C1  685   2.454   4.167   1.636  0.3641  0.1750 -1.5019
    3MOL     C2  686   2.413   4.107   1.771 -0.4248  0.4127 -0.8813
    3MOL     C3  687   2.377   3.972   1.779 -0.3942 -0.1441 -0.2437
    3MOL     C4  688   2.347   3.908   1.903 -0.6986  0.1363 -1.3097
    3MOL     C5  689   2.356   3.985   2.021  0.1107  0.0736 -0.0432
    3MOL     O6  690   2.343   3.930   2.143  0.3160  0.9771  0.2105
    3MOL     C7  691   2.396   4.122   2.014 -0.0415 -0.2746  0.4984
    3MOL     C8  692   2.422   4.178   1.891  0.4922  0.7549  0.1497
    3MOL     C9  693   2.597   4.152   1.589 -0.6978 -0.2904 -0.0787
    3MOL    H10  694   2.385   4.129   1.561 -1.6711 -2.4785  1.5766
    3MOL    H11  695   2.371   3.910   1.691  0.0093  0.1079 -0.4547
    3MOL    H12  696   2.304   3.809   1.910  3.2755 -1.6966 -1.4108
    3MOL    H13  697   2.334   3.836   2.141  4.9274  0.3695  2.3662
    3MOL    H14  698   2.404   4.179   2.105 -2.1384 -0.4646  0.8140
    3MOL    H15  699   2.448   4.283   1.892 -2.0711  1.4076  1.2811
    3MOL    H16  700   2.586   4.188   1.487 -1.4904  2.9041  1.0632
    3MOL    H17  701   2.622   4.051   1.557  0.3670  0.4466 -1.6841
    3MOL    H18  702   2.431   4.273   1.649 -0.2044 -0.2437  1.1747
    3MOL    C19  703   2.712   4.230   1.659  0.2583 -0.4042 -0.3939
    3MOL    C20  704   2.826   4.256   1.558  0.0972  0.9876  0.1644
    3MOL    C21  705   2.895   4.142   1.504 -0.4743 -0.3918  0.1912
    3MOL    C22  706   2.993   4.163   1.410  0.0171  0.0534 -0.3335
    3MOL    C23  707   3.014   4.289   1.352  0.7494 -0.0100 -0.1788
    3MOL    O24  708   3.097   4.293   1.245 -0.1443 -0.1022  0.4172
    3MOL    C25  709   2.939   4.401   1.389 -0.1947 -0.4058 -0.5291
    3MOL    C26  710   2.851   4.385   1.501  0.2577 -0.4249  0.2171
    3MOL    C27  711   2.760   4.163   1.787  0.7332  0.1284 -0.8827
    3MOL    H28  712   2.663   4.320   1.696  1.0210 -0.0071 -0.3518
    3MOL    H29  713   2.866   4.042   1.533 -0.0288 -0.7923 -0.7578
    3MOL    H30  714   3.052   4.081   1.371 -0.2365  0.4950 -1.6913
    3MOL    H31  715   3.151   4.371   1.248 -3.9910  2.7069  0.0649
    3MOL    H32  716   2.929   4.488   1.327 -1.7772  0.2215  0.5579
    3MOL    H33  717   2.802   4.470   1.546  1.9469  0.4350  0.4852
    3MOL    H34  718   2.796   4.061   1.767 -0.2447 -0.5216  0.6420
    3MOL    H35  719   2.666   4.148   1.840  0.9982 -0.4480 -0.5703
    3MOL    C36  720   2.853   4.250   1.875 -0.1591  0.3465 -0.3152
    3MOL    C37  721   2.927   4.171   1.976 -0.3968  0.3069  0.0248
    3MOL    C38  722   2.860   4.075   2.057  0.0857 -0.3838 -0.2601
    3MOL    C39  723   2.935   4.003   2.148  0.0143  0.9990  0.2133
    3MOL    C40  724   3.077   4.012   2.150  0.2851  0.1095 -0.2217
    3MOL    O41  725   3.141   3.934   2.237 -0.6019  0.1590 -0.2787
    3MOL    C42  726   3.146   4.106   2.069  0.1135  0.0521 -0.4316
    3MOL    C43  727   3.067   4.186   1.982 -0.3332  0.4164 -0.9468
    3MOL    C44  728   2.777   4.372   1.945 -1.0997  0.3179 -0.7693
    3MOL    H45  729   2.925   4.293   1.805  0.2548 -1.4701 -1.0389
    3MOL    H46  730   2.752   4.066   2.057  0.0852 -0.7618  2.7115
    3MOL    H47  731   2.886   3.931   2.211 -2.0495  0.5832 -1.8094
    3MOL    H48  732   3.085   3.870   2.276 -1.0173  0.4658 -0.3698
    3MOL    H49  733   3.253   4.112   2.083  0.1916  0.1992 -1.0986
    3MOL    H50  734   3.123   4.247   1.913  0.7154  1.2015  0.5501
    3MOL    H51  735   2.712   4.425   1.875 -1.3250 -0.4107 -1.1183
    3MOL    H52  736   2.705   4.326   2.012  1.0775 -1.6474  0.2985
    3MOL    C53  737   2.868   4.476   2.018  0.0469  0.1808  0.3556
    3MOL    C54  738   2.924   4.580   1.919  0.1764  0.7027  0.1750
    3MOL    C55  739   2.850   4.692   1.869  0.1617  0.0699  0.0059
    3MOL    C56  740   2.908   4.776   1.775 -0.3793  0.0587  0.4248
    3MOL    C57  741   3.035   4.750   1.716  0.2010  0.2587 -0.3708
    3MOL    O58  742   3.096   4.829   1.627  0.2232 -0.2173  0.7995
    3MOL    C59  743   3.113   4.646   1.773 -0.2478  0.6042 -0.3634
    3MOL    C60  744   3.059   4.567   1.877 -0.5926  0.5843  0.0239
    3MOL    C61  745   2.790   4.539   2.132 -0.5024  0.2240  1.1269
    3MOL    H62  746   2.951   4.417   2.056 -0.4007 -1.2775 -0.8736
    3MOL    H63  747   2.754   4.704   1.917  0.0374 -0.7976 -0.0203
    3MOL    H64  748   2.871   4.875   1.754 -1.2270 -0.6920 -1.7065
    3MOL    H65  749   3.058   4.825   1.541  0.2090 -0.8013  0.8339
    3MOL    H66  750   3.218   4.641   1.748  0.2344  0.5743  1.5480
    3MOL    H67  751   3.114   4.484   1.918  0.2645 -0.3358 -2.8797
    3MOL    H68  752   2.693   4.572   2.094  0.6455  1.3075 -0.9182
    3MOL    H69  753   2.855   4.623   2.155 -0.4752  0.5951 -0.2449
    3MOL    C70  754   2.783   4.443   2.252 -0.0392  0.3042  0.4849
    3MOL    C71  755   2.654   4.437   2.341  0.5666 -0.6645  0.4014
    3MOL    C72  756   2.563   4.334   2.318  0.0319  0.3548  0.2359
    3MOL    C73  757   2.449   4.322   2.397  0.0253  0.4214 -0.2625
    3MOL    C74  758   2.426   4.412   2.498  0.7159  1.0711  0.2099
    3MOL    O75  759   2.328   4.376   2.579  0.3260 -0.0077 -0.3476
    3MOL    C76  760   2.518   4.520   2.524 -0.6446  0.0353 -0.2838
    3MOL    C77  761   2.631   4.536   2.443 -0.2394  0.0342 -0.3205
    3MOL    C78  762   2.911   4.459   2.337 -0.2803 -0.0018  0.2392
    3MOL    H79  763   2.799   4.344   2.208 -0.0486  0.8477 -0.7664
    3MOL    H80  764   2.584   4.263   2.239  1.5940 -0.9177  1.7371
    3MOL    H81  765   2.372   4.248   2.385 -1.6845  2.1020  0.2232
    3MOL    H82  766   2.334   4.410   2.667  0.3275 -1.6758  0.3093
    3MOL    H83  767   2.497   4.576   2.614 -1.5269 -1.7521  0.6345
    3MOL    H84  768   2.704   4.612   2.463 -0.5358  0.2812 -0.1729
    3MOL    H85  769   2.915   4.561   2.374 -0.1261  1.2118 -2.9535
    3MOL    H86  770   3.000   4.458   2.275 -0.7158  1.3492 -0.4323
    3MOL    C87  771   2.927   4.361   2.453 -0.5251 -0.4079  0.2696
    3MOL    C88  772   3.066   4.359   2.516  0.2117 -0.3516 -0.0192
    3MOL    C89  773   3.175   4.337   2.439  0.0354 -0.0597  0.8078
    3MOL    C90  774   3.300   4.311   2.497 -0.3709 -0.2724  0.2046
    3MOL    C91  775   3.320   4.328   2.638  0.5941 -0.4494 -0.0592
    3MOL    O92  776   3.440   4.310   2.694 -0.3326  0.1529 -0.3202
    3MOL    C93  777   3.208   4.362   2.714  0.1856  0.6909 -0.5831
    3MOL    C94  778   3.081   4.376   2.653 -0.2458 -0.3140  0.2834
    3MOL    C95  779   2.875   4.219   2.418 -0.2457 -0.0629  0.5044
    3MOL    H96  780   2.855   4.406   2.523 -2.9253 -2.3857 -0.8568
    3MOL    H97  781   3.170   4.325   2.332  0.6135 -0.3207  0.8117
    3MOL    H98  782   3.389   4.289   2.439  0.4052  0.0511  1.2616
    3MOL    H99  783   3.484   4.242   2.646 -0.9812  0.7337 -1.7757
    3MOL   H100  784   3.212   4.385   2.820  0.5651 -0.4377 -0.3456
    3MOL   H101  785   2.996   4.399   2.715 -0.0826  0.2278  0.3058
    3MOL   H102  786   2.781   4.208   2.364  0.5755  1.3323 -1.2709
    3MOL   H103  787   2.954   4.176   2.356  0.7135 -0.7050  2.1438
    3MOL   C104  788   2.852   4.126   2.545  0.3692 -0.0918  0.3669
    3MOL   C105  789   2.853   3.979   2.513 -0.4796  0.1697  0.1526
    3MOL   C106  790   2.965   3.902   2.545 -0.3065 -0.6464 -0.0666
    3MOL   C107  791   2.980   3.769   2.510 -0.2294  0.7188 -1.0082
    3MOL   C108  792   2.877   3.709   2.431 -0.4497  0.0866 -0.5213
    3MOL   O109  793   2.895   3.584   2.381  0.4391 -0.6160 -0.4750
    3MOL   C110  794   2.766   3.784   2.400  0.4704  0.3504  0.1016
    3MOL   C111  795   2.756   3.918   2.430  0.3179 -0.4493  0.4030
    3MOL   C112  796   2.717   4.151   2.621 -0.1399 -0.1734 -0.2366
    3MOL   H113  797   2.931   4.150   2.616 -0.1907  3.0096  0.0261
    3MOL   H114  798   3.037   3.956   2.604 -0.1911  1.7094 -2.2175
    3MOL   H115  799   3.069   3.717   2.541 -0.7199  0.2390 -0.4056
    3MOL   H116  800   2.823   3.531   2.351 -2.1329  1.2623  2.1756
    3MOL   H117  801   2.689   3.744   2.335 -0.1518  1.5069  0.1264
    3MOL   H118  802   2.675   3.973   2.383 -1.6070 -3.8840 -0.4888
    3MOL   H119  803   2.626   4.105   2.581 -1.4063  1.3203  0.8682
    3MOL   H120  804   2.694   4.256   2.604 -0.0306 -0.4110 -1.9884
    3MOL   C121  805   2.718   4.132   2.776 -0.2070  0.7934 -0.0814
    3MOL   C122  806   2.793   4.249   2.840 -0.3278 -0.9992  0.0775
    3MOL   C123  807   2.735   4.378   2.858  0.5805 -0.0010  0.1876
    3MOL   C124  808   2.797   4.477   2.941 -0.2717  0.0375  0.5902
    3MOL   C125  809   2.926   4.448   2.992  0.3213  0.2782 -0.0086
    3MOL   O126  810   2.994   4.547   3.056  0.5304 -0.3729  0.8734
    3MOL   C127  811   2.991   4.324   2.968  0.2363  0.7646 -0.0215
    3MOL   C128  812   2.922   4.227   2.890  0.3290 -0.3704 -0.0718
    3MOL   C129  813   2.574   4.134   2.845 -0.0856 -0.5328 -0.7227
    3MOL   H130  814   2.776   4.046   2.809  0.1035  1.4705  1.1587
    3MOL   H131  815   2.639   4.409   2.818 -0.5819 -2.6437  0.8513
    3MOL   H132  816   2.749   4.572   2.959  0.3996  0.2108  1.5101
    3MOL   H133  817   2.943   4.626   3.043 -0.1516 -1.0412 -0.6237
    3MOL   H134  818   3.092   4.303   2.999 -0.0466 -1.6534 -0.6793
    3MOL   H135  819   2.981   4.137   2.881  0.6010 -0.0616 -1.5242
    3MOL   H136  820   2.515   4.225   2.834 -0.9667 -1.2150 -1.5965
    3MOL   H137  821   2.601   4.134   2.951 -0.6271  1.6171 -0.5580
    3MOL   C138  822   2.480   4.016   2.834 -0.2675 -0.3228  0.1107
    3MOL   C139  823   2.411   4.008   2.702 -0.7525  0.0575 -0.0771
    3MOL   C140  824   2.445   3.905   2.604  0.4656  0.0223  0.5135
    3MOL   C141  825   2.367   3.894   2.487 -0.2438  0.3256  0.0633
    3MOL   C142  826   2.259   3.984   2.465  0.4207  0.5435 -0.4229
    3MOL   O143  827   2.189   3.990   2.350 -0.5898  0.2889  0.4507
    3MOL   C144  828   2.220   4.085   2.567 -0.3320  0.3988  0.2484
    3MOL   C145  829   2.304   4.101   2.675 -0.5015 -0.2173  0.0463
    3MOL   C146  830   2.367   4.013   2.945 -0.2452 -0.2778  0.4784
    3MOL   H147  831   2.533   3.922   2.843  2.3178  0.9867 -0.7831
    3MOL   H148  832   2.528   3.837   2.611 -1.1185 -1.7843  2.0977
    3MOL   H149  833   2.400   3.820   2.416 -0.6255  1.3543 -1.2201
    3MOL   H150  834   2.238   3.977   2.270  0.6984  0.9949  1.1182
    3MOL   H151  835   2.129   4.143   2.563 -1.0623 -0.7069  0.4559
    3MOL   H152  836   2.288   4.179   2.749 -2.3571  0.7380 -1.3113
    3MOL   H153  837   2.291   3.944   2.909  2.1188 -1.2923 -2.8269
    3MOL   H154  838   2.332   4.116   2.953  1.5187  0.3060  1.0395
    3MOL   C155  839   2.425   3.967   3.080 -0.1976 -0.5106 -0.8798
    3MOL   C156  840   2.450   3.817   3.080  0.2875  0.2497  0.7394
    3MOL   C157  841   2.573   3.762   3.127  0.2706  0.3929  0.1602
    3MOL   C158  842   2.595   3.624   3.130 -0.6983  0.0178  0.0070
    3MOL   C159  843   2.504   3.537   3.076  0.1500  0.4608  0.4861
    3MOL   O160  844   2.534   3.404   3.061 -0.2993  0.1383 -0.0209
    3MOL   C161  845   2.379   3.587   3.032  0.5113 -0.1747 -0.9761
    3MOL   C162  846   2.353   3.721   3.026  0.0304  0.0067 -0.0051
    3MOL   C163  847   2.322   4.005   3.189 -0.7723  0.0195 -0.4570
    3MOL   H164  848   2.517   4.019   3.106 -0.1553 -0.4740 -1.1090
    3MOL   H165  849   2.652   3.828   3.161  0.3533  0.9312 -1.0438
    3MOL   H166  850   2.690   3.592   3.168 -0.5612 -0.3218 -0.6069
    3MOL   H167  851   2.609   3.379   3.113 -1.8044  0.9331  2.6480
    3MOL   H168  852   2.304   3.525   2.987  0.9106 -1.8424  0.6143
    3MOL   H169  853   2.260   3.749   2.978 -0.6722 -0.2979  1.1546
    3MOL   H170  854   2.230   3.951   3.168 -1.4668  1.2782 -0.7062
    3MOL   H171  855   2.310   4.111   3.164  3.0509  0.6384 -0.0311
    3MOL   C172  856   2.366   3.990   3.334 -0.2070 -0.1437  0.0641
    3MOL   C173  857   2.245   4.030   3.416 -0.6103 -0.4790 -0.3263
    3MOL   C174  858   2.189   4.163   3.394  0.4802 -0.7768 -0.2024
    3MOL   C175  859   2.071   4.200   3.470 -0.1786  0.2580 -0.2121
    3MOL   C176  860   2.007   4.108   3.555 -0.2986  0.3727 -0.1701
    3MOL   O177  861   1.907   4.151   3.634  1.0533  0.4499  0.0979
    3MOL   C178  862   2.061   3.979   3.567  0.9674  0.2405  0.2086
    3MOL   C179  863   2.173   3.933   3.493  0.4461 -0.4667  0.4540
    3MOL   C180  864   2.484   4.085   3.368 -0.0577 -0.5975 -0.8628
    3MOL   H181  865   2.393   3.888   3.362 -0.8214 -0.0602  0.9765
    3MOL   H182  866   2.229   4.238   3.327 -0.8557  0.5197  0.4154
    3MOL   H183  867   2.029   4.300   3.471 -0.2991  0.2131  1.4594
    3MOL   H184  868   1.879   4.093   3.703  1.3118 -0.1896 -0.3336
    3MOL   H185  869   2.012   3.906   3.630 -0.5321 -0.1959 -1.4091
    3MOL   H186  870   2.221   3.837   3.490  2.1152  0.3611  0.0761
    3MOL   H187  871   2.446   4.184   3.346  0.4773 -0.5155 -1.4395
    3MOL   H188  872   2.572   4.065   3.307  0.7485  0.4154 -0.0307
    3MOL   C189  873   2.521   4.073   3.522 -0.2876 -0.1699 -0.2283
    3MOL   C190  874   2.568   3.932   3.555 -0.1497 -1.2692  0.5381
    3MOL   C191  875   2.675   3.874   3.492 -0.6403  0.7594  0.7259
    3MOL   C192  876   2.717   3.739   3.512  0.7230  0.0035  0.2024
    3MOL   C193  877   2.640   3.669   3.609  0.1611  0.3022  0.2951
    3MOL   O194  878   2.678   3.539   3.632  0.5028 -0.0443 -0.5280
    3MOL   C195  879   2.528   3.726   3.672  0.4195 -0.2758 -0.1159
    3MOL   C196  880   2.489   3.861   3.646  0.0555  0.0506 -0.3558
    3MOL   C197  881   2.621   4.186   3.559  0.6628 -0.1175  0.1188
    3MOL   H198  882   2.427   4.087   3.574  0.1339  0.9073  0.2625
    3MOL   H199  883   2.727   3.932   3.417 -2.2116  1.0563 -0.1536
    3MOL   H200  884   2.790   3.688   3.450  1.4989 -1.2053  2.0513
    3MOL   H201  885   2.731   3.506   3.561  0.2052 -5.0299  1.3606
    3MOL   H202  886   2.483   3.674   3.756  2.2644  0.7200  1.5506
    3MOL   H203  887   2.401   3.908   3.687  0.6100  1.3877 -0.6583
    3MOL   H204  888   2.596   4.281   3.510  2.1871  0.6059  0.6969
    3MOL   H205  889   2.713   4.173   3.503  0.6960  0.2407  0.0882
    3MOL   C206  890   2.654   4.194   3.713  0.1939 -0.3158 -0.5175
    3MOL   C207  891   2.533   4.232   3.799 -0.8397  0.3315 -0.2451
    3MOL   C208  892   2.458   4.346   3.770 -0.1634  0.5455 -0.6824
    3MOL   C209  893   2.340   4.376   3.838 -0.2309 -0.7422 -0.0171
    3MOL   C210  894   2.300   4.298   3.946 -0.6649  0.3064 -1.0758
    3MOL   O211  895   2.194   4.333   4.016 -0.3177  0.2838 -0.4937
    3MOL   C212  896   2.371   4.178   3.976  0.2249  0.3332  0.1736
    3MOL   C213  897   2.483   4.145   3.902 -0.6581 -0.3047  0.1520
    3MOL   C214  898   2.775   4.282   3.752  0.0865  0.0452 -0.3396
    3MOL   H215  899   2.687   4.093   3.737  1.8050  0.3860  0.2642
    3MOL   H216  900   2.486   4.412   3.690 -1.2246 -0.1680 -1.6478
    3MOL   H217  901   2.286   4.466   3.809  2.4180  0.5640 -1.0230
    3MOL   H218  902   2.152   4.415   3.993 -2.4477 -0.1014  1.7511
    3MOL   H219  903   2.341   4.124   4.065  1.5139 -0.7089 -0.0019
    3MOL   H220  904   2.535   4.052   3.922  0.3810  0.2250 -0.0634
    3MOL   H221  905   2.741   4.385   3.758  2.3913  0.8367 -0.1346
    3MOL   H222  906   2.836   4.296   3.663 -1.2040  1.1851 -1.0596
    3MOL   C223  907   2.863   4.222   3.867  0.3182 -0.8210 -1.1467
    3MOL   C224  908   2.951   4.324   3.942  0.7644 -0.2666  0.0927
    3MOL   C225  909   2.948   4.327   4.084  0.5219 -0.2455  0.6847
    3MOL   C226  910   3.006   4.436   4.156  0.2193 -0.3920  0.0540
    3MOL   C227  911   3.064   4.548   4.087  0.4418 -0.2745  0.2844
    3MOL   O228  912   3.101   4.659   4.157 -0.1405 -0.0531  0.7627
    3MOL   C229  913   3.058   4.551   3.947 -0.3019 -0.3111 -0.7145
    3MOL   C230  914   3.007   4.440   3.875 -0.3061 -0.4839 -0.5938
    3MOL   C231  915   2.955   4.114   3.808  0.1761  0.0897 -0.1059
    3MOL   H232  916   2.804   4.175   3.946  0.1754 -1.5654 -1.6820
    3MOL   H233  917   2.903   4.246   4.140 -0.4533 -0.0471  0.2042
    3MOL   H234  918   2.988   4.439   4.263 -0.7796  0.7149 -0.1463
    3MOL   H235  919   3.099   4.744   4.116 -1.6210  0.2441  1.4199
    3MOL   H236  920   3.096   4.630   3.883 -0.8458  0.0387 -0.6048
    3MOL   H237  921   3.002   4.445   3.767  1.3617  2.1201 -0.6063
    3MOL   H238  922   2.896   4.053   3.740 -1.8366  1.8381  0.0242
    3MOL   H239  923   3.039   4.158   3.753  0.0776 -1.9313 -1.9079
    3MOL   C240  924   3.025   4.024   3.911 -0.4096 -0.6892 -0.8497
    3MOL   C241  925   2.928   3.952   4.003  0.4728  0.6796 -0.1537
    3MOL   C242  926   2.824   3.875   3.946  0.1877 -0.2703 -0.1359
    3MOL   C243  927   2.726   3.808   4.028 -0.5290 -0.9273 -0.2909
    3MOL   C244  928   2.733   3.827   4.160 -0.5687 -0.3898  0.1981
    3MOL   O245  929   2.647   3.767   4.241  0.2180  1.1321 -0.1826
    3MOL   C246  930   2.836   3.902   4.216  0.0094 -0.1280 -0.4059
    3MOL   C247  931   2.941   3.958   4.140 -0.1241  0.3173  0.1231
    3MOL   C248  932   3.109   3.917   3.836  0.2026 -0.2296  0.0227
    3MOL   H249  933   3.078   4.095   3.975 -1.7678 -1.4061  1.1379
    3MOL   H250  934   2.815   3.861   3.839  0.2838  0.9066 -0.3020
    3MOL   H251  935   2.658   3.740   3.979  0.2847 -1.2280 -1.0128
    3MOL   H252  936   2.593   3.704   4.198 -0.7799  1.3558  0.7222
    3MOL   H253  937   2.844   3.901   4.323 -1.6101  3.6156 -0.2061
    3MOL   H254  938   3.026   3.999   4.192  0.1635 -0.7702  0.5353
    3MOL   H255  939   3.055   3.872   3.753  0.6852 -1.4504  0.3713
    3MOL   H256  940   3.185   3.978   3.787 -1.2069  1.0268 -0.6531
    3MOL   C257  941   3.184   3.807   3.920  0.1587 -0.7006  0.0242
    3MOL   C258  942   3.101   3.680   3.945  0.4409  0.8014  0.5449
    3MOL   C259  943   3.093   3.636   4.077 -0.0510  0.1574  0.3774
    3MOL   C260  944   2.996   3.536   4.109 -0.5488 -0.0969 -0.6270
    3MOL   C261  945   2.912   3.487   4.009 -0.2024 -0.1057 -0.6276
    3MOL   O262  946   2.816   3.389   4.040 -0.2358  0.0409 -0.1824
    3MOL   C263  947   2.921   3.533   3.881  0.0340  0.2619  0.0654
    3MOL   C264  948   3.015   3.626   3.849 -0.4301  1.2212 -0.2375
    3MOL   C265  949   3.305   3.770   3.827 -0.7403 -0.7202  0.0302
    3MOL   H266  950   3.210   3.851   4.017 -0.5714 -2.0931  0.8721
    3MOL   H267  951   3.151   3.676   4.158 -1.6625 -1.1720  2.2569
    3MOL   H268  952   2.988   3.492   4.208  2.3526 -0.2029 -0.3894
    3MOL   H269  953   2.843   3.342   4.118 -1.3097 -0.4486 -0.0991
    3MOL   H270  954   2.849   3.503   3.806 -1.9197 -0.7718  2.3124
    3MOL   H271  955   3.008   3.663   3.748 -2.0696 -0.7511 -0.8822
    3MOL   H272  956   3.361   3.855   3.789  0.1037 -1.5116 -0.5056
    3MOL   H273  957   3.258   3.712   3.747  0.4325 -1.1996 -0.3211
    3MOL   C274  958   3.409   3.689   3.913 -0.2649 -0.4334  0.1762
    3MOL   C275  959   3.462   3.768   4.040  0.6589  0.3769  0.2514
    3MOL   C276  960   3.484   3.701   4.160 -0.5674 -0.1232  0.4554
    3MOL   C277  961   3.552   3.762   4.270  0.4144  0.0479 -0.5943
    3MOL   C278  962   3.588   3.895   4.259 -0.3670 -0.4127 -0.2985
    3MOL   O279  963   3.658   3.956   4.357  0.0380  0.1661  0.3464
    3MOL   C280  964   3.561   3.967   4.141 -0.6981  0.4615  0.1582
    3MOL   C281  965   3.504   3.903   4.033 -0.5233  0.0397  0.3935
    3MOL   C282  966   3.535   3.636   3.833 -0.0163 -0.2576 -0.4836
    3MOL   H283  967   3.368   3.596   3.953  1.9986 -0.4910  2.4912
    3MOL   H284  968   3.473   3.593   4.160 -0.1690 -0.1650  0.5272
    3MOL   H285  969   3.576   3.704   4.358 -0.0078 -0.4547 -0.8096
    3MOL   H286  970   3.667   4.048   4.336  0.1935  0.1947  0.5319
    3MOL   H287  971   3.589   4.071   4.139 -0.8019  0.4769 -0.6315
    3MOL   H288  972   3.489   3.960   3.942 -1.1270  0.2792  0.6366
    3MOL   H289  973   3.571   3.713   3.764  2.8921 -0.6551  0.5019
    3MOL   H290  974   3.619   3.638   3.902 -0.5976 -1.1785  0.2645
    3MOL   C291  975   3.533   3.494   3.767 -0.3180 -0.1629 -0.1906
    3MOL   C292  976   3.669   3.480   3.698  0.0530 -0.0925 -0.4209
    3MOL   C293  977   3.695   3.547   3.577  0.5806  0.2377  0.1871
    3MOL   C294  978   3.820   3.530   3.509 -0.3434 -0.7741 -0.2021
    3MOL   C295  979   3.915   3.443   3.558  0.4560  0.3106 -0.0986
    3MOL   O296  980   4.026   3.412   3.485 -0.0274  0.2970 -0.0019
    3MOL   C297  981   3.890   3.377   3.682 -0.2041 -0.0311  0.3726
    3MOL   C298  982   3.769   3.401   3.755 -0.5145  0.1643  0.7027
    3MOL   C299  983   3.416   3.480   3.673 -0.4630 -0.7270  0.1529
    3MOL   H300  984   3.528   3.423   3.850  2.3710 -1.4247 -1.0449
    3MOL   H301  985   3.621   3.610   3.530  0.9469 -0.3311 -1.1792
    3MOL   H302  986   3.843   3.582   3.417 -1.6641 -1.5613 -0.9929
    3MOL   H303  987   4.099   3.403   3.545  1.6347 -0.8807 -2.0849
    3MOL   H304  988   3.959   3.301   3.716 -0.4163 -1.0316 -1.3522
    3MOL   H305  989   3.768   3.358   3.854 -0.4550 -1.5513 -0.0274
    3MOL   H306  990   3.418   3.572   3.616  1.3348 -0.2450  0.9527
    3MOL   H307  991   3.329   3.486   3.739  0.4022 -0.4273  1.2844
    3MOL   C308  992   3.402   3.358   3.588 -0.1426 -0.5071  0.2848
    3MOL   C309  993   3.258   3.368   3.532  0.2241  0.5535 -0.0323
    3MOL   C310  994   3.230   3.467   3.435 -0.2976 -0.1013  0.6064
    3MOL   C311  995   3.103   3.485   3.391 -0.5269  0.2018 -0.2799
    3MOL   C312  996   3.003   3.409   3.438  0.4240 -0.2216  0.3686
    3MOL   O313  997   2.877   3.431   3.397 -0.5835 -0.0307  0.0312
    3MOL   C314  998   3.026   3.309   3.533 -0.4399  0.1298  0.2445
    3MOL   C315  999   3.153   3.285   3.584  0.3978  0.2626 -0.4441
    3MOL   C316 1000   3.439   3.218   3.639  0.6159  0.3134 -0.4138
    3MOL   H317 1001   3.470   3.386   3.508  1.5969  1.0998  2.2649
    3MOL   H318 1002   3.307   3.534   3.399  0.2135 -1.7349 -1.4688
    3MOL   H319 1003   3.085   3.571   3.328 -0.6060  1.3725  1.3014
    3MOL   H320 1004   2.808   3.368   3.409  0.7349 -1.5439 -0.2270
    3MOL   H321 1005   2.952   3.239   3.567 -1.3756  0.1006 -1.7883
    3MOL   H322 1006   3.175   3.214   3.662  0.0724 -1.0159 -1.4951
    3MOL   H323 1007   3.375   3.196   3.725  1.9207 -1.3904  0.1602
    3MOL   H324 1008   3.541   3.211   3.679  1.8291  2.4837 -3.0110
    3MOL   C325 1009   3.421   3.097   3.540 -0.1121 -0.0981  0.0345
    3MOL   C326 1010   3.441   2.962   3.606 -0.7055 -0.2618 -0.8465
    3MOL   C327 1011   3.345   2.863   3.590  0.0532 -0.0343  0.0003
    3MOL   C328 1012   3.356   2.735   3.645 -0.3386 -0.0399  0.4560
    3MOL   C329 1013   3.474   2.708   3.715  0.0690  0.5398  0.0938
    3MOL   O330 1014   3.495   2.581   3.766  0.0359  0.0925 -0.1303
    3MOL   C331 1015   3.570   2.805   3.740 -0.8017  0.2307 -0.1164
    3MOL   C332 1016   3.561   2.932   3.679  0.4601  0.1409  0.2855
    3MOL   C333 1017   3.512   3.119   3.419  0.0733 -0.4866 -0.1523
    3MOL   H334 1018   3.320   3.104   3.501 -0.9520 -1.5294  1.8592
    3MOL   H335 1019   3.268   2.883   3.518 -0.2052 -1.2057 -0.0647
    3MOL   H336 1020   3.269   2.673   3.631 -1.2775  1.5812 -1.1568
    3MOL   H337 1021   3.582   2.567   3.803  0.4908 -0.4777 -1.4045
    3MOL   H338 1022   3.654   2.775   3.801  1.0338  1.0491 -2.1826
    3MOL   H339 1023   3.639   3.004   3.694 -1.1615  2.2447 -1.1904
    3MOL   H340 1024   3.522   3.031   3.355 -0.3175 -0.1139 -0.7320
    3MOL   H341 1025   3.607   3.152   3.462  0.8699  0.4077 -2.5158
    3MOL   H342 1026   3.473   3.191   3.346  0.0513 -0.0372  0.3004
    4MOL     C1 1027   5.348   1.882   7.669  0.6631  0.7395  0.2428
    4MOL     C2 1028   5.373   2.022   7.656 -0.0607  0.3704 -0.0225
    4MOL     C3 1029   5.366   2.095   7.536 -0.2617 -0.2467  0.1164
    4MOL     C4 1030   5.395   2.233   7.535  0.5338  0.2630 -0.1989
    4MOL     C5 1031   5.444   2.294   7.648 -0.3863 -0.1866  0.9805
    4MOL     O6 1032   5.477   2.431   7.634 -0.4064 -0.3555  0.1234
    4MOL     C7 1033   5.453   2.230   7.772 -0.2242 -0.7741 -0.3019
    4MOL     C8 1034   5.408   2.099   7.775  0.1008 -0.0561  0.2564
    4MOL     C9 1035   5.210   1.838   7.602 -0.3312 -0.1496 -0.2379
    4MOL    H10 1036   5.423   1.830   7.609 -1.6991  0.1861 -2.3246
    4MOL    H11 1037   5.334   2.050   7.443  0.3145 -0.5356  0.0537
    4MOL    H12 1038   5.399   2.284   7.440  0.2824 -0.2611 -0.4939
    4MOL    H13 1039   5.527   2.460   7.709  1.1002  0.0893 -1.0105
    4MOL    H14 1040   5.480   2.293   7.856  1.1565 -0.8356 -0.6838
    4MOL    H15 1041   5.393   2.063   7.876 -0.2981  0.9872  0.5762
    4MOL    H16 1042   5.208   1.730   7.615  1.7336 -0.1379  0.2673
    4MOL    H17 1043   5.215   1.846   7.493 -2.0867  2.3260 -0.2087
    4MOL    H18 1044   5.353   1.858   7.775 -0.1417 -0.4775  0.0158
    4MOL    C19 1045   5.077   1.888   7.669 -0.4209  0.4274  0.5546
    4MOL    C20 1046   5.094   1.876   7.820  0.0505 -0.6297 -0.4439
    4MOL    C21 1047   5.075   1.747   7.871 -0.0066  0.3333 -0.6498
    4MOL    C22 1048   5.076   1.720   8.005  0.2009 -0.7935 -0.6270
    4MOL    C23 1049   5.086   1.825   0.060  0.2469  0.3543  0.6324
    4MOL    O24 1050   5.085   1.800   0.196 -0.0807  0.0277 -0.1698
    4MOL    C25 1051   5.098   1.958   0.010  0.0090  0.1457  0.1262
    4MOL    C26 1052   5.109   1.986   7.906 -0.3718  0.4587  0.2747
    4MOL    C27 1053   4.945   1.823   7.622 -0.7026 -0.3041  0.6756
    4MOL    H28 1054   5.081   1.995   7.651  1.7537  0.4011  0.6539
    4MOL    H29 1055   5.063   1.666   7.800  1.9588 -0.7579  0.2274
    4MOL    H30 1056   5.064   1.620   0.006  3.9347 -0.0567  2.7575
    4MOL    H31 1057   5.093   1.707   0.211  0.2890 -0.1384 -1.3418
    4MOL    H32 1058   5.099   2.048   0.070  0.7222  1.0964 -1.2648
    4MOL    H33 1059   5.122   2.088   7.874 -0.3525  0.5412  0.5457
    4MOL    H34 1060   4.868   1.840   7.697  1.3521 -2.8683  3.4830
    4MOL    H35 1061   4.948   1.715   7.609  1.4331 -0.1860 -0.0281
    4MOL    C36 1062   4.892   1.881   7.492 -0.5399  0.1948 -0.1472
    4MOL    C37 1063   4.908   2.032   7.474 -0.5389 -0.4584 -1.2335
    4MOL    C38 1064   4.865   2.123   7.578  0.6212  0.1469 -0.1037
    4MOL    C39 1065   4.888   2.261   7.558 -0.4823 -0.4346  0.0107
    4MOL    C40 1066   4.960   2.312   7.448 -0.7792 -0.4144 -0.1318
    4MOL    O41 1067   5.006   2.441   7.441 -0.3327  0.2637  0.1314
    4MOL    C42 1068   5.003   2.218   7.352  0.2325 -0.0921 -0.3693
    4MOL    C43 1069   4.982   2.081   7.363  0.4551 -0.8679 -0.2172
    4MOL    C44 1070   4.750   1.837   7.465  0.3304 -0.2439 -0.5535
    4MOL    H45 1071   4.954   1.837   7.414  0.2326  1.1040 -0.0615
    4MOL    H46 1072   4.805   2.084   7.659  1.1857 -1.3137 -0.3639
    4MOL    H47 1073   4.851   2.332   7.631  0.4073  0.3370 -0.2788
    4MOL    H48 1074   5.088   2.457   7.398 -0.6272  1.7739  0.0995
    4MOL    H49 1075   5.060   2.250   7.267  1.0225 -0.1378  0.1417
    4MOL    H50 1076   5.028   2.027   7.281  2.6071  1.4318 -0.5913
    4MOL    H51 1077   4.748   1.734   7.500 -0.0968 -0.3790 -0.9645
    4MOL    H52 1078   4.679   1.896   7.521 -0.3841 -0.6388 -1.0285
    4MOL    C53 1079   4.702   1.827   7.320 -0.4959  0.1419 -0.1827
    4MOL    C54 1080   4.771   1.721   7.236  0.1529  0.0091  1.1278
    4MOL    C55 1081   4.752   1.583   7.264  0.2474  0.0437 -0.2222
    4MOL    C56 1082   4.821   1.488   7.179 -0.3337 -0.6991 -0.3078
    4MOL    C57 1083   4.911   1.528   7.081 -0.3295 -0.2135  0.0008
    4MOL    O58 1084   4.997   1.448   7.009 -0.1223  0.4231  0.2112
    4MOL    C59 1085   4.921   1.663   7.053  0.0431  0.6691 -0.2465
    4MOL    C60 1086   4.854   1.761   7.129  0.3358 -0.0573 -0.6157
    4MOL    C61 1087   4.544   1.822   7.319  0.0314 -0.0707  0.4666
    4MOL    H62 1088   4.724   1.920   7.268 -1.9553  0.1872 -0.7401
    4MOL    H63 1089   4.681   1.555   7.340 -0.8986 -0.6079 -1.5228
    4MOL    H64 1090   4.817   1.382   7.195  1.8043 -0.7222  0.2996
    4MOL    H65 1091   4.994   1.355   7.027 -0.5997  0.4764  0.4261
    4MOL    H66 1092   4.986   1.693   6.972 -2.3762  0.8886 -2.1520
    4MOL    H67 1093   4.863   1.867   7.107 -1.8496  0.3359  0.2352
    4MOL    H68 1094   4.511   1.739   7.381 -0.2769 -0.0040  0.3924
    4MOL    H69 1095   4.497   1.795   7.224  0.5900 -1.5913  0.6163
    4MOL    C70 1096   4.483   1.958   7.358 -0.3776  0.5676  0.4046
    4MOL    C71 1097   4.364   1.953   7.456 -0.9327  0.0126  0.9014
    4MOL    C72 1098   4.363   2.038   7.564  0.4850  0.0832  0.0132
    4MOL    C73 1099   4.245   2.034   7.646  0.7225 -0.4257 -0.5285
    4MOL    C74 1100   4.148   1.933   7.628  0.1273  0.0736 -0.6786
    4MOL    O75 1101   4.039   1.933   7.707  0.5371 -0.2256  0.2529
    4MOL    C76 1102   4.160   1.836   7.526  0.4615 -0.6758 -0.7422
    4MOL    C77 1103   4.274   1.847   7.439  0.1118 -0.6177  0.1367
    4MOL    C78 1104   4.435   2.053   7.234  0.3550  0.0199  0.1352
    4MOL    H79 1105   4.559   2.022   7.403  0.0236 -0.0213  0.5708
    4MOL    H80 1106   4.432   2.118   7.583 -0.6941  1.1009  0.0619
    4MOL    H81 1107   4.237   2.102   7.729 -2.8963 -1.9621  0.4659
    4MOL    H82 1108   4.014   1.844   7.728  0.9681 -0.1770  0.9961
    4MOL    H83 1109   4.092   1.754   7.511  1.6850 -1.4420 -2.3120
    4MOL    H84 1110   4.275   1.781   7.354  0.8693 -1.2774  0.6568
    4MOL    H85 1111   4.375   2.130   7.282  0.3526 -0.9276  1.6713
    4MOL    H86 1112   4.359   1.992   7.186  1.0526 -0.7602  0.0018
    4MOL    C87 1113   4.545   2.096   7.148  0.2534 -1.2261  0.2555
    4MOL    C88 1114   4.522   2.247   7.123 -0.6646 -0.6022 -0.0644
    4MOL    C89 1115   4.624   2.336   7.157 -0.9526  0.7182  0.2820
    4MOL    C90 1116   4.598   2.471   7.159 -0.0630 -0.3654 -0.3059
    4MOL    C91 1117   4.473   2.529   7.127 -0.4972  0.3685 -0.6684
    4MOL    O92 1118   4.450   2.665   7.151  0.3781 -0.2682  0.0301
    4MOL    C93 1119   4.371   2.436   7.097  0.0898  0.6706  0.3819
    4MOL    C94 1120   4.398   2.297   7.089  0.5014 -0.5676  0.0768
    4MOL    C95 1121   4.553   2.016   7.009  0.4001  0.7219 -0.1656
    4MOL    H96 1122   4.642   2.094   7.197  0.4489  2.6410  0.2000
    4MOL    H97 1123   4.718   2.293   7.186 -1.7223 -3.0841 -2.4719
    4MOL    H98 1124   4.679   2.518   7.213 -1.4587 -0.8850  2.3869
    4MOL    H99 1125   4.530   2.715   7.162  0.3444 -0.3987  0.9618
    4MOL   H100 1126   4.273   2.477   7.074  0.5859  1.5089 -0.2772
    4MOL   H101 1127   4.320   2.226   7.070  1.4587 -1.5526 -0.2088
    4MOL   H102 1128   4.617   1.931   7.031  0.1601  0.4366 -0.5792
    4MOL   H103 1129   4.459   1.975   6.972  1.1114 -3.1055  1.9782
    4MOL   C104 1130   4.616   2.084   6.885  0.2435 -0.2261 -0.2600
    4MOL   C105 1131   4.507   2.156   6.807  0.1375 -0.2831 -0.2247
    4MOL   C106 1132   4.512   2.291   6.787 -0.4109 -0.0514 -0.0585
    4MOL   C107 1133   4.409   2.356   6.720 -0.3146  0.0984 -0.6920
    4MOL   C108 1134   4.301   2.291   6.667  0.4375  0.4122  0.7678
    4MOL   O109 1135   4.195   2.354   6.611 -0.2995 -0.5347 -0.1817
    4MOL   C110 1136   4.287   2.153   6.692 -0.0913 -0.4984  0.0737
    4MOL   C111 1137   4.396   2.087   6.757 -0.0259 -0.9236 -0.1797
    4MOL   C112 1138   4.685   1.970   6.804  0.1648 -0.3166 -1.1632
    4MOL   H113 1139   4.681   2.157   6.934  2.1019 -2.4208  0.6413
    4MOL   H114 1140   4.593   2.340   6.839  0.1269  0.7098 -1.5928
    4MOL   H115 1141   4.410   2.463   6.708 -0.6478  0.2913  0.9349
    4MOL   H116 1142   4.169   2.428   6.663  3.2581 -1.4157  3.1323
    4MOL   H117 1143   4.202   2.096   6.660 -1.1030 -0.4664  2.5571
    4MOL   H118 1144   4.390   1.979   6.764  1.0117 -1.1731 -2.6060
    4MOL   H119 1145   4.608   1.896   6.784 -0.9717 -0.0009  1.7267
    4MOL   H120 1146   4.748   1.921   6.878 -1.0241  1.4896  1.1431
    4MOL   C121 1147   4.761   2.029   6.681 -0.5787 -0.2907  0.0187
    4MOL   C122 1148   4.864   2.137   6.719  0.8651 -0.1083 -0.2493
    4MOL   C123 1149   4.976   2.101   6.795 -0.0790 -0.0761 -0.5563
    4MOL   C124 1150   5.067   2.203   6.836  0.5555  0.3319  0.0826
    4MOL   C125 1151   5.045   2.334   6.790  0.5962  0.1514  0.5691
    4MOL   O126 1152   5.133   2.426   6.831 -0.2791  0.7263 -0.0656
    4MOL   C127 1153   4.931   2.370   6.708  0.5205  0.0310  0.0764
    4MOL   C128 1154   4.834   2.273   6.678  0.0334  0.7073 -0.0298
    4MOL   C129 1155   4.827   1.924   6.589  0.1697  0.1273 -0.1502
    4MOL   H130 1156   4.681   2.077   6.625  0.2295  1.1135  0.0339
    4MOL   H131 1157   4.984   2.002   6.836 -0.0238 -1.0514 -2.8483
    4MOL   H132 1158   5.151   2.177   6.898 -0.0915  0.9734  1.2515
    4MOL   H133 1159   5.178   2.403   6.911 -0.2239  0.7095 -0.1013
    4MOL   H134 1160   4.916   2.477   6.698  1.3124  0.2000  0.6633
    4MOL   H135 1161   4.740   2.281   6.625  0.9040  1.1977 -1.5222
    4MOL   H136 1162   4.757   1.842   6.569 -1.5184  1.8404 -1.4281
    4MOL   H137 1163   4.912   1.874   6.635  1.4300  0.9029 -1.5717
    4MOL   C138 1164   4.868   1.973   6.454 -0.1705  0.2874  0.1298
    4MOL   C139 1165   4.754   2.047   6.379 -0.2907 -0.6590  0.3563
    4MOL   C140 1166   4.635   1.973   6.340 -0.5408  0.0400 -0.4243
    4MOL   C141 1167   4.536   2.046   6.272  0.2601  0.4166 -0.2184
    4MOL   C142 1168   4.542   2.187   6.250 -0.2115 -0.6486 -0.1892
    4MOL   O143 1169   4.439   2.250   6.194 -0.2322  0.2788  1.2524
    4MOL   C144 1170   4.662   2.250   6.281  0.1620  0.5965 -0.2861
    4MOL   C145 1171   4.765   2.188   6.347 -0.0200 -0.0289 -0.0946
    4MOL   C146 1172   4.936   1.872   6.367 -0.4999  0.4927  0.5576
    4MOL   H147 1173   4.945   2.046   6.478  1.6551 -0.9094 -1.8044
    4MOL   H148 1174   4.599   1.877   6.374 -2.6705  1.7575  2.3622
    4MOL   H149 1175   4.444   2.002   6.238  1.2533 -1.1520 -0.9265
    4MOL   H150 1176   4.361   2.197   6.200  1.0900 -1.7259  1.1970
    4MOL   H151 1177   4.676   2.356   6.263  1.2914 -0.1680 -4.4315
    4MOL   H152 1178   4.858   2.240   6.366  0.7970 -1.7100  0.5683
    4MOL   H153 1179   4.922   1.908   6.265  0.6379 -0.2465  0.1236
    4MOL   H154 1180   4.886   1.776   6.378  0.6894 -0.4363 -1.6746
    4MOL   C155 1181   5.088   1.849   6.388  0.0097  0.1422 -0.6376
    4MOL   C156 1182   5.121   1.780   6.522  0.2152  0.4979 -1.1294
    4MOL   C157 1183   5.088   1.644   6.543  0.9882  0.3655  0.2386
    4MOL   C158 1184   5.117   1.580   6.667  0.4789  0.5414  0.7434
    4MOL   C159 1185   5.168   1.658   6.774  0.4228  0.2400  0.1294
    4MOL   O160 1186   5.197   1.598   6.895 -0.1024 -0.7231  0.4838
    4MOL   C161 1187   5.199   1.791   6.756 -0.2503 -0.3248  0.5052
    4MOL   C162 1188   5.174   1.855   6.634 -0.1283  0.4041 -0.2713
    4MOL   C163 1189   5.169   1.981   6.365  0.2547 -1.1459  0.5815
    4MOL   H164 1190   5.113   1.770   6.317 -1.2747 -2.1249  1.3353
    4MOL   H165 1191   5.045   1.593   6.458 -1.1392  0.1011  1.4480
    4MOL   H166 1192   5.088   1.478   6.690 -0.9442  0.9041  0.6022
    4MOL   H167 1193   5.130   1.543   6.934 -1.8389 -0.8619 -2.5383
    4MOL   H168 1194   5.235   1.839   6.846 -0.3231 -0.4820  0.6210
    4MOL   H169 1195   5.162   1.961   6.622  0.7667  0.8284  2.3352
    4MOL   H170 1196   5.272   1.958   6.391  1.2533  3.3059  1.0593
    4MOL   H171 1197   5.138   2.065   6.428 -0.1333 -1.3081  0.6043
    4MOL   C172 1198   5.159   2.032   6.223 -0.1847 -0.0423  0.0132
    4MOL   C173 1199   5.200   1.921   6.124  0.6467 -0.2132  0.5550
    4MOL   C174 1200   5.108   1.882   6.026  0.5384  0.0845  0.4223
    4MOL   C175 1201   5.137   1.774   5.932  0.4191  0.2754 -0.2830
    4MOL   C176 1202   5.266   1.720   5.939  0.2793  0.2660  0.5703
    4MOL   O177 1203   5.295   1.636   5.832  0.1732 -0.1377  0.2558
    4MOL   C178 1204   5.355   1.754   6.039  0.7788 -0.7165 -0.2689
    4MOL   C179 1205   5.323   1.855   6.133 -0.1904 -0.1245  0.1241
    4MOL   C180 1206   5.231   2.164   6.200  0.0048  0.3134 -0.1457
    4MOL   H181 1207   5.055   2.049   6.195 -0.6130 -0.3992  1.4037
    4MOL   H182 1208   5.008   1.923   6.022  0.8466  0.7668 -0.3868
    4MOL   H183 1209   5.067   1.736   5.860  1.1358 -3.4624  0.8679
    4MOL   H184 1210   5.230   1.638   5.763  0.0351  0.2656  0.3973
    4MOL   H185 1211   5.448   1.701   6.041  2.0208  1.3164 -1.4255
    4MOL   H186 1212   5.387   1.885   6.214 -1.2813  0.1212  0.9058
    4MOL   H187 1213   5.338   2.146   6.196  0.4249  1.6211  3.3334
    4MOL   H188 1214   5.212   2.220   6.292 -1.4276 -0.7519  0.2209
    4MOL   C189 1215   5.183   2.268   6.092  0.9573  0.8511  0.3683
    4MOL   C190 1216   5.213   2.409   6.136  0.7234  0.1583 -0.6544
    4MOL   C191 1217   5.346   2.453   6.173 -0.2595 -0.8431 -0.3642
    4MOL   C192 1218   5.365   2.595   6.194 -0.1516 -0.6102  0.7239
    4MOL   C193 1219   5.253   2.679   6.205 -0.5496 -0.2370  0.5268
    4MOL   O194 1220   5.280   2.813   6.223 -0.5297  0.2770  0.8449
    4MOL   C195 1221   5.124   2.637   6.180 -0.1235  0.1810  1.3687
    4MOL   C196 1222   5.108   2.507   6.143  0.2734 -0.9732  0.2308
    4MOL   C197 1223   5.250   2.230   5.950  0.1453  0.6944 -0.3325
    4MOL   H198 1224   5.080   2.233   6.088  1.5308 -1.0742  1.7654
    4MOL   H199 1225   5.425   2.379   6.170 -0.2644 -0.9974  2.5591
    4MOL   H200 1226   5.463   2.635   6.215 -1.3339  2.2298  1.0541
    4MOL   H201 1227   5.206   2.872   6.227 -0.3887  0.4718  0.5742
    4MOL   H202 1228   5.037   2.700   6.190 -0.5584 -0.5004  1.9189
    4MOL   H203 1229   5.008   2.480   6.112  0.8793 -0.5280 -2.2645
    4MOL   H204 1230   5.244   2.121   5.951  1.0881  0.6357  2.1245
    4MOL   H205 1231   5.351   2.268   5.943  1.0672 -2.0206 -2.9271
    4MOL   C206 1232   5.167   2.281   5.827  0.1364  0.5721  0.1474
    4MOL   C207 1233   5.017   2.245   5.844 -0.3847  0.4833  0.5028
    4MOL   C208 1234   4.915   2.340   5.874  0.9831 -0.3325  0.3541
    4MOL   C209 1235   4.783   2.304   5.905  0.1389  0.3139  0.2962
    4MOL   C210 1236   4.754   2.167   5.910 -0.1133 -0.2879 -0.2456
    4MOL   O211 1237   4.625   2.134   5.952  0.0201  0.4742 -0.2126
    4MOL   C212 1238   4.848   2.072   5.867 -0.6425 -0.4425  0.0257
    4MOL   C213 1239   4.980   2.106   5.845 -0.4464 -0.4715  0.1717
    4MOL   C214 1240   5.220   2.246   5.687 -0.3690 -0.9952 -0.8476
    4MOL   H215 1241   5.165   2.390   5.831  1.2811  0.6072 -0.1403
    4MOL   H216 1242   4.932   2.446   5.877 -3.5764  0.5725 -1.6746
    4MOL   H217 1243   4.707   2.377   5.926 -0.0232  0.2088  0.0880
    4MOL   H218 1244   4.629   2.153   6.045 -1.9246 -2.0759  0.4662
    4MOL   H219 1245   4.822   1.967   5.862 -0.2292 -0.5068 -0.9807
    4MOL   H220 1246   5.051   2.028   5.822 -1.2263 -0.9431 -0.6234
    4MOL   H221 1247   5.151   2.269   5.607 -0.8188  1.2224  0.1581
    4MOL   H222 1248   5.243   2.139   5.677 -2.9308 -1.8429  1.6077
    4MOL   C223 1249   5.359   2.320   5.644  0.6322 -0.5647 -0.8948
    4MOL   C224 1250   5.365   2.467   5.686 -0.3156  0.4613 -0.8585
    4MOL   C225 1251   5.469   2.509   5.773 -1.0518 -0.4714 -0.3940
    4MOL   C226 1252   5.483   2.647   5.791  0.3889 -1.0712  0.2050
    4MOL   C227 1253   5.379   2.738   5.744  0.0067  0.3804 -0.1292
    4MOL   O228 1254   5.383   2.868   5.792 -0.0651  0.3563 -0.2472
    4MOL   C229 1255   5.275   2.695   5.656  0.4498  0.0555 -0.6534
    4MOL   C230 1256   5.267   2.556   5.625  0.1582 -0.8787 -0.5077
    4MOL   C231 1257   5.392   2.287   5.502  0.2225 -0.5950 -0.2993
    4MOL   H232 1258   5.436   2.264   5.697  1.2341  1.0784  0.0279
    4MOL   H233 1259   5.537   2.435   5.812  0.6049  0.7502 -0.9079
    4MOL   H234 1260   5.574   2.682   5.840  1.4829 -0.6315 -2.0748
    4MOL   H235 1261   5.443   2.870   5.865  0.1645  1.3581 -0.4472
    4MOL   H236 1262   5.186   2.750   5.629  0.3292  0.6989  1.0016
    4MOL   H237 1263   5.187   2.513   5.566 -0.7001 -2.7714  1.9626
    4MOL   H238 1264   5.388   2.179   5.484  0.2172 -0.5080 -0.8238
    4MOL   H239 1265   5.324   2.335   5.431  1.2633 -0.7099 -1.4004
    4MOL   C240 1266   5.538   2.346   5.469 -0.3400 -0.0593 -0.4122
    4MOL   C241 1267   5.646   2.236   5.475  0.3910 -0.2124  0.6171
    4MOL   C242 1268   5.758   2.245   5.561  0.2962 -0.9239  0.3183
    4MOL   C243 1269   5.852   2.144   5.562 -0.3194  1.0902 -0.4137
    4MOL   C244 1270   5.837   2.027   5.483 -0.4077 -0.4469  1.0167
    4MOL   O245 1271   5.912   1.920   5.491 -0.2807  0.1650  0.0982
    4MOL   C246 1272   5.730   2.015   5.391  0.2575 -0.0663  0.0711
    4MOL   C247 1273   5.633   2.120   5.391  0.1670 -0.5013 -0.2029
    4MOL   C248 1274   5.533   2.438   5.346 -0.3480 -0.0013  0.1697
    4MOL   H249 1275   5.571   2.414   5.547  2.4427 -0.4659 -1.1821
    4MOL   H250 1276   5.771   2.331   5.625  4.2191 -0.1992 -1.3191
    4MOL   H251 1277   5.932   2.148   5.635 -0.0402 -1.8126 -0.5003
    4MOL   H252 1278   5.868   1.842   5.459 -1.7033  1.4436 -1.1697
    4MOL   H253 1279   5.717   1.924   5.334 -1.8922  0.4072 -0.2335
    4MOL   H254 1280   5.546   2.101   5.331  1.1003 -1.0202 -1.4212
    4MOL   H255 1281   5.523   2.377   5.257  3.5678 -1.8340  0.8692
    4MOL   H256 1282   5.448   2.506   5.339  0.4546  0.9600 -0.5822
    4MOL   C257 1283   5.661   2.527   5.327 -0.7084  0.1353  0.5218
    4MOL   C258 1284   5.757   2.468   5.223 -0.2760 -0.7154  0.1116
    4MOL   C259 1285   5.737   2.476   5.084  0.4374 -0.8354 -0.9910
    4MOL   C260 1286   5.833   2.428   4.993  0.5256 -0.3625 -0.7676
    4MOL   C261 1287   5.957   2.386   5.043  0.5989 -0.3620 -0.2935
    4MOL   O262 1288   6.052   2.340   4.952 -0.4258  0.6140  0.2225
    4MOL   C263 1289   5.985   2.385   5.180 -0.3489  0.0155 -0.3285
    4MOL   C264 1290   5.885   2.427   5.271  0.7724  0.2921  0.1838
    4MOL   C265 1291   5.608   2.670   5.299  0.4179 -0.0400 -0.0417
    4MOL   H266 1292   5.709   2.532   5.424  0.4065 -1.4692  0.0780
    4MOL   H267 1293   5.636   2.506   5.061 -0.9455 -2.9538  2.0158
    4MOL   H268 1294   5.808   2.418   4.888 -1.4220  0.1224 -0.3677
    4MOL   H269 1295   6.037   2.359   4.861 -0.9177 -1.3991 -0.1340
    4MOL   H270 1296   6.079   2.343   5.212 -0.4663  0.9861  1.3745
    4MOL   H271 1297   5.894   2.420   5.379 -1.4228  1.3247  0.4735
    4MOL   H272 1298   5.527   2.683   5.371 -0.9303  0.0438 -1.5520
    4MOL   H273 1299   5.570   2.672   5.197  1.7916 -0.6275 -0.5668
    4MOL   C274 1300   5.711   2.786   5.309 -0.0881  0.3076  0.2505
    4MOL   C275 1301   5.775   2.813   5.444  0.0993 -0.2279  0.1645
    4MOL   C276 1302   5.694   2.848   5.559 -0.6170 -0.3994  0.2263
    4MOL   C277 1303   5.752   2.866   5.688  0.3381  0.0900 -0.5501
    4MOL   C278 1304   5.888   2.877   5.698 -0.3141  0.4000  0.5580
    4MOL   O279 1305   5.936   2.920   5.818  0.3741 -0.0131 -0.1542
    4MOL   C280 1306   5.973   2.845   5.588  0.3616 -0.2331  0.2988
    4MOL   C281 1307   5.915   2.807   5.466  0.1551 -0.7680  0.1712
    4MOL   C282 1308   5.645   2.912   5.246  0.1119 -0.2452  0.8441
    4MOL   H283 1309   5.794   2.754   5.246 -2.3562 -1.7378 -1.7507
    4MOL   H284 1310   5.586   2.843   5.557 -0.7034  1.2517 -0.0189
    4MOL   H285 1311   5.676   2.881   5.764  0.4984 -2.4100  0.1277
    4MOL   H286 1312   6.015   2.875   5.843  0.1152 -1.6300 -2.1714
    4MOL   H287 1313   6.081   2.849   5.597  0.2602  0.7594  1.1574
    4MOL   H288 1314   5.973   2.801   5.376  1.6609  1.2532  0.9632
    4MOL   H289 1315   5.614   2.888   5.145  0.1833 -0.2172  0.8157
    4MOL   H290 1316   5.552   2.926   5.301  1.0154  2.1674  1.8518
    4MOL   C291 1317   5.718   3.041   5.245  0.0813  0.1638  0.8256
    4MOL   C292 1318   5.635   3.152   5.186  0.3062  0.3476 -0.1334
    4MOL   C293 1319   5.607   3.265   5.271  0.4849 -1.2077 -0.3263
    4MOL   C294 1320   5.534   3.379   5.219 -0.0315 -0.1836  0.5262
    4MOL   C295 1321   5.501   3.380   5.083  0.0802 -0.4480  0.4165
    4MOL   O296 1322   5.448   3.494   5.022 -0.4433 -0.6995  0.4888
    4MOL   C297 1323   5.521   3.261   5.003 -0.9543 -0.2104  0.1939
    4MOL   C298 1324   5.582   3.145   5.052  0.2248  0.4540 -0.2993
    4MOL   C299 1325   5.853   3.025   5.171 -0.4158 -0.0169  0.1914
    4MOL   H300 1326   5.748   3.069   5.346 -1.9743 -0.9657  1.7748
    4MOL   H301 1327   5.633   3.253   5.375 -0.9254 -1.2850  0.0371
    4MOL   H302 1328   5.519   3.470   5.275  0.7827 -0.1264  0.6525
    4MOL   H303 1329   5.459   3.573   5.073  0.5036 -0.3638 -0.2283
    4MOL   H304 1330   5.474   3.252   4.906 -0.2922 -0.4911 -0.0983
    4MOL   H305 1331   5.596   3.063   4.984 -1.5633  0.7396 -1.0521
    4MOL   H306 1332   5.839   2.954   5.089  1.5724 -0.5400  0.2772
    4MOL   H307 1333   5.919   2.970   5.237 -1.7832 -1.1866  0.6012
    4MOL   C308 1334   5.932   3.156   5.128 -0.2581 -0.0254  0.6227
    4MOL   C309 1335   6.054   3.124   5.038 -0.0444 -0.0307 -0.2791
    4MOL   C310 1336   6.154   3.054   5.102 -0.1777  0.0855 -0.1567
    4MOL   C311 1337   6.268   3.012   5.024  0.0144  0.5441 -0.7365
    4MOL   C312 1338   6.273   3.036   4.886 -0.1110  0.0513 -0.2355
    4MOL   O313 1339   6.376   2.991   4.816  0.3261 -0.2428 -0.3812
    4MOL   C314 1340   6.158   3.092   4.819  0.6154  0.1836 -0.1681
    4MOL   C315 1341   6.051   3.133   4.899  0.5433 -0.0287  0.2164
    4MOL   C316 1342   5.968   3.264   5.232  0.1810  1.2945 -0.1707
    4MOL   H317 1343   5.865   3.199   5.054  0.2025  0.0186  0.2361
    4MOL   H318 1344   6.147   3.022   5.205  2.3002 -1.8339 -0.5277
    4MOL   H319 1345   6.348   2.970   5.082 -0.3545  3.0078  1.6485
    4MOL   H320 1346   6.454   2.979   4.868 -1.2508 -0.0548  2.0847
    4MOL   H321 1347   6.153   3.099   4.712  0.1415  0.1422 -0.1519
    4MOL   H322 1348   5.960   3.172   4.855 -0.2670 -1.2795  0.7406
    4MOL   H323 1349   6.047   3.226   5.298  1.8733  3.6554 -0.7899
    4MOL   H324 1350   5.880   3.292   5.290  1.1510  1.0990  1.4415
    4MOL   C325 1351   6.016   3.392   5.163  0.6486 -0.4924  0.1572
    4MOL   C326 1352   6.082   3.472   5.272 -1.1571  0.2681 -0.3791
    4MOL   C327 1353   6.029   3.488   5.403  0.1244 -0.1573  0.4479
    4MOL   C328 1354   6.100   3.564   5.501  0.3634 -0.4319  0.1180
    4MOL   C329 1355   6.216   3.638   5.463  0.0101 -0.2466  0.1818
    4MOL   O330 1356   6.272   3.716   5.552 -0.1209  0.1977  0.0557
    4MOL   C331 1357   6.263   3.631   5.330  0.2342  0.3177 -0.8288
    4MOL   C332 1358   6.205   3.541   5.240 -1.0199 -0.2717  0.2209
    4MOL   C333 1359   5.900   3.477   5.106  0.1484  0.0064 -0.1078
    4MOL   H334 1360   6.095   3.372   5.090 -1.9596  0.0117 -2.9005
    4MOL   H335 1361   5.936   3.443   5.437 -0.8284  0.9044 -0.7123
    4MOL   H336 1362   6.051   3.569   5.596  0.3982 -1.4055  0.1880
    4MOL   H337 1363   6.299   3.673   5.632 -0.6281 -1.5001 -0.6796
    4MOL   H338 1364   6.348   3.691   5.301 -0.1549  1.9473  1.2910
    4MOL   H339 1365   6.239   3.525   5.139 -1.8299  1.4017 -0.3240
    4MOL   H340 1366   5.848   3.432   5.021  0.7116  1.0362 -1.0172
    4MOL   H341 1367   5.930   3.578   5.076 -1.9383  0.0909 -2.0425
    4MOL   H342 1368   5.813   3.492   5.170 -0.5941  1.7253 -1.4496
    5MOL     C1 1369   5.655   2.096   7.110  0.1805 -0.6992 -0.1683
    5MOL     C2 1370   5.530   2.184   7.107 -0.5690  0.3526 -1.0288
    5MOL     C3 1371   5.399   2.123   7.107 -0.1981 -0.7724 -0.0972
    5MOL     C4 1372   5.287   2.205   7.126 -1.1436  0.0526  0.0036
    5MOL     C5 1373   5.300   2.344   7.133  0.1537  0.3350 -0.4468
    5MOL     O6 1374   5.183   2.417   7.138  0.4552 -0.0640  0.0606
    5MOL     C7 1375   5.427   2.410   7.130 -0.2685 -0.0884 -0.9437
    5MOL     C8 1376   5.537   2.327   7.119  0.0954 -0.0479 -0.6276
    5MOL     C9 1377   5.725   2.069   7.247 -0.0766  0.2110  0.1183
    5MOL    H10 1378   5.630   2.003   7.058  0.8561 -1.1462  0.2916
    5MOL    H11 1379   5.398   2.015   7.099  0.3266 -1.0725  3.4557
    5MOL    H12 1380   5.194   2.151   7.138 -1.8169  1.6327  2.0941
    5MOL    H13 1381   5.182   2.499   7.184 -0.5045 -0.1484  0.1934
    5MOL    H14 1382   5.444   2.516   7.145  1.3443 -0.5528  0.7884
    5MOL    H15 1383   5.633   2.377   7.121 -0.0486  0.2582 -1.1967
    5MOL    H16 1384   5.663   2.094   7.333  0.0104  0.7817  0.0113
    5MOL    H17 1385   5.813   2.132   7.258 -1.8217  2.7559 -0.0207
    5MOL    H18 1386   5.723   2.150   7.043 -0.0825 -0.4062 -0.1971
    5MOL    C19 1387   5.763   1.924   7.276  0.0221 -0.2701  0.3700
    5MOL    C20 1388   5.649   1.824   7.255 -0.1782 -0.1065  0.8954
    5MOL    C21 1389   5.668   1.723   7.155 -0.7074 -0.2482 -0.7210
    5MOL    C22 1390   5.562   1.640   7.109 -0.2785  1.1131  0.4186
    5MOL    C23 1391   5.440   1.655   7.174  0.5436 -0.6905  0.4625
    5MOL    O24 1392   5.328   1.581   7.142  0.2778 -0.5058  0.5119
    5MOL    C25 1393   5.419   1.758   7.266  0.5779  0.2236 -0.2228
    5MOL    C26 1394   5.524   1.846   7.307 -0.5188  0.2264 -0.6847
    5MOL    C27 1395   5.808   1.909   7.422 -0.3063 -0.8211 -0.1117
    5MOL    H28 1396   5.837   1.899   7.200 -0.3088  0.0788 -0.0682
    5MOL    H29 1397   5.767   1.719   7.111  0.4037 -0.3343  1.6906
    5MOL    H30 1398   5.568   1.568   7.029 -2.4457 -0.5250  1.6925
    5MOL    H31 1399   5.316   1.580   7.048 -2.9258 -2.5335  0.8505
    5MOL    H32 1400   5.323   1.778   7.313  1.5592  3.0771  0.6154
    5MOL    H33 1401   5.508   1.932   7.371 -0.4190 -0.2331 -0.0372
    5MOL    H34 1402   5.721   1.883   7.483 -1.3521  2.5890 -0.0863
    5MOL    H35 1403   5.837   2.009   7.454 -1.0619 -0.5205 -0.3711
    5MOL    C36 1404   5.929   1.824   7.463 -0.1450  0.9474  0.3404
    5MOL    C37 1405   6.061   1.870   7.400  0.3934 -0.5334  0.1494
    5MOL    C38 1406   6.113   1.995   7.448 -0.1104 -1.2150 -0.3835
    5MOL    C39 1407   6.228   2.050   7.388  0.0164  1.5417 -0.9763
    5MOL    C40 1408   6.289   1.984   7.281  0.1317 -0.3664 -1.4979
    5MOL    O41 1409   6.391   2.040   7.214 -0.2051 -0.7625  0.0627
    5MOL    C42 1410   6.246   1.855   7.234 -0.9271 -0.1631 -0.0839
    5MOL    C43 1411   6.131   1.802   7.298  0.6137 -0.2966  0.5681
    5MOL    C44 1412   5.912   1.668   7.455  0.1320  0.6059  0.8016
    5MOL    H45 1413   5.941   1.832   7.571  1.5312 -1.5264  0.3724
    5MOL    H46 1414   6.065   2.042   7.533  2.8797  1.3264 -0.0467
    5MOL    H47 1415   6.268   2.145   7.419  2.9011  0.7805 -2.1629
    5MOL    H48 1416   6.461   1.983   7.186  1.1746 -0.3355  2.4658
    5MOL    H49 1417   6.297   1.806   7.153  0.6112  0.3464  0.5600
    5MOL    H50 1418   6.102   1.707   7.256  0.7436  0.4422 -1.2524
    5MOL    H51 1419   5.893   1.619   7.360  1.0327  0.4071  0.7256
    5MOL    H52 1420   6.009   1.626   7.480  0.9324  2.8433  1.6113
    5MOL    C53 1421   5.802   1.610   7.548 -0.5627  0.5307 -0.3227
    5MOL    C54 1422   5.793   1.462   7.521 -0.5667 -0.2309  0.6345
    5MOL    C55 1423   5.908   1.373   7.548  0.4768 -0.3850  0.7636
    5MOL    C56 1424   5.908   1.235   7.514  1.0231 -0.5524  0.1826
    5MOL    C57 1425   5.807   1.181   7.440  0.8711 -0.7679 -0.1045
    5MOL    O58 1426   5.816   1.051   7.396  0.9494  0.1659 -0.1627
    5MOL    C59 1427   5.688   1.263   7.428 -0.0727 -0.3538  0.2156
    5MOL    C60 1428   5.680   1.397   7.471 -0.5891 -0.2095  0.9248
    5MOL    C61 1429   5.834   1.647   7.696  0.6161 -0.4811 -0.9421
    5MOL    H62 1430   5.705   1.650   7.520 -0.7638  0.3985  0.1728
    5MOL    H63 1431   5.990   1.420   7.600  0.8499  1.9718 -1.8731
    5MOL    H64 1432   5.991   1.171   7.539  0.1103 -0.3811  4.0337
    5MOL    H65 1433   5.905   1.017   7.396  0.9949  0.2674 -0.7871
    5MOL    H66 1434   5.601   1.223   7.379 -0.0805 -0.6246  0.4480
    5MOL    H67 1435   5.591   1.452   7.444 -0.4687 -1.2702 -1.7719
    5MOL    H68 1436   5.811   1.752   7.716  1.3626 -0.2932 -1.0667
    5MOL    H69 1437   5.940   1.632   7.716  0.8808  1.0206 -1.1090
    5MOL    C70 1438   5.739   1.566   7.798  1.0814  0.6663 -0.5176
    5MOL    C71 1439   5.658   1.651   7.896 -0.1303  0.1266 -0.1893
    5MOL    C72 1440   5.516   1.635   7.898  0.6251  0.7137  0.4366
    5MOL    C73 1441   5.437   1.710   7.985  0.0209  0.0845 -0.7143
    5MOL    C74 1442   5.489   1.825   0.005  0.0910 -0.8691  0.6285
    5MOL    O75 1443   5.411   1.905   0.080  0.3059 -0.1693  0.2215
    5MOL    C76 1444   5.628   1.847   0.004 -0.4209 -0.1961  0.5179
    5MOL    C77 1445   5.711   1.761   7.970  0.2685 -0.0731  0.2428
    5MOL    C78 1446   5.813   1.451   7.868  0.3335  0.4829 -0.0575
    5MOL    H79 1447   5.669   1.510   7.736 -1.6964  0.7744  2.3926
    5MOL    H80 1448   5.479   1.556   7.834 -1.6212  1.1540  1.1248
    5MOL    H81 1449   5.330   1.690   7.989 -0.0336  0.5836  0.8215
    5MOL    H82 1450   5.321   1.881   0.064  0.0381  1.0627 -0.2026
    5MOL    H83 1451   5.680   1.933   0.044  2.0332 -1.4690  0.1460
    5MOL    H84 1452   5.817   1.778   7.974  0.4665 -0.7463 -1.6421
    5MOL    H85 1453   5.825   1.475   7.974  1.0329 -0.5074  0.1046
    5MOL    H86 1454   5.915   1.434   7.834  0.8647  0.0989  1.6454
    5MOL    C87 1455   5.736   1.313   7.855  0.0325  0.2044 -0.3909
    5MOL    C88 1456   5.602   1.318   7.931 -0.6990  0.5377  0.2297
    5MOL    C89 1457   5.606   1.346   0.030 -0.1020 -0.4916 -0.1168
    5MOL    C90 1458   5.485   1.357   0.106 -0.6368  0.3783  0.2515
    5MOL    C91 1459   5.363   1.330   0.037  0.0958 -0.8809  0.0374
    5MOL    O92 1460   5.248   1.352   0.109  0.0962  0.4817 -0.1072
    5MOL    C93 1461   5.359   1.286   7.943  0.1952  0.0383  0.0669
    5MOL    C94 1462   5.480   1.279   7.871  0.8848 -0.9562 -0.2555
    5MOL    C95 1463   5.819   1.199   7.903  0.1833 -0.2636 -0.3909
    5MOL    H96 1464   5.712   1.291   7.751 -0.8683 -1.8909  0.2238
    5MOL    H97 1465   5.696   1.371   0.083 -2.3173  3.9346  1.7816
    5MOL    H98 1466   5.495   1.383   0.210  1.1080  2.2474 -0.3411
    5MOL    H99 1467   5.263   1.398   0.190 -1.1402  0.4495  0.1533
    5MOL   H100 1468   5.265   1.261   7.895  0.0677  1.1766 -0.2827
    5MOL   H101 1469   5.470   1.251   7.767  1.9685  1.9304 -1.1686
    5MOL   H102 1470   5.909   1.178   7.845  2.4330  0.4010  2.7342
    5MOL   H103 1471   5.851   1.223   8.005 -1.0090  2.3388 -0.6010
    5MOL   C104 1472   5.747   1.063   7.927  0.4413 -0.2608 -0.7227
    5MOL   C105 1473   5.839   0.970   8.021  0.3615 -0.5979  0.2905
    5MOL   C106 1474   5.954   0.919   7.961  1.0958 -0.1517  0.7512
    5MOL   C107 1475   6.047   0.849   8.033 -0.7529  0.5989 -0.0192
    5MOL   C108 1476   6.021   0.823   0.130  0.2091  0.1195 -1.3188
    5MOL   O109 1477   6.112   0.749   0.208 -0.3288 -0.3414  0.8215
    5MOL   C110 1478   5.910   0.871   0.196 -0.4318 -0.9739  0.0136
    5MOL   C111 1479   5.818   0.948   0.120  0.3315 -0.1584  0.5178
    5MOL   C112 1480   5.710   0.996   7.792  0.4162  0.7817  0.2416
    5MOL   H113 1481   5.660   1.081   7.990  0.6410 -0.3668 -0.4194
    5MOL   H114 1482   5.985   0.954   7.864  1.0583 -0.1832  0.7276
    5MOL   H115 1483   6.130   0.802   7.982 -1.7032 -0.8100 -0.3013
    5MOL   H116 1484   6.096   0.770   0.299 -2.0254 -0.1890  0.4934
    5MOL   H117 1485   5.894   0.855   0.302 -0.0193  0.4160  0.2897
    5MOL   H118 1486   5.727   0.986   0.163 -0.4440 -0.4997 -0.8203
    5MOL   H119 1487   5.800   1.008   7.731 -0.3249  0.4079 -0.9558
    5MOL   H120 1488   5.637   1.056   7.737 -1.6163 -3.0144 -1.4186
    5MOL   C121 1489   5.669   0.846   7.785 -0.0542 -0.0637 -0.0133
    5MOL   C122 1490   5.546   0.829   7.871  0.1672  0.0972 -0.4677
    5MOL   C123 1491   5.434   0.917   7.857 -0.4223  0.3644  0.4101
    5MOL   C124 1492   5.326   0.910   7.947  0.5686  0.3983  0.3122
    5MOL   C125 1493   5.331   0.830   0.023  0.7055  0.3307  0.6682
    5MOL   O126 1494   5.234   0.840   0.118  0.1902 -0.7014  0.1496
    5MOL   C127 1495   5.437   0.740   0.039  0.2510 -0.7696  0.4583
    5MOL   C128 1496   5.541   0.736   7.976  0.4544 -0.3051  0.0026
    5MOL   C129 1497   5.654   0.803   7.636  0.2206 -0.4889 -0.6465
    5MOL   H130 1498   5.756   0.808   7.837 -0.5584  0.7159  1.4125
    5MOL   H131 1499   5.424   0.989   7.778  1.8038 -0.3907 -0.5971
    5MOL   H132 1500   5.239   0.972   7.932  0.3280  0.6941  2.7609
    5MOL   H133 1501   5.231   0.929   0.149  1.7588  0.1789 -2.0875
    5MOL   H134 1502   5.444   0.673   0.123  2.0924 -0.8870  0.2148
    5MOL   H135 1503   5.629   0.674   7.975  1.8273  1.6021 -2.0068
    5MOL   H136 1504   5.719   0.870   7.581 -1.1368  0.6539 -0.8920
    5MOL   H137 1505   5.552   0.819   7.602  0.4387 -0.3514 -1.2270
    5MOL   C138 1506   5.717   0.660   7.601  0.2782 -0.0719  0.3041
    5MOL   C139 1507   5.840   0.629   7.677 -0.8595 -0.1117 -0.4815
    5MOL   C140 1508   5.959   0.699   7.647 -0.8521 -0.2442 -0.3777
    5MOL   C141 1509   6.076   0.668   7.718 -0.4855 -0.3140  0.2699
    5MOL   C142 1510   6.079   0.551   7.793  0.2958  0.3189  0.6895
    5MOL   O143 1511   6.201   0.519   7.834  0.2530  0.1103 -0.5143
    5MOL   C144 1512   5.957   0.482   7.830 -0.0045 -0.2275  0.7542
    5MOL   C145 1513   5.841   0.525   7.775 -0.2248  0.0648 -0.6027
    5MOL   C146 1514   5.736   0.629   7.449  0.0152  0.6341 -0.2672
    5MOL   H147 1515   5.648   0.583   7.636  1.8605 -1.8350 -0.3731
    5MOL   H148 1516   5.951   0.781   7.578 -1.3993  1.6567  1.8699
    5MOL   H149 1517   6.165   0.721   7.687 -1.9406  1.6851 -0.6011
    5MOL   H150 1518   6.267   0.554   7.775 -0.1751  1.5595 -0.1493
    5MOL   H151 1519   5.960   0.389   7.885 -1.1831 -0.7036  0.0187
    5MOL   H152 1520   5.752   0.465   7.790  0.0146  0.1620  1.3809
    5MOL   H153 1521   5.808   0.694   7.399 -1.4832  2.6887  0.1700
    5MOL   H154 1522   5.637   0.637   7.403 -1.6977 -2.4211  2.6519
    5MOL   C155 1523   5.769   0.483   7.411  0.6309  0.3805  0.2515
    5MOL   C156 1524   5.803   0.465   7.260 -0.0638  0.1198 -0.4727
    5MOL   C157 1525   5.934   0.432   7.220 -0.6859  0.0518 -0.0169
    5MOL   C158 1526   5.960   0.394   7.083 -0.1802 -0.8055  0.0506
    5MOL   C159 1527   5.858   0.419   6.985 -0.7448 -0.4195  0.8592
    5MOL   O160 1528   5.879   0.390   6.856 -1.0667  0.6536 -0.4406
    5MOL   C161 1529   5.725   0.453   7.026 -0.1694 -0.1722  0.5178
    5MOL   C162 1530   5.697   0.473   7.164 -0.2441 -0.4079 -0.0436
    5MOL   C163 1531   5.674   0.376   7.469 -0.0610  0.0233  0.8930
    5MOL   H164 1532   5.866   0.470   7.458  0.9687  1.1422 -0.2086
    5MOL   H165 1533   6.021   0.446   7.282  0.1276 -0.3947 -1.0452
    5MOL   H166 1534   6.058   0.368   7.047  0.6952  0.4955  1.4345
    5MOL   H167 1535   5.909   0.301   6.844  1.6996  1.4878 -0.0873
    5MOL   H168 1536   5.642   0.462   6.957 -0.7367  0.5059  1.2687
    5MOL   H169 1537   5.596   0.494   7.196 -1.0001 -0.9535 -1.9878
    5MOL   H170 1538   5.578   0.401   7.425  0.4542  2.3721  0.9968
    5MOL   H171 1539   5.669   0.384   7.577 -1.7159  0.9621  0.7650
    5MOL   C172 1540   5.730   0.234   7.439  0.8909  0.3137  0.5598
    5MOL   C173 1541   5.620   0.127   7.426 -0.0904  0.8183  0.0090
    5MOL   C174 1542   5.618   0.040   7.310 -0.0276 -0.6655  0.1381
    5MOL   C175 1543   5.509   7.984   7.297 -0.1180  0.4800  0.1450
    5MOL   C176 1544   5.409   7.963   7.393 -0.1133 -0.2445  0.3794
    5MOL   O177 1545   5.315   7.873   7.373 -0.1249  0.2956 -0.1784
    5MOL   C178 1546   5.419   0.007   7.508  0.6968  0.5317  0.0193
    5MOL   C179 1547   5.520   0.110   7.522 -0.2071 -0.2222 -0.0327
    5MOL   C180 1548   5.824   0.204   7.561 -0.0217  0.5982  0.0265
    5MOL   H181 1549   5.789   0.230   7.347 -0.2774 -0.9414 -0.1492
    5MOL   H182 1550   5.694   0.036   7.234  0.9236  0.0314  1.0380
    5MOL   H183 1551   5.515   7.927   7.206 -1.2038 -0.7582  0.8232
    5MOL   H184 1552   5.271   7.842   7.450 -1.1903 -0.8257 -1.2144
    5MOL   H185 1553   5.338   8.025   7.576  0.4350 -0.1516 -0.4911
    5MOL   H186 1554   5.522   0.178   7.606  1.3604 -0.9550  0.5538
    5MOL   H187 1555   5.753   0.186   7.642 -1.0442  1.4669 -0.6650
    5MOL   H188 1556   5.888   0.280   7.605 -0.0429  0.1875  0.7765
    5MOL   C189 1557   5.925   0.081   7.558 -0.2540 -0.2050 -0.1601
    5MOL   C190 1558   6.030   0.105   7.442  0.6260 -0.3348 -0.2866
    5MOL   C191 1559   6.040   0.005   7.345 -0.3927 -0.5380  0.0254
    5MOL   C192 1560   6.148   0.015   7.252  0.3751 -0.4387  0.2510
    5MOL   C193 1561   6.242   0.120   7.252  0.3239 -0.2916 -0.5435
    5MOL   O194 1562   6.347   0.111   7.171  0.0782  0.5382 -1.1403
    5MOL   C195 1563   6.233   0.214   7.355 -0.0441 -0.2364 -0.3970
    5MOL   C196 1564   6.126   0.206   7.447  0.8855  0.6733  0.2955
    5MOL   C197 1565   5.989   0.054   7.693  0.1442 -0.1429 -0.3271
    5MOL   H198 1566   5.873   8.026   7.536 -1.4241  0.6666 -1.1395
    5MOL   H199 1567   5.969   7.962   7.329  1.5136 -1.6120 -3.7952
    5MOL   H200 1568   6.166   7.971   7.183  0.6811  0.4938 -0.7807
    5MOL   H201 1569   6.415   0.159   7.216 -0.9293  0.9765 -0.0567
    5MOL   H202 1570   6.293   0.304   7.353  2.0844 -1.6276 -0.7174
    5MOL   H203 1571   6.121   0.281   7.524  1.4244  2.6271 -1.5000
    5MOL   H204 1572   5.910   0.051   7.768 -1.5750  0.7591 -2.0432
    5MOL   H205 1573   6.043   0.147   7.713 -0.6729 -0.0662  1.6213
    5MOL   C206 1574   6.071   7.962   7.714  0.1854 -0.8705  0.7220
    5MOL   C207 1575   5.978   7.845   7.675 -0.0853  0.8002  0.0953
    5MOL   C208 1576   5.885   7.803   7.773  0.3899 -0.5160 -0.1979
    5MOL   C209 1577   5.787   7.705   7.738 -1.0650  0.3566 -0.8253
    5MOL   C210 1578   5.777   7.658   7.607  0.1859  0.6559 -0.0240
    5MOL   O211 1579   5.674   7.575   7.562 -0.3010 -0.0131  0.1176
    5MOL   C212 1580   5.872   7.699   7.512  0.3518  0.1872  0.0134
    5MOL   C213 1581   5.981   7.785   7.547 -0.0057  0.2325 -0.3317
    5MOL   C214 1582   6.149   7.945   7.846 -0.1659 -0.2269 -0.0681
    5MOL   H215 1583   6.143   7.952   7.632  0.5578 -1.0124  1.0610
    5MOL   H216 1584   5.880   7.841   7.874  0.1838 -0.4091 -0.2481
    5MOL   H217 1585   5.713   7.679   7.812  1.0913 -2.0834  0.5239
    5MOL   H218 1586   5.619   7.557   7.637  0.9663 -2.4017  0.5246
    5MOL   H219 1587   5.862   7.663   7.411  0.8660  1.6959 -0.5924
    5MOL   H220 1588   6.043   7.814   7.463  0.8458  0.1539  0.2655
    5MOL   H221 1589   6.197   7.847   7.852  0.9627  0.1054 -2.9051
    5MOL   H222 1590   6.081   7.933   7.930  0.9958 -2.4283  0.5912
    5MOL   C223 1591   6.258   0.012   7.872  0.1776 -0.8947 -0.3014
    5MOL   C224 1592   6.346   0.030   7.748 -0.1739 -0.7400 -0.9461
    5MOL   C225 1593   6.394   7.955   7.675  0.1278 -0.3798  0.7752
    5MOL   C226 1594   6.482   7.978   7.564 -0.0438  0.1122  0.4028
    5MOL   C227 1595   6.510   0.066   7.517 -0.0951 -0.2261 -0.4190
    5MOL   O228 1596   6.583   0.085   7.403 -0.2147  0.4224  0.1066
    5MOL   C229 1597   6.460   0.176   7.585 -0.0931 -0.0033 -1.0929
    5MOL   C230 1598   6.381   0.161   7.705 -0.1016 -0.5088 -0.0479
    5MOL   C231 1599   6.332   8.008   7.998 -0.5240 -0.3443 -0.1038
    5MOL   H232 1600   6.207   0.107   7.892  1.2606 -0.4801  0.5181
    5MOL   H233 1601   6.384   7.849   7.696  2.4169 -1.0241 -1.1605
    5MOL   H234 1602   6.531   7.891   7.522  0.4261  0.0332  1.0863
    5MOL   H235 1603   6.631   0.012   7.368 -3.2796 -1.6895  0.1700
    5MOL   H236 1604   6.499   0.272   7.555 -1.6405  0.7817 -0.6472
    5MOL   H237 1605   6.362   0.246   7.769  2.1212 -0.7483  0.9666
    5MOL   H238 1606   6.264   7.988   0.043  0.0402  2.0775  1.0068
    5MOL   H239 1607   6.383   7.914   7.978 -0.6130 -0.7499  1.5192
    5MOL   C240 1608   6.434   0.078   8.035 -1.0703  0.3870 -0.2713
    5MOL   C241 1609   6.357   0.189   0.076 -0.2165 -0.5593 -0.2551
    5MOL   C242 1610   6.288   0.160   0.198  1.0255 -0.1313 -0.5002
    5MOL   C243 1611   6.211   0.258   0.266 -0.4031  0.3992 -0.1032
    5MOL   C244 1612   6.190   0.383   0.211 -0.6211  0.3776 -0.6895
    5MOL   O245 1613   6.110   0.463   0.289  0.0381  0.8386  0.0566
    5MOL   C246 1614   6.250   0.413   0.088 -0.0545 -0.1857 -0.4707
    5MOL   C247 1615   6.338   0.317   0.021 -0.0705 -0.5330  0.0562
    5MOL   C248 1616   6.546   0.032   0.098  0.5379  0.6704  0.8739
    5MOL   H249 1617   6.472   0.129   7.948  0.9587  0.0527  0.4038
    5MOL   H250 1618   6.282   0.061   0.241 -1.3901  0.0389 -0.3652
    5MOL   H251 1619   6.162   0.234   0.359 -0.2844 -1.4818 -0.5033
    5MOL   H252 1620   6.084   0.544   0.247  1.8056  0.2527 -2.3112
    5MOL   H253 1621   6.225   0.508   0.041  1.3442  0.0354 -0.8070
    5MOL   H254 1622   6.384   0.339   7.964  0.5629 -0.5765  0.3508
    5MOL   H255 1623   6.570   0.107   0.174  0.9625  0.3225  1.0838
    5MOL   H256 1624   6.511   7.991   0.165 -3.3091  1.4610 -0.0764
    5MOL   C257 1625   6.677   0.003   0.023 -0.6952 -0.4689 -0.5832
    5MOL   C258 1626   6.787   7.999   0.124 -0.2087  0.6730  0.5319
    5MOL   C259 1627   6.776   7.887   0.198 -0.0625  0.2536 -1.0032
    5MOL   C260 1628   6.881   7.850   0.283  0.2681  0.1280  0.3241
    5MOL   C261 1629   6.991   7.931   0.302  0.5111  0.7859  0.0370
    5MOL   O262 1630   7.099   7.884   0.378 -0.3770 -0.0492 -0.2972
    5MOL   C263 1631   7.001   0.007   0.224  0.1834 -0.0814  0.0085
    5MOL   C264 1632   6.905   0.040   0.131  0.2271  0.5178 -0.7385
    5MOL   C265 1633   6.658   7.950   7.941 -0.6564  1.2240 -0.1162
    5MOL   H266 1634   6.714   0.098   8.021  0.2411 -0.9588 -0.9035
    5MOL   H267 1635   6.692   7.822   0.181  1.2047 -1.8133  0.3690
    5MOL   H268 1636   6.870   7.752   0.328 -1.1275 -0.6812 -1.7016
    5MOL   H269 1637   7.080   7.810   0.433 -2.0214  0.8486  0.3980
    5MOL   H270 1638   7.092   0.066   0.229  0.3084 -0.1737 -1.0868
    5MOL   H271 1639   6.914   0.134   0.078 -0.5644 -0.0353 -1.8752
    5MOL   H272 1640   6.584   7.979   7.866 -0.4739  0.5368 -0.5678
    5MOL   H273 1641   6.620   7.856   7.978  0.0918  1.1049  0.3693
    5MOL   C274 1642   6.784   7.903   7.859  0.4858  0.0172  0.1296
    5MOL   C275 1643   6.835   8.018   7.771  0.1144  0.8959 -0.3057
    5MOL   C276 1644   6.958   7.999   7.715  0.7204 -0.1998 -0.1258
    5MOL   C277 1645   7.017   0.066   7.645 -0.3921 -0.4961 -1.2138
    5MOL   C278 1646   6.953   0.186   7.616  0.3829 -0.1428 -0.0357
    5MOL   O279 1647   7.009   0.274   7.528  0.4029 -0.0189 -0.2965
    5MOL   C280 1648   6.826   0.205   7.673 -0.1731  0.1028 -0.5836
    5MOL   C281 1649   6.766   0.103   7.753  0.2743 -0.2142 -0.7862
    5MOL   C282 1650   6.754   7.776   7.776  0.1830  0.1583 -0.1931
    5MOL   H283 1651   6.864   7.885   7.929 -0.0731  0.1350  0.8051
    5MOL   H284 1652   7.011   7.906   7.729  0.7757 -0.2809 -0.8912
    5MOL   H285 1653   7.118   0.045   7.610  0.1781 -1.3073  0.8559
    5MOL   H286 1654   6.948   0.334   7.488 -1.3801  1.1516  3.9859
    5MOL   H287 1655   6.769   0.297   7.669  0.1521  0.3754  0.8709
    5MOL   H288 1656   6.670   0.118   7.800 -0.0764  0.8737 -1.8080
    5MOL   H289 1657   6.648   7.757   7.758 -0.2464 -1.1983  3.3364
    5MOL   H290 1658   6.788   7.809   7.678  1.8796 -1.4715 -0.1957
    5MOL   C291 1659   6.831   7.656   7.825 -0.0946 -0.4437 -0.0605
    5MOL   C292 1660   6.836   7.552   7.713  0.0137  0.0088 -0.9014
    5MOL   C293 1661   6.725   7.469   7.694 -0.3234  0.7687  0.1047
    5MOL   C294 1662   6.723   7.370   7.593 -0.0620 -0.4392 -0.0590
    5MOL   C295 1663   6.833   7.366   7.501  0.5261 -0.8147 -0.5860
    5MOL   O296 1664   6.829   7.272   7.401 -0.3937 -0.3134 -0.2696
    5MOL   C297 1665   6.946   7.451   7.522 -0.8845 -0.2590 -0.4477
    5MOL   C298 1666   6.951   7.536   7.635  0.3053  0.1899 -0.0107
    5MOL   C299 1667   6.786   7.605   7.964  0.2075  0.8436 -0.0675
    5MOL   H300 1668   6.936   7.685   7.826 -0.5870  1.6010 -2.7988
    5MOL   H301 1669   6.639   7.483   7.758  0.0060  1.0816  0.4870
    5MOL   H302 1670   6.640   7.303   7.577 -0.8227  0.4019  0.3546
    5MOL   H303 1671   6.753   7.216   7.399 -0.9550  0.4672 -1.5047
    5MOL   H304 1672   7.036   7.435   7.465  0.3992  1.0392  1.1647
    5MOL   H305 1673   7.041   7.588   7.667  1.1694 -0.4107 -1.4084
    5MOL   H306 1674   6.684   7.578   7.938  0.2295  1.6225 -1.0047
    5MOL   H307 1675   6.780   7.683   0.003 -1.6600  1.9271 -1.2817
    5MOL   C308 1676   6.869   7.486   8.012  0.7714 -0.8695 -0.4759
    5MOL   C309 1677   6.790   7.408   0.083  0.2591  0.2965  0.0329
    5MOL   C310 1678   6.745   7.464   0.206  0.1942  0.5069  0.3615
    5MOL   C311 1679   6.679   7.392   0.304 -0.5447  0.1242 -0.1028
    5MOL   C312 1680   6.655   7.253   0.277  0.2557 -0.0156 -0.1688
    5MOL   O313 1681   6.609   7.174   0.382  0.3986  0.1128 -0.4532
    5MOL   C314 1682   6.675   7.198   0.150 -0.3564 -0.0282 -0.9878
    5MOL   C315 1683   6.741   7.276   0.055 -0.6798 -0.3069  0.6825
    5MOL   C316 1684   7.011   7.518   0.022  0.5548 -0.4974 -0.7442
    5MOL   H317 1685   6.881   7.425   7.922  1.4045  0.5388 -1.3681
    5MOL   H318 1686   6.774   7.565   0.229 -1.3478  0.4525  2.5807
    5MOL   H319 1687   6.675   7.431   0.404  0.2030 -0.1712  0.0523
    5MOL   H320 1688   6.575   7.087   0.372 -1.5089  0.6183  1.3542
    5MOL   H321 1689   6.660   7.092   0.138 -1.1896  0.2973 -2.8768
    5MOL   H322 1690   6.758   7.221   8.001 -0.4993 -1.1016  1.1895
    5MOL   H323 1691   7.009   7.588   0.106  0.7288 -2.3097  0.7947
    5MOL   H324 1692   7.052   7.567   7.971  0.3222 -0.4675 -0.8352
    5MOL   C325 1693   7.119   7.405   0.037  0.5145  0.4633  0.4121
    5MOL   C326 1694   7.126   7.304   7.955  0.8544  0.2925  0.2177
    5MOL   C327 1695   7.178   7.353   7.830 -0.0188  0.6738  0.5739
    5MOL   C328 1696   7.181   7.270   7.720 -0.1274  0.1058  0.4134
    5MOL   C329 1697   7.116   7.146   7.718 -0.5362 -0.0497  0.6096
    5MOL   O330 1698   7.108   7.073   7.606  0.5371 -0.5645 -0.3148
    5MOL   C331 1699   7.062   7.102   7.840 -0.0430  0.5470  0.0149
    5MOL   C332 1700   7.066   7.175   7.955 -0.1631 -0.7599 -0.3336
    5MOL   C333 1701   7.117   7.341   0.181 -0.3513 -0.2315  0.6745
    5MOL   H334 1702   7.215   7.456   0.030 -0.9172  3.0525 -1.2932
    5MOL   H335 1703   7.214   7.454   7.816 -0.7903  1.0655  1.3545
    5MOL   H336 1704   7.219   7.317   7.630 -0.1603  0.2976  0.4993
    5MOL   H337 1705   7.133   7.109   7.523 -3.0117  1.6039 -0.5453
    5MOL   H338 1706   6.998   7.015   7.840 -0.3242  0.7521 -0.2093
    5MOL   H339 1707   7.019   7.141   0.009  0.0934 -1.6295 -0.5206
    5MOL   H340 1708   7.109   7.412   0.263  0.4648  2.1250 -1.2232
    5MOL   H341 1709   7.211   7.289   0.198 -0.7670 -1.0353  0.5231
    5MOL   H342 1710   7.033   7.273   0.195 -1.0499  0.6258  0.7066
    6MOL     C1 1711   1.777   3.706   5.776  0.3085 -0.1143  0.0538
    6MOL     C2 1712   1.858   3.832   5.799 -0.5002 -1.1583 -0.3316
    6MOL     C3 1713   1.994   3.829   5.774 -0.3159  0.2182 -0.3148
    6MOL     C4 1714   2.073   3.945   5.792 -0.4625 -0.3660  0.9639
    6MOL     C5 1715   2.020   4.060   5.853 -0.5005 -0.1031  0.0176
    6MOL     O6 1716   2.102   4.161   5.853  0.0162 -0.3441 -0.3886
    6MOL     C7 1717   1.883   4.059   5.888  0.1533  0.1161 -0.1261
    6MOL     C8 1718   1.804   3.945   5.864  0.0319  0.3334  0.0057
    6MOL     C9 1719   1.667   3.731   5.679  0.3378 -0.2274 -0.0594
    6MOL    H10 1720   1.836   3.622   5.739 -0.3897 -0.2986 -0.6459
    6MOL    H11 1721   2.042   3.738   5.740  2.8361  2.0074 -0.9033
    6MOL    H12 1722   2.178   3.927   5.772 -0.6308 -3.3507  2.4196
    6MOL    H13 1723   2.060   4.244   5.872  2.2482  0.4873  1.0133
    6MOL    H14 1724   1.833   4.146   5.928  1.6529  0.9848 -0.0924
    6MOL    H15 1725   1.697   3.942   5.877 -0.3437 -1.4159 -2.8144
    6MOL    H16 1726   1.700   3.777   5.586  1.8667  0.6815  0.9072
    6MOL    H17 1727   1.593   3.800   5.720  1.0235  2.5652 -3.2933
    6MOL    H18 1728   1.734   3.678   5.872 -4.0970  0.9058 -1.5016
    6MOL    C19 1729   1.595   3.609   5.643  0.0299  0.3639 -1.0705
    6MOL    C20 1730   1.688   3.502   5.588  0.0102 -0.0389 -0.0944
    6MOL    C21 1731   1.751   3.509   5.466  0.1962 -0.0824  0.8544
    6MOL    C22 1732   1.821   3.400   5.412  0.2034  0.5331  0.1937
    6MOL    C23 1733   1.837   3.286   5.487 -0.7782  0.2927  0.1824
    6MOL    O24 1734   1.912   3.184   5.442  0.0081 -0.2825 -0.6134
    6MOL    C25 1735   1.775   3.273   5.606 -0.7108 -0.1440 -0.4887
    6MOL    C26 1736   1.700   3.378   5.661  0.5864  0.3906  0.3912
    6MOL    C27 1737   1.460   3.616   5.561 -0.1659 -0.5451 -0.1665
    6MOL    H28 1738   1.574   3.576   5.745  4.0822 -1.9709 -0.8837
    6MOL    H29 1739   1.746   3.601   5.410  2.4456  0.0344  0.8063
    6MOL    H30 1740   1.869   3.411   5.316  1.5194  0.4490  0.8159
    6MOL    H31 1741   1.970   3.220   5.377 -1.7826  1.5914 -1.2383
    6MOL    H32 1742   1.774   3.178   5.658 -0.8081  1.3406  2.3578
    6MOL    H33 1743   1.642   3.369   5.752  0.2672 -1.1456  0.0412
    6MOL    H34 1744   1.484   3.641   5.458  0.6775  2.6912  0.7247
    6MOL    H35 1745   1.395   3.695   5.600  0.7846  0.2099 -0.0905
    6MOL    C36 1746   1.372   3.481   5.555 -0.3469 -0.0840  0.1135
    6MOL    C37 1747   1.380   3.414   5.419  0.2989  0.4054  0.1583
    6MOL    C38 1748   1.323   3.474   5.303 -0.3001  0.4375  0.1859
    6MOL    C39 1749   1.336   3.414   5.175  0.7206 -0.3151 -0.0967
    6MOL    C40 1750   1.414   3.301   5.164  0.2821  0.0966 -0.0843
    6MOL    O41 1751   1.421   3.229   5.048  0.1868 -0.2729 -0.4778
    6MOL    C42 1752   1.477   3.246   5.276  0.0173 -0.3596 -0.4677
    6MOL    C43 1753   1.464   3.301   5.407  0.0652  0.2311  0.0921
    6MOL    C44 1754   1.226   3.516   5.593  0.2777  0.6457  0.4907
    6MOL    H45 1755   1.411   3.418   5.635 -0.1425  3.0545  2.5615
    6MOL    H46 1756   1.257   3.557   5.321 -1.4014 -0.8641  2.2890
    6MOL    H47 1757   1.285   3.460   5.092 -0.7754  0.2734  1.1437
    6MOL    H48 1758   1.407   3.286   4.974  1.3055 -0.9162 -1.2117
    6MOL    H49 1759   1.541   3.159   5.267  0.2348 -0.3857  1.2661
    6MOL    H50 1760   1.515   3.258   5.492 -0.2163  2.6488  1.5035
    6MOL    H51 1761   1.223   3.529   5.701  0.3808 -0.3116  0.6162
    6MOL    H52 1762   1.205   3.614   5.550  3.2062  1.3878  0.6723
    6MOL    C53 1763   1.110   3.415   5.559 -0.0165  0.4132  0.4519
    6MOL    C54 1764   1.153   3.265   5.570 -0.6004  0.7002 -0.1810
    6MOL    C55 1765   1.122   3.177   5.470  0.3754 -0.4646  0.4308
    6MOL    C56 1766   1.156   3.039   5.480  0.9447  0.0350  0.2729
    6MOL    C57 1767   1.218   2.986   5.592  0.1516 -0.1074 -0.3693
    6MOL    O58 1768   1.238   2.855   5.591 -0.7481  0.1767  0.2394
    6MOL    C59 1769   1.270   3.075   5.691 -0.4703 -0.1499  0.0861
    6MOL    C60 1770   1.236   3.218   5.677 -0.5280 -0.2267  0.6495
    6MOL    C61 1771   0.993   3.448   5.652 -0.4645  0.1258 -0.5546
    6MOL    H62 1772   1.094   3.424   5.451  0.9894 -1.0199  0.1620
    6MOL    H63 1773   1.073   3.218   5.383  0.1928  0.0766  0.7854
    6MOL    H64 1774   1.114   2.982   5.398  1.2731  1.9248 -1.2291
    6MOL    H65 1775   1.189   2.819   5.519  2.2399  0.4482 -2.0017
    6MOL    H66 1776   1.336   3.036   5.766 -1.1613 -2.8795 -0.6834
    6MOL    H67 1777   1.272   3.290   5.749  2.1033 -0.7093 -0.1012
    6MOL    H68 1778   0.962   3.548   5.621 -0.3855  0.5407  0.6968
    6MOL    H69 1779   1.025   3.450   5.756 -1.4299  0.2593 -0.2526
    6MOL    C70 1780   0.867   3.352   5.640  0.0507  0.0744 -0.1422
    6MOL    C71 1781   0.741   3.444   5.654 -0.5415  0.5540  0.4866
    6MOL    C72 1782   0.702   3.487   5.779  0.3529 -0.3246 -0.0847
    6MOL    C73 1783   0.586   3.574   5.787  0.1502  0.4808 -1.2208
    6MOL    C74 1784   0.508   3.595   5.676 -0.1553  0.0278  0.3348
    6MOL    O75 1785   0.394   3.661   5.676  0.1297 -0.1940  0.6300
    6MOL    C76 1786   0.552   3.550   5.552  0.1704 -0.6141  0.4417
    6MOL    C77 1787   0.669   3.480   5.538 -0.9433 -0.1311  0.0430
    6MOL    C78 1788   0.862   3.232   5.742 -0.4518  0.3501  0.4398
    6MOL    H79 1789   0.866   3.320   5.535 -1.5960 -1.7919  0.4005
    6MOL    H80 1790   0.743   3.452   5.872  0.3195  1.2950  0.5557
    6MOL    H81 1791   0.538   3.593   5.882 -1.1417 -0.5991 -1.6361
    6MOL    H82 1792   0.391   3.725   5.745  1.8914 -0.2293  0.7630
    6MOL    H83 1793   0.492   3.578   5.467 -0.0391 -0.6520  0.5768
    6MOL    H84 1794   0.727   3.455   5.450  1.8226  1.9295  1.2135
    6MOL    H85 1795   0.854   3.264   5.846 -0.8673  0.8631  0.2515
    6MOL    H86 1796   0.962   3.191   5.726  1.0574  3.7670  0.5871
    6MOL    C87 1797   0.769   3.112   5.726 -0.3637  0.1256 -0.3119
    6MOL    C88 1798   0.785   3.017   5.848  0.6925  0.3560 -0.5146
    6MOL    C89 1799   0.674   2.994   5.932 -0.1470  0.1836 -0.8652
    6MOL    C90 1800   0.687   2.897   6.036  0.7473  0.5063 -0.5106
    6MOL    C91 1801   0.812   2.832   6.058 -0.4857  0.1873  0.1285
    6MOL    O92 1802   0.823   2.744   6.152 -0.9491  0.4594  0.0942
    6MOL    C93 1803   0.922   2.862   5.972  0.1806 -0.1103  0.0046
    6MOL    C94 1804   0.911   2.953   5.868  0.4176  0.2364  0.6268
    6MOL    C95 1805   0.792   3.036   5.605 -0.0402  0.6417  0.2791
    6MOL    H96 1806   0.666   3.146   5.740  0.0180  0.7473  1.0205
    6MOL    H97 1807   0.578   3.042   5.915 -0.5344 -0.3100 -0.1231
    6MOL    H98 1808   0.609   2.865   6.104 -1.5248  1.1748 -2.7197
    6MOL    H99 1809   0.900   2.776   6.197 -0.3954  0.3458 -0.7537
    6MOL   H100 1810   1.024   2.825   5.974  0.7641  1.5566  1.4874
    6MOL   H101 1811   0.997   2.970   5.805 -0.1548  0.5170 -0.0796
    6MOL   H102 1812   0.898   3.034   5.583  0.1112  1.0790  0.9512
    6MOL   H103 1813   0.772   2.930   5.622 -3.1352  0.8920 -1.4122
    6MOL   C104 1814   0.711   3.079   5.482 -0.0707  0.1858 -0.9065
    6MOL   C105 1815   0.563   3.048   5.491 -0.2821 -0.1028 -0.0055
    6MOL   C106 1816   0.521   2.913   5.508  0.1964  0.0756 -0.6764
    6MOL   C107 1817   0.383   2.874   5.502 -0.1712  0.4657  0.7248
    6MOL   C108 1818   0.291   2.984   5.500 -0.5569  0.4684 -0.1940
    6MOL   O109 1819   0.155   2.957   5.495 -0.0408  0.3700  0.2240
    6MOL   C110 1820   0.333   3.118   5.498 -0.3568  0.0615 -0.0858
    6MOL   C111 1821   0.471   3.152   5.491 -0.2406  0.3155  0.9493
    6MOL   C112 1822   0.768   3.029   5.348  0.2617 -0.3413 -0.9152
    6MOL   H113 1823   0.707   3.188   5.479  1.0945  0.2432 -0.5704
    6MOL   H114 1824   0.604   2.843   5.511  0.8577  0.8856  0.5551
    6MOL   H115 1825   0.363   2.768   5.502  2.9409 -0.1818  0.3674
    6MOL   H116 1826   0.111   3.034   5.528  0.5410  0.9626 -0.3629
    6MOL   H117 1827   0.263   3.200   5.495 -2.0283 -1.3847 -2.0135
    6MOL   H118 1828   0.499   3.256   5.488 -0.4091  0.3270 -1.1111
    6MOL   H119 1829   0.760   2.921   5.335 -0.7419 -0.1812 -1.7123
    6MOL   H120 1830   0.873   3.054   5.358  0.3127 -1.1402  0.7975
    6MOL   C121 1831   0.723   3.089   5.213 -0.1578 -0.6880 -0.2446
    6MOL   C122 1832   0.770   3.229   5.191 -0.1272 -0.0349  0.1966
    6MOL   C123 1833   0.681   3.340   5.195  0.3784  0.0682 -0.1585
    6MOL   C124 1834   0.733   3.469   5.178  0.6027  0.1172  0.0952
    6MOL   C125 1835   0.866   3.489   5.153 -0.6388  0.7068 -0.8451
    6MOL   O126 1836   0.914   3.611   5.127  0.2958 -0.1358  0.3024
    6MOL   C127 1837   0.959   3.383   5.157 -0.0445 -0.4461  0.2852
    6MOL   C128 1838   0.909   3.250   5.180 -0.0354 -0.1256  1.1021
    6MOL   C129 1839   0.749   2.993   5.091 -0.3095 -0.1592 -0.6464
    6MOL   H130 1840   0.614   3.096   5.217 -0.0012  1.7762  0.5206
    6MOL   H131 1841   0.574   3.327   5.199  0.3823  0.1516  0.1879
    6MOL   H132 1842   0.659   3.548   5.173  1.6207  1.0119 -1.1439
    6MOL   H133 1843   0.967   3.640   5.200  3.3994 -0.4831 -1.6964
    6MOL   H134 1844   1.066   3.393   5.142 -0.3124  0.1285 -1.2384
    6MOL   H135 1845   0.977   3.167   5.193 -0.2874 -0.3759  0.8131
    6MOL   H136 1846   0.697   2.899   5.105 -1.9309  1.0973  2.2774
    6MOL   H137 1847   0.857   2.975   5.095 -0.2604  0.1053 -0.7445
    6MOL   C138 1848   0.692   3.044   4.958  0.2861 -0.1973  0.3610
    6MOL   C139 1849   0.544   3.070   4.966 -0.5199 -0.3322  0.1031
    6MOL   C140 1850   0.445   2.966   4.984  1.0524  0.3274 -0.3215
    6MOL   C141 1851   0.308   2.985   4.970  0.2409 -0.2969  0.2322
    6MOL   C142 1852   0.259   3.110   4.937  0.1609 -0.0439  1.0067
    6MOL   O143 1853   0.120   3.117   4.921  0.4793 -0.1829  0.5027
    6MOL   C144 1854   0.346   3.219   4.933 -0.3647  0.0567  0.6648
    6MOL   C145 1855   0.487   3.201   4.950 -0.1276  0.5592  1.5868
    6MOL   C146 1856   0.716   2.946   4.842  0.5150  0.3336  0.0640
    6MOL   H147 1857   0.734   3.144   4.949 -0.2475  0.1063  1.1944
    6MOL   H148 1858   0.483   2.872   5.022  1.0187  1.2705  2.0967
    6MOL   H149 1859   0.235   2.907   4.988  1.3540 -0.9682  1.9669
    6MOL   H150 1860   0.076   3.091   5.001 -1.5604 -0.0553 -0.5771
    6MOL   H151 1861   0.293   3.309   4.906 -0.2483 -0.6314 -2.0194
    6MOL   H152 1862   0.555   3.285   4.945 -1.0521  1.2211 -1.6549
    6MOL   H153 1863   0.631   2.959   4.776  0.7524  0.9105 -0.1284
    6MOL   H154 1864   0.710   2.841   4.870  0.5630  0.5115  0.7478
    6MOL   C155 1865   0.845   2.973   4.755  0.4654 -0.4131  0.1948
    6MOL   C156 1866   0.963   2.961   4.847 -0.6818  0.7860 -0.2097
    6MOL   C157 1867   1.012   3.068   4.927 -0.1827  0.2020  0.3420
    6MOL   C158 1868   1.121   3.051   5.019  0.0153  0.4000  0.0330
    6MOL   C159 1869   1.173   2.918   5.042  0.0823  0.0649 -0.4536
    6MOL   O160 1870   1.268   2.895   5.139  0.1660 -0.4360 -0.1105
    6MOL   C161 1871   1.124   2.811   4.964 -0.5593  0.4852 -0.3027
    6MOL   C162 1872   1.021   2.834   4.869 -0.1204 -0.3005 -0.1994
    6MOL   C163 1873   0.845   3.089   4.656 -0.0418  0.0437  0.1020
    6MOL   H164 1874   0.860   2.889   4.689 -1.3329 -0.1412 -0.5864
    6MOL   H165 1875   0.961   3.162   4.911 -1.3528 -0.3153  0.9522
    6MOL   H166 1876   1.158   3.134   5.077 -0.9632 -0.2076  1.5482
    6MOL   H167 1877   1.312   2.976   5.156  0.5008 -1.0738  2.3311
    6MOL   H168 1878   1.168   2.713   4.973 -1.7597 -0.0647 -0.3690
    6MOL   H169 1879   0.994   2.744   4.816  1.3730 -0.5645 -0.5540
    6MOL   H170 1880   0.816   3.179   4.710 -2.2018 -0.0215 -0.9139
    6MOL   H171 1881   0.767   3.080   4.580 -0.4570  2.8097  0.1304
    6MOL   C172 1882   0.983   3.107   4.589 -0.2722 -0.4903  0.5871
    6MOL   C173 1883   1.066   3.213   4.658  0.3841 -0.5493 -0.5939
    6MOL   C174 1884   1.008   3.348   4.662 -1.1663  0.4631 -0.0503
    6MOL   C175 1885   1.090   3.454   4.709 -0.2089 -0.5158  0.2023
    6MOL   C176 1886   1.212   3.428   4.774 -0.3910  0.1890 -0.1768
    6MOL   O177 1887   1.269   3.520   4.854  0.1240 -0.2825  0.0913
    6MOL   C178 1888   1.268   3.301   4.768 -0.5467  0.6531  0.0758
    6MOL   C179 1889   1.200   3.196   4.701  0.0602 -0.2571 -0.3074
    6MOL   C180 1890   0.961   3.146   4.440 -0.3729 -0.6164 -0.7925
    6MOL   H181 1891   1.044   3.017   4.587 -0.0313 -0.3097 -0.4180
    6MOL   H182 1892   0.907   3.367   4.631 -1.9791  0.2632  2.3859
    6MOL   H183 1893   1.055   3.555   4.697 -2.0079 -1.2393 -0.8011
    6MOL   H184 1894   1.230   3.606   4.845 -0.9631 -0.6233  1.4238
    6MOL   H185 1895   1.366   3.282   4.810  0.2765 -0.9723 -2.4651
    6MOL   H186 1896   1.257   3.104   4.701  2.6185  1.2705 -0.8059
    6MOL   H187 1897   0.902   3.238   4.442  0.7334  0.2059  5.1489
    6MOL   H188 1898   0.904   3.076   4.379 -2.1788 -0.0645  0.1965
    6MOL   C189 1899   1.093   3.189   4.361 -0.5834  0.3320  0.9706
    6MOL   C190 1900   1.163   3.065   4.300 -0.6459 -0.1160  0.1686
    6MOL   C191 1901   1.124   3.015   4.174 -1.1453  0.0753  0.7452
    6MOL   C192 1902   1.166   2.888   4.128  0.4378  0.3077 -0.3614
    6MOL   C193 1903   1.241   2.806   4.210 -0.1160 -0.4095 -0.1407
    6MOL   O194 1904   1.270   2.676   4.169  0.0463 -0.0239  0.6498
    6MOL   C195 1905   1.282   2.851   4.341  0.2662  0.2982 -0.3554
    6MOL   C196 1906   1.241   2.980   4.385 -0.1931 -0.2213 -0.5129
    6MOL   C197 1907   1.071   3.305   4.260  0.2821 -0.7247  0.8299
    6MOL   H198 1908   1.169   3.229   4.428  2.5013 -1.3628 -1.3772
    6MOL   H199 1909   1.042   3.060   4.120 -0.2080  2.3924  1.1810
    6MOL   H200 1910   1.135   2.849   4.032 -0.3580 -0.2303  0.1072
    6MOL   H201 1911   1.309   2.617   4.232 -0.4322 -2.1383 -0.9708
    6MOL   H202 1912   1.346   2.790   4.403 -0.8159  0.9828  1.4739
    6MOL   H203 1913   1.277   3.019   4.479 -0.7953 -0.5115 -0.1590
    6MOL   H204 1914   1.017   3.382   4.315  1.5533 -0.8121  2.2288
    6MOL   H205 1915   1.013   3.265   4.177 -2.9191 -0.4537  2.8632
    6MOL   C206 1916   1.202   3.385   4.209  1.0736  0.2782  0.8748
    6MOL   C207 1917   1.250   3.481   4.313  0.0605 -0.3159 -0.4064
    6MOL   C208 1918   1.187   3.609   4.338 -0.1116  0.0867 -0.0572
    6MOL   C209 1919   1.244   3.688   4.443 -0.0223  0.3590 -0.1825
    6MOL   C210 1920   1.357   3.650   4.512  0.3685  0.3503  0.0876
    6MOL   O211 1921   1.423   3.735   4.600 -0.1708  0.0324  0.1407
    6MOL   C212 1922   1.402   3.519   4.495 -0.6187  0.0309  0.0183
    6MOL   C213 1923   1.352   3.436   4.396  0.3099  0.4589  0.4595
    6MOL   C214 1924   1.184   3.470   4.082  0.2835  0.2003 -0.0922
    6MOL   H215 1925   1.282   3.314   4.188 -1.5635 -2.4561 -0.3858
    6MOL   H216 1926   1.098   3.638   4.283  0.1382  2.1067  0.5615
    6MOL   H217 1927   1.190   3.778   4.469 -0.7130 -0.2376  0.4524
    6MOL   H218 1928   1.490   3.687   4.645 -1.3133 -1.7588 -0.0033
    6MOL   H219 1929   1.489   3.477   4.543  0.1881 -1.2720 -2.5102
    6MOL   H220 1930   1.380   3.332   4.396 -2.3918 -0.2931 -1.0888
    6MOL   H221 1931   1.278   3.521   4.062 -0.1438  1.4427  1.0629
    6MOL   H222 1932   1.109   3.547   4.097  1.6734  1.4431  0.5286
    6MOL   C223 1933   1.137   3.400   3.951  0.4273 -0.0434 -0.0434
    6MOL   C224 1934   1.228   3.290   3.905 -0.0878 -0.1430 -0.3285
    6MOL   C225 1935   1.366   3.315   3.876  0.3194  0.1731 -0.1945
    6MOL   C226 1936   1.454   3.209   3.831 -0.1506  0.1029 -0.0488
    6MOL   C227 1937   1.394   3.084   3.808  0.0730 -0.0940  0.6318
    6MOL   O228 1938   1.461   2.974   3.766 -0.1838 -0.3745  0.0430
    6MOL   C229 1939   1.262   3.058   3.855 -0.7895  0.0134  0.3075
    6MOL   C230 1940   1.179   3.161   3.894  0.8445  0.3674 -0.1408
    6MOL   C231 1941   1.110   3.510   3.847 -0.0135  0.6108  0.3627
    6MOL   H232 1942   1.040   3.354   3.964  0.7012 -1.1951 -1.8873
    6MOL   H233 1943   1.398   3.418   3.878  1.9525 -0.3290  0.4835
    6MOL   H234 1944   1.556   3.221   3.800 -0.3174 -1.8891 -1.5009
    6MOL   H235 1945   1.406   2.897   3.770 -1.2851  0.3707 -0.6368
    6MOL   H236 1946   1.235   2.954   3.847  0.8610 -0.2322 -3.3122
    6MOL   H237 1947   1.078   3.137   3.926  0.3905 -0.6675 -2.3019
    6MOL   H238 1948   1.056   3.591   3.896  1.9092  1.7542  0.6551
    6MOL   H239 1949   1.208   3.551   3.821  1.1089 -0.3940  2.7900
    6MOL   C240 1950   1.020   3.456   3.732  0.2997  0.1198  0.3008
    6MOL   C241 1951   0.891   3.395   3.784  0.3908  0.8363 -0.3616
    6MOL   C242 1952   0.852   3.271   3.727 -1.0178 -0.4578  0.3352
    6MOL   C243 1953   0.732   3.215   3.771  0.5236 -0.0646  0.4712
    6MOL   C244 1954   0.647   3.276   3.872 -0.2934  0.1097  1.1051
    6MOL   O245 1955   0.528   3.211   3.908 -0.5325  0.5013 -0.0690
    6MOL   C246 1956   0.689   3.402   3.927  0.4127 -0.7296 -0.0495
    6MOL   C247 1957   0.807   3.459   3.880 -0.3632 -0.9365 -0.1336
    6MOL   C248 1958   0.988   3.565   3.629 -0.2727 -0.7888 -0.5299
    6MOL   H249 1959   1.082   3.386   3.676  0.1554  0.7390 -0.6558
    6MOL   H250 1960   0.923   3.232   3.656 -1.8073  0.0294 -0.7302
    6MOL   H251 1961   0.701   3.116   3.739 -2.4748  0.8626  0.3403
    6MOL   H252 1962   0.507   3.209   4.000 -0.4636 -0.3009 -0.0654
    6MOL   H253 1963   0.627   3.455   3.998  1.3572 -0.1459  0.3385
    6MOL   H254 1964   0.845   3.548   3.929 -0.8384 -0.2686 -0.9607
    6MOL   H255 1965   0.930   3.516   3.550  0.1692 -2.9359  0.4290
    6MOL   H256 1966   0.930   3.646   3.672  0.6064  0.3690 -1.4962
    6MOL   C257 1967   1.103   3.626   3.548  0.1539  0.5173  0.0190
    6MOL   C258 1968   1.200   3.517   3.499 -0.8087  0.5817 -0.2748
    6MOL   C259 1969   1.158   3.422   3.409 -0.1555  0.7187 -0.8466
    6MOL   C260 1970   1.242   3.316   3.385  0.0113  0.5480  0.4056
    6MOL   C261 1971   1.367   3.303   3.457  0.3538  0.8578  0.3092
    6MOL   O262 1972   1.451   3.197   3.422  0.8552 -0.0915 -0.3294
    6MOL   C263 1973   1.410   3.397   3.553 -1.0171 -0.4793  0.2745
    6MOL   C264 1974   1.318   3.504   3.575 -0.3526 -0.8420  0.1589
    6MOL   C265 1975   1.062   3.725   3.432  0.0129 -0.0692  0.4896
    6MOL   H266 1976   1.154   3.693   3.617  0.4667 -1.4417  1.7408
    6MOL   H267 1977   1.060   3.429   3.366 -0.7646  0.3935  0.4587
    6MOL   H268 1978   1.213   3.237   3.317  1.3381 -0.4599  0.9901
    6MOL   H269 1979   1.542   3.215   3.440  0.9272 -0.0806 -0.6877
    6MOL   H270 1980   1.502   3.386   3.608  1.0003 -0.1818 -2.9143
    6MOL   H271 1981   1.342   3.572   3.655  0.4566 -2.6102  1.4588
    6MOL   H272 1982   1.008   3.811   3.473 -1.3149 -0.6626  0.0359
    6MOL   H273 1983   0.990   3.676   3.366 -1.2496  1.7259  0.4810
    6MOL   C274 1984   1.177   3.777   3.351 -0.3167 -0.3949  0.8053
    6MOL   C275 1985   1.293   3.843   3.424  0.2538 -0.4626 -0.1239
    6MOL   C276 1986   1.428   3.829   3.377 -0.0443 -0.2427  0.0091
    6MOL   C277 1987   1.532   3.912   3.429 -0.2636  0.0004  0.3820
    6MOL   C278 1988   1.501   4.003   3.534 -0.0404 -0.4826 -0.3502
    6MOL   O279 1989   1.599   4.090   3.580 -0.3427 -0.0371 -0.1244
    6MOL   C280 1990   1.373   4.014   3.584  0.4093 -0.5836  0.0688
    6MOL   C281 1991   1.264   3.934   3.529  0.2643  0.0551 -0.2160
    6MOL   C282 1992   1.136   3.880   3.241  0.0079  0.3258 -0.4976
    6MOL   H283 1993   1.217   3.698   3.288  0.1888 -0.1054  0.7537
    6MOL   H284 1994   1.444   3.765   3.292 -0.4293  1.5538 -1.4558
    6MOL   H285 1995   1.632   3.922   3.389  0.5293 -1.3750  1.9811
    6MOL   H286 1996   1.684   4.067   3.545 -0.3690  0.8436 -0.7810
    6MOL   H287 1997   1.352   4.098   3.648 -2.2989 -0.4721 -0.8772
    6MOL   H288 1998   1.165   3.946   3.570  0.3761  0.7942 -0.1420
    6MOL   H289 1999   1.097   3.974   3.282 -1.6762 -0.7670  0.4786
    6MOL   H290 2000   1.232   3.903   3.195  0.6209 -1.0267  0.0856
    6MOL   C291 2001   1.034   3.831   3.136 -0.8813  0.7153 -0.8939
    6MOL   C292 2002   1.089   3.718   3.047  0.3534  0.1019  0.2401
    6MOL   C293 2003   1.065   3.584   3.088 -0.1235 -0.3969  0.3283
    6MOL   C294 2004   1.122   3.482   3.008 -0.1840 -0.4543  0.3201
    6MOL   C295 2005   1.198   3.514   2.896 -0.4904 -0.8106  0.1780
    6MOL   O296 2006   1.280   3.418   2.844 -0.2397  0.1186 -0.1273
    6MOL   C297 2007   1.208   3.644   2.847  0.2182  0.7201 -0.2589
    6MOL   C298 2008   1.163   3.749   2.932 -0.5099  0.1555  0.4296
    6MOL   C299 2009   0.994   3.956   3.054 -0.6091  0.9847 -0.6923
    6MOL   H300 2010   0.939   3.807   3.184 -0.9872  0.8009 -1.0596
    6MOL   H301 2011   1.017   3.562   3.182 -1.0675 -1.2366 -0.3403
    6MOL   H302 2012   1.119   3.380   3.043 -0.4611 -0.5903 -0.1002
    6MOL   H303 2013   1.323   3.367   2.911 -0.6033 -1.2910 -0.9477
    6MOL   H304 2014   1.273   3.662   2.763  0.0813  2.2192 -0.0661
    6MOL   H305 2015   1.178   3.851   2.900  1.0862 -0.6911 -1.6806
    6MOL   H306 2016   1.008   3.944   2.946 -0.6743  1.2236 -0.7269
    6MOL   H307 2017   1.060   4.041   3.068  0.9040 -0.2288 -0.2752
    6MOL   C308 2018   0.853   4.007   3.082  0.4829  0.4989  0.7869
    6MOL   C309 2019   0.762   3.956   2.965 -0.1229  0.5392 -0.3383
    6MOL   C310 2020   0.777   4.011   2.835  0.2173 -0.4950 -0.5638
    6MOL   C311 2021   0.692   3.968   2.726  0.6114 -0.7226  1.3521
    6MOL   C312 2022   0.596   3.865   2.750  1.3238  0.3881  0.0088
    6MOL   O313 2023   0.508   3.837   2.650  0.9233  0.5101  0.2210
    6MOL   C314 2024   0.588   3.806   2.878  0.0451  0.2292  0.6266
    6MOL   C315 2025   0.678   3.844   2.977  0.7624  0.5020  0.1169
    6MOL   C316 2026   0.838   4.160   3.097 -0.3743 -0.2607  0.0195
    6MOL   H317 2027   0.811   3.964   3.173  1.4593  1.9488  1.9405
    6MOL   H318 2028   0.843   4.096   2.830  0.0238 -0.1501  2.3549
    6MOL   H319 2029   0.701   4.013   2.629  2.3282  1.7994  2.6304
    6MOL   H320 2030   0.505   3.903   2.582 -0.1175 -1.6748 -1.9319
    6MOL   H321 2031   0.510   3.732   2.886  2.2016 -2.1019  0.7623
    6MOL   H322 2032   0.663   3.787   3.068  0.8497  2.5660  1.4583
    6MOL   H323 2033   0.731   4.179   3.093 -0.5698 -0.6235  2.7089
    6MOL   H324 2034   0.865   4.209   3.003 -2.3594  0.7325 -0.0526
    6MOL   C325 2035   0.908   4.223   3.224 -0.1608 -0.8314 -0.2690
    6MOL   C326 2036   0.872   4.162   3.359 -0.2522 -0.4962  0.1324
    6MOL   C327 2037   0.966   4.172   3.459  0.9500  0.1328 -0.3810
    6MOL   C328 2038   0.932   4.128   3.588 -0.4563  0.5943 -0.5618
    6MOL   C329 2039   0.811   4.059   3.613  0.1599  0.0832  0.0998
    6MOL   O330 2040   0.781   3.996   3.738  0.1017 -0.2961 -0.4417
    6MOL   C331 2041   0.719   4.047   3.505  0.1182  0.0305  0.3709
    6MOL   C332 2042   0.744   4.118   3.383  0.1005 -0.0400  0.6927
    6MOL   C333 2043   0.891   4.377   3.222 -0.7054 -0.0918 -0.0657
    6MOL   H334 2044   1.014   4.195   3.219  0.1369  0.6801 -3.2577
    6MOL   H335 2045   1.060   4.222   3.442  1.0296 -0.1726 -0.8774
    6MOL   H336 2046   1.007   4.141   3.665  0.4155  0.5943 -1.3978
    6MOL   H337 2047   0.687   3.985   3.738  0.1410 -0.6871 -1.6681
    6MOL   H338 2048   0.625   4.007   3.540  0.0668  0.0524  0.2606
    6MOL   H339 2049   0.666   4.124   3.308 -0.0763 -0.4699  0.8400
    6MOL   H340 2050   0.934   4.426   3.309  0.0479 -0.8743  0.0144
    6MOL   H341 2051   0.786   4.405   3.228 -0.5515  0.4036  0.3102
    6MOL   H342 2052   0.939   4.414   3.131 -0.9425  0.2483 -0.0531
    7MOL     C1 2053   0.842   2.703   4.089 -0.3766 -0.0941  0.4241
    7MOL     C2 2054   0.809   2.689   4.234 -0.4028 -0.3635 -0.3422
    7MOL     C3 2055   0.924   2.688   4.327  0.5574  0.0485  0.0150
    7MOL     C4 2056   0.890   2.672   4.469  0.4920  1.1797 -0.0364
    7MOL     C5 2057   0.760   2.659   4.511  0.6460 -0.2318  0.0688
    7MOL     O6 2058   0.727   2.631   4.639  0.3470  0.6487  0.0240
    7MOL     C7 2059   0.655   2.673   4.420  0.0366  0.8475  0.2029
    7MOL     C8 2060   0.678   2.693   4.283 -0.6286  0.9522 -0.1336
    7MOL     C9 2061   0.901   2.580   4.023  0.4143  0.3275  0.0572
    7MOL    H10 2062   0.749   2.730   4.039 -1.0217  2.7757  3.0701
    7MOL    H11 2063   1.026   2.700   4.294 -0.2852  2.1216 -1.9556
    7MOL    H12 2064   0.972   2.658   4.539 -2.4036 -0.9774  3.1191
    7MOL    H13 2065   0.801   2.607   4.694  0.9199 -2.1951 -1.8519
    7MOL    H14 2066   0.553   2.657   4.453 -0.2558  1.1508 -0.5238
    7MOL    H15 2067   0.595   2.683   4.215 -1.5119 -0.0217  1.0763
    7MOL    H16 2068   0.841   2.495   4.055  1.0402 -0.8763 -1.8547
    7MOL    H17 2069   1.002   2.567   4.061  0.6541  2.7853  0.3648
    7MOL    H18 2070   0.909   2.789   4.081  0.4740 -0.7129  0.7612
    7MOL    C19 2071   0.887   2.594   3.876 -0.3132 -0.0884  0.4445
    7MOL    C20 2072   0.902   2.455   3.809 -0.5099 -0.3144  0.8320
    7MOL    C21 2073   0.792   2.393   3.743  0.4973 -0.3979 -0.1155
    7MOL    C22 2074   0.810   2.283   3.662  0.3912  0.5427 -0.1207
    7MOL    C23 2075   0.939   2.222   3.652  0.0513 -0.1056  0.2551
    7MOL    O24 2076   0.943   2.111   3.574 -0.3474  0.2440 -0.3468
    7MOL    C25 2077   1.045   2.278   3.728 -0.4624 -0.4078 -0.8315
    7MOL    C26 2078   1.029   2.395   3.802 -0.0519 -0.3336  0.2732
    7MOL    C27 2079   0.980   2.698   3.798 -0.1720  0.5807 -0.0365
    7MOL    H28 2080   0.781   2.614   3.859  0.0580  1.0102 -0.6119
    7MOL    H29 2081   0.694   2.437   3.740 -0.3399 -2.3620 -3.1864
    7MOL    H30 2082   0.723   2.239   3.614  1.9873  0.3161 -2.9354
    7MOL    H31 2083   0.865   2.108   3.522  0.1728  1.5830 -1.2143
    7MOL    H32 2084   1.143   2.232   3.735 -0.9710 -1.2853  1.0170
    7MOL    H33 2085   1.119   2.441   3.843 -0.4031  0.5999  0.0023
    7MOL    H34 2086   1.082   2.661   3.790 -0.5766 -0.9915  1.5855
    7MOL    H35 2087   0.986   2.786   3.862 -1.9536 -1.0762  2.5199
    7MOL    C36 2088   0.932   2.717   3.650 -0.1716 -0.0516  0.9358
    7MOL    C37 2089   1.038   2.789   3.568  0.2041  0.0700  0.7759
    7MOL    C38 2090   1.116   2.710   3.483 -0.6835  0.6033  0.0215
    7MOL    C39 2091   1.228   2.762   3.422  0.0021 -0.1600 -0.4756
    7MOL    C40 2092   1.271   2.900   3.444  0.5636 -0.1514  0.1688
    7MOL    O41 2093   1.385   2.948   3.390 -0.3450 -0.8373 -0.2160
    7MOL    C42 2094   1.188   2.973   3.533 -1.1031 -0.0171  0.0052
    7MOL    C43 2095   1.073   2.923   3.593  0.6455 -0.4337 -0.7397
    7MOL    C44 2096   0.795   2.793   3.645  0.4653  0.1279 -0.0939
    7MOL    H45 2097   0.917   2.619   3.603  0.4905  2.1485 -4.2469
    7MOL    H46 2098   1.086   2.607   3.471  0.4202  0.0548  1.8108
    7MOL    H47 2099   1.299   2.704   3.365  2.5977  2.2281  0.2088
    7MOL    H48 2100   1.408   3.029   3.433  0.3708 -1.7996  1.2872
    7MOL    H49 2101   1.234   3.068   3.558 -1.0130 -0.2835  0.8797
    7MOL    H50 2102   1.015   2.982   3.664  0.1115 -3.0160  1.0426
    7MOL    H51 2103   0.731   2.717   3.689  0.5589 -0.5950 -1.1900
    7MOL    H52 2104   0.802   2.883   3.706 -2.6647  1.2688 -1.3221
    7MOL    C53 2105   0.739   2.832   3.502  0.0553  0.1916 -0.1167
    7MOL    C54 2106   0.728   2.709   3.409  0.1299  0.3446 -0.4653
    7MOL    C55 2107   0.806   2.693   3.295 -0.3069  0.7404  0.0467
    7MOL    C56 2108   0.794   2.582   3.210 -0.0175  0.2782  0.6734
    7MOL    C57 2109   0.692   2.494   3.229 -0.4592 -0.1300 -0.0790
    7MOL    O58 2110   0.665   2.385   3.145  0.1458 -0.4431  1.1382
    7MOL    C59 2111   0.617   2.494   3.347  1.1267 -0.0358  0.0274
    7MOL    C60 2112   0.643   2.600   3.435  0.8905 -0.8883 -0.3353
    7MOL    C61 2113   0.605   2.899   3.518  0.4052  0.1756 -0.4898
    7MOL    H62 2114   0.808   2.905   3.458  0.0878  0.9189  1.1222
    7MOL    H63 2115   0.880   2.769   3.275  1.5506 -1.5424 -2.1406
    7MOL    H64 2116   0.865   2.568   3.130 -1.4184 -4.0865  0.0716
    7MOL    H65 2117   0.717   2.376   3.067  0.3915 -1.2176  1.3852
    7MOL    H66 2118   0.547   2.416   3.372  1.0835  0.4418  1.4169
    7MOL    H67 2119   0.581   2.602   3.523  1.1223 -2.5684 -0.1135
    7MOL    H68 2120   0.604   2.972   3.599  0.0560  1.3233 -1.5172
    7MOL    H69 2121   0.537   2.820   3.551  1.5111 -0.2480  0.8187
    7MOL    C70 2122   0.547   2.979   3.395  0.4435  0.2139 -0.3318
    7MOL    C71 2123   0.629   3.104   3.368 -0.5769 -0.8208  0.0594
    7MOL    C72 2124   0.610   3.218   3.442 -0.9773  0.0508 -0.0330
    7MOL    C73 2125   0.678   3.337   3.406  0.1464  0.7017 -0.1621
    7MOL    C74 2126   0.752   3.339   3.288  0.3983  0.2105  0.1422
    7MOL    O75 2127   0.807   3.460   3.257 -0.2184  0.3571  0.4805
    7MOL    C76 2128   0.770   3.224   3.212  0.2812 -0.3675 -0.1888
    7MOL    C77 2129   0.699   3.105   3.248 -0.3483 -0.5222  0.5616
    7MOL    C78 2130   0.403   3.006   3.416 -0.0462 -0.6840  0.1887
    7MOL    H79 2131   0.559   2.922   3.303 -0.7180 -1.7178  0.6865
    7MOL    H80 2132   0.548   3.219   3.531 -1.1147 -0.9750 -0.1203
    7MOL    H81 2133   0.676   3.425   3.469 -0.7565 -0.4524  1.4726
    7MOL    H82 2134   0.834   3.469   3.167 -0.6907 -1.2254  0.1603
    7MOL    H83 2135   0.818   3.224   3.115 -1.5109  0.1242 -1.1135
    7MOL    H84 2136   0.699   3.019   3.183 -2.1508 -1.3527  1.6337
    7MOL    H85 2137   0.362   3.087   3.355 -0.3306 -0.1140  1.1199
    7MOL    H86 2138   0.385   3.034   3.520  0.2504 -0.9654  0.3168
    7MOL    C87 2139   0.320   2.885   3.380 -0.0152 -0.7639 -0.8631
    7MOL    C88 2140   0.305   2.877   3.228 -0.6573  0.7066  0.1100
    7MOL    C89 2141   0.367   2.773   3.154 -0.2372  0.7306  0.0688
    7MOL    C90 2142   0.346   2.758   3.016  0.4855 -0.2903 -0.2445
    7MOL    C91 2143   0.255   2.845   2.951 -0.7068 -0.3762 -0.1534
    7MOL    O92 2144   0.229   2.832   2.824 -0.4681  0.1538 -0.9717
    7MOL    C93 2145   0.194   2.951   3.024 -0.3415 -0.6786 -0.2372
    7MOL    C94 2146   0.225   2.967   3.164  0.3438 -0.0377 -0.2534
    7MOL    C95 2147   0.183   2.882   3.450  0.5525 -0.2201  0.2838
    7MOL    H96 2148   0.379   2.799   3.412  0.3840 -0.1752 -0.0136
    7MOL    H97 2149   0.432   2.704   3.207  1.3364  2.3481  0.2995
    7MOL    H98 2150   0.397   2.676   2.967 -1.6337 -0.4367 -2.2729
    7MOL    H99 2151   0.249   2.740   2.812 -1.0625 -0.2469  0.9449
    7MOL   H100 2152   0.127   3.017   2.972  0.9867  2.3145  1.7046
    7MOL   H101 2153   0.170   3.050   3.207 -0.6581 -0.6451 -0.3497
    7MOL   H102 2154   0.195   2.891   3.558 -0.8485  1.6745  0.3154
    7MOL   H103 2155   0.133   2.975   3.421 -0.4756 -0.3160  1.6684
    7MOL   C104 2156   0.095   2.760   3.415  0.2640  0.4374  0.0049
    7MOL   C105 2157   7.983   2.799   3.440 -0.4618  1.1468 -0.0382
    7MOL   C106 2158   7.938   2.787   3.571  0.4143 -0.1015 -0.0748
    7MOL   C107 2159   7.804   2.818   3.607  0.4429  0.2264 -0.0362
    7MOL   C108 2160   7.723   2.876   3.509 -0.1158  0.1881  0.1608
    7MOL   O109 2161   7.615   2.945   3.551  0.3016 -0.0330  0.5304
    7MOL   C110 2162   7.770   2.893   3.376  0.2774 -0.3028  0.0853
    7MOL   C111 2163   7.899   2.851   3.339 -0.4143  0.7978 -0.3599
    7MOL   C112 2164   0.145   2.622   3.476 -0.2515  0.3409 -0.0486
    7MOL   H113 2165   0.124   2.750   3.311  0.9251  0.2958  0.1978
    7MOL   H114 2166   7.999   2.751   3.653 -0.3965  0.1633  0.6506
    7MOL   H115 2167   7.774   2.808   3.711  1.4057 -1.4748  0.0982
    7MOL   H116 2168   7.593   2.950   3.643 -1.7902  1.0567  0.0111
    7MOL   H117 2169   7.703   2.932   3.301  1.8384  3.5688  0.6064
    7MOL   H118 2170   7.929   2.846   3.235  0.5405  2.7387 -0.2015
    7MOL   H119 2171   0.084   2.588   3.560  0.5620 -1.2118 -0.0806
    7MOL   H120 2172   0.248   2.638   3.510 -0.8704  1.3972  1.4248
    7MOL   C121 2173   0.139   2.513   3.378 -0.0063  1.4372 -0.4021
    7MOL   C122 2174   0.201   2.382   3.426  0.5807 -0.5526  0.0541
    7MOL   C123 2175   0.136   2.316   3.541 -0.1114  0.4509  0.6868
    7MOL   C124 2176   0.196   2.200   3.593 -0.7473 -0.6765  0.7642
    7MOL   C125 2177   0.319   2.154   3.538  0.1009 -0.0343 -0.1434
    7MOL   O126 2178   0.382   2.048   3.596 -0.0850  0.4611 -0.3523
    7MOL   C127 2179   0.375   2.203   3.418 -0.2297 -0.2272  0.4743
    7MOL   C128 2180   0.315   2.321   3.364 -0.5357  0.0260  0.8333
    7MOL   C129 2181   8.037   2.489   3.307  0.2918 -0.0566 -0.0001
    7MOL   H130 2182   0.211   2.539   3.300  0.7918 -1.3897 -0.6739
    7MOL   H131 2183   0.046   2.349   3.591  0.0668  2.4831 -0.2896
    7MOL   H132 2184   0.155   2.171   3.689 -2.4101 -1.0915 -0.0544
    7MOL   H133 2185   0.356   2.026   3.684  0.6475 -0.0736 -0.2629
    7MOL   H134 2186   0.467   2.160   3.382  0.8325  2.6543 -0.3642
    7MOL   H135 2187   0.353   2.361   3.271  0.2238  0.9291  1.5383
    7MOL   H136 2188   7.989   2.579   3.269  1.0331  0.2941 -0.1229
    7MOL   H137 2189   7.978   2.446   3.388 -0.0562 -1.2704 -0.8825
    7MOL   C138 2190   8.035   2.374   3.204  1.0018  0.7505  1.0591
    7MOL   C139 2191   0.068   2.418   3.071 -0.4084 -0.3452 -0.6604
    7MOL   C140 2192   0.194   2.374   3.043  0.4700 -0.1135  0.0389
    7MOL   C141 2193   0.272   2.423   2.936  0.0989  0.2254 -0.4986
    7MOL   C142 2194   0.206   2.502   2.839 -0.0970 -0.4290  0.2720
    7MOL   O143 2195   0.272   2.554   2.734  0.0904  0.4756  0.3095
    7MOL   C144 2196   0.073   2.540   2.859  0.8725  0.0672  0.2153
    7MOL   C145 2197   0.004   2.497   2.973  0.1519 -0.4752 -0.6161
    7MOL   C146 2198   7.892   2.320   3.177 -0.1661  1.2449  0.0124
    7MOL   H147 2199   0.051   2.288   3.242  0.9586  1.0794  1.8735
    7MOL   H148 2200   0.238   2.317   3.124 -2.1029  1.9874  3.0292
    7MOL   H149 2201   0.370   2.380   2.926 -0.2688 -1.0625  1.1863
    7MOL   H150 2202   0.358   2.519   2.714 -1.1028 -0.9543 -2.6971
    7MOL   H151 2203   0.022   2.602   2.787  0.0545  1.4446  1.9501
    7MOL   H152 2204   7.938   2.521   2.992  0.3263 -0.7527  0.7039
    7MOL   H153 2205   7.884   2.299   3.070  2.0369  3.6860 -0.7050
    7MOL   H154 2206   7.820   2.400   3.187  0.4181  1.7393  0.3008
    7MOL   C155 2207   7.858   2.197   3.262  1.4872  0.3848 -0.8236
    7MOL   C156 2208   7.933   2.074   3.207  0.8627 -0.0286  0.7260
    7MOL   C157 2209   8.026   2.006   3.289 -0.6455  0.9011  0.3915
    7MOL   C158 2210   0.044   1.882   3.244  0.1305 -0.1495  0.0852
    7MOL   C159 2211   0.022   1.833   3.120  0.3248 -0.1685 -0.4110
    7MOL   O160 2212   0.075   1.712   3.073  0.2382  0.2824 -0.4528
    7MOL   C161 2213   7.975   1.906   3.036 -0.6149  0.0578  0.1203
    7MOL   C162 2214   7.905   2.023   3.078 -0.1094 -0.8146 -0.7858
    7MOL   C163 2215   7.707   2.170   3.284 -0.8312 -0.3813  0.0690
    7MOL   H164 2216   7.903   2.219   3.359 -0.0462 -0.3696  0.0798
    7MOL   H165 2217   0.017   2.049   3.384  2.2459  0.0002 -0.0108
    7MOL   H166 2218   0.103   1.827   3.317  0.8273  1.3636  0.6879
    7MOL   H167 2219   0.159   1.687   3.108 -0.5408 -0.6834  0.7965
    7MOL   H168 2220   7.960   1.869   2.936  0.4191  0.6842 -0.2684
    7MOL   H169 2221   7.829   2.062   3.012 -0.6296  0.8767  0.7492
    7MOL   H170 2222   7.696   2.065   3.313  0.6783 -0.6488 -0.2769
    7MOL   H171 2223   7.661   2.167   3.185  1.8834  1.1832 -1.2951
    7MOL   C172 2224   7.631   2.266   3.381 -0.9624  0.1369  0.1479
    7MOL   C173 2225   7.686   2.281   3.522 -0.4326  0.2987  0.6295
    7MOL   C174 2226   7.700   2.412   3.571  0.9489  0.2524  0.1334
    7MOL   C175 2227   7.728   2.435   3.709 -0.0661 -0.7168 -0.0578
    7MOL   C176 2228   7.752   2.328   3.787  0.6320  0.0705 -0.7901
    7MOL   O177 2229   7.765   2.346   3.920  0.4669 -0.1397 -1.0971
    7MOL   C178 2230   7.755   2.195   3.740  0.4795 -0.5548 -0.1300
    7MOL   C179 2231   7.707   2.175   3.609 -0.4905 -0.3814 -0.0302
    7MOL   C180 2232   7.480   2.242   3.382 -0.4720  0.6494 -0.2368
    7MOL   H181 2233   7.641   2.361   3.329 -1.2135  1.1001  1.8177
    7MOL   H182 2234   7.683   2.501   3.513 -0.3267  0.8184  1.3577
    7MOL   H183 2235   7.723   2.539   3.740 -0.6275 -1.1988  1.5088
    7MOL   H184 2236   7.772   2.273   3.980  1.1920  1.8789  1.3878
    7MOL   H185 2237   7.760   2.113   3.811 -1.4618  0.0081  0.6824
    7MOL   H186 2238   7.691   2.071   3.584  0.3640 -0.0052 -2.3345
    7MOL   H187 2239   7.465   2.172   3.464 -2.8747  0.9933 -0.3512
    7MOL   H188 2240   7.448   2.193   3.290 -1.3754 -0.4052  0.6195
    7MOL   C189 2241   7.400   2.370   3.414  0.4470 -0.8319  0.1112
    7MOL   C190 2242   7.418   2.492   3.321  0.1999  0.6334  0.3028
    7MOL   C191 2243   7.448   2.620   3.377 -0.2615 -0.8229  0.1154
    7MOL   C192 2244   7.469   2.724   3.285  0.0241 -0.0806 -0.1982
    7MOL   C193 2245   7.457   2.705   3.145 -0.2504  0.4144 -1.6236
    7MOL   O194 2246   7.487   2.808   3.068  0.2810  0.8633  0.2306
    7MOL   C195 2247   7.433   2.578   3.094 -0.2304 -0.1665 -0.0682
    7MOL   C196 2248   7.417   2.470   3.180  0.3964  0.2015  0.7179
    7MOL   C197 2249   7.247   2.336   3.420 -0.8131 -0.7760 -0.0863
    7MOL   H198 2250   7.429   2.400   3.514 -3.6408  0.0995  1.1026
    7MOL   H199 2251   7.468   2.646   3.480  0.2270 -0.6411 -0.0261
    7MOL   H200 2252   7.506   2.820   3.318  0.9188  0.4672 -2.6933
    7MOL   H201 2253   7.498   2.780   2.978 -4.8828  0.2774 -0.3580
    7MOL   H202 2254   7.415   2.573   2.988  2.0916  1.1839 -0.5641
    7MOL   H203 2255   7.408   2.369   3.145  0.3039  1.0281 -1.7240
    7MOL   H204 2256   7.237   2.239   3.467  1.9116 -0.0876  2.0020
    7MOL   H205 2257   7.208   2.321   3.319 -0.0174  2.0552 -0.8539
    7MOL   C206 2258   7.151   2.439   3.499 -0.2667 -0.3955 -0.3406
    7MOL   C207 2259   7.208   2.464   3.645 -0.4818  0.5978  0.0253
    7MOL   C208 2260   7.219   2.362   3.733  0.0373 -0.2512  0.0664
    7MOL   C209 2261   7.282   2.386   3.861  0.8544  0.5688  0.1549
    7MOL   C210 2262   7.315   2.513   3.903 -0.0048  0.5981 -0.0407
    7MOL   O211 2263   7.365   2.535   4.027 -0.0193 -0.0890  0.1426
    7MOL   C212 2264   7.295   2.620   3.812 -0.5191  0.3928 -0.9410
    7MOL   C213 2265   7.252   2.594   3.684 -0.6829  0.0800 -0.2400
    7MOL   C214 2266   7.008   2.388   3.505  0.4683  0.2753 -0.6078
    7MOL   H215 2267   7.161   2.535   3.449 -0.9810 -0.8473 -1.3732
    7MOL   H216 2268   7.182   2.268   3.696  2.9394 -0.5140 -2.4200
    7MOL   H217 2269   7.285   2.306   3.933  0.9453  0.6354  0.2242
    7MOL   H218 2270   7.370   2.624   4.059 -1.0321  0.1938 -0.4585
    7MOL   H219 2271   7.333   2.718   3.835  0.1648  0.0322 -0.5432
    7MOL   H220 2272   7.241   2.674   3.612  3.2613  1.2452  0.3312
    7MOL   H221 2273   7.007   2.309   3.580  1.5185  0.5562 -0.2842
    7MOL   H222 2274   6.978   2.352   3.406 -0.6716  0.1486 -0.2155
    7MOL   C223 2275   6.908   2.499   3.533  0.0204  0.8966  0.1605
    7MOL   C224 2276   6.777   2.436   3.575 -0.4892 -0.5979 -1.1460
    7MOL   C225 2277   6.745   2.441   3.714 -0.1153 -0.1548  0.2395
    7MOL   C226 2278   6.619   2.396   3.759  0.1913 -0.9349 -0.3232
    7MOL   C227 2279   6.533   2.343   3.663 -0.3647  0.8868 -1.0776
    7MOL   O228 2280   6.402   2.314   3.692  1.1160 -0.3635  0.2191
    7MOL   C229 2281   6.564   2.327   3.529 -0.1060 -0.0936 -0.1078
    7MOL   C230 2282   6.692   2.369   3.489  0.1161 -0.1613  0.0464
    7MOL   C231 2283   6.879   2.589   3.410  1.0334 -0.0659 -0.1095
    7MOL   H232 2284   6.936   2.557   3.621 -1.1894  0.5197  0.8041
    7MOL   H233 2285   6.816   2.475   3.788  0.6763  2.5236 -1.6826
    7MOL   H234 2286   6.595   2.406   3.864  0.3289 -3.6561  0.0100
    7MOL   H235 2287   6.381   2.329   3.783  0.6366 -0.7300  0.1694
    7MOL   H236 2288   6.494   2.300   3.452 -1.6453  0.5579  1.0193
    7MOL   H237 2289   6.710   2.368   3.383 -0.1827  0.8453 -0.0087
    7MOL   H238 2290   6.967   2.633   3.362 -0.0160  3.0112  0.6799
    7MOL   H239 2291   6.839   2.533   3.326 -0.6244  1.3219 -0.2740
    7MOL   C240 2292   6.790   2.715   3.449  0.7811 -0.4740 -0.1901
    7MOL   C241 2293   6.865   2.808   3.549  0.6131 -0.3323  0.3704
    7MOL   C242 2294   6.810   2.828   3.681  0.0702 -0.4422 -0.1114
    7MOL   C243 2295   6.888   2.897   3.777  0.3456 -0.2025 -0.4966
    7MOL   C244 2296   7.012   2.952   3.744  0.3762  0.3623 -0.2144
    7MOL   O245 2297   7.094   2.993   3.844  0.3495 -0.3635  0.6127
    7MOL   C246 2298   7.065   2.934   3.614 -0.0660  0.1398 -0.3021
    7MOL   C247 2299   6.986   2.862   3.519  0.8058 -0.2469  0.4436
    7MOL   C248 2300   6.751   2.794   3.320  0.5817 -0.0556 -0.2943
    7MOL   H249 2301   6.699   2.684   3.500  1.0431  0.5385  0.9059
    7MOL   H250 2302   6.712   2.788   3.704  0.6512 -2.0357 -0.3679
    7MOL   H251 2303   6.852   2.916   3.877  0.8361 -0.6499 -0.2286
    7MOL   H252 2304   7.177   3.034   3.823  0.8189 -0.7562  1.6846
    7MOL   H253 2305   7.166   2.966   3.590 -0.2751 -0.7230 -2.4743
    7MOL   H254 2306   7.024   2.847   3.419  2.0605  0.2947  0.8280
    7MOL   H255 2307   6.829   2.835   3.256  1.0169 -2.2720 -1.2371
    7MOL   H256 2308   6.728   2.725   3.239  1.2428  0.7338 -1.1775
    7MOL   C257 2309   6.635   2.886   3.342 -0.3114  0.0723  0.3902
    7MOL   C258 2310   6.668   3.027   3.300  0.4194 -0.0594  0.1009
    7MOL   C259 2311   6.671   3.061   3.165 -0.5826  0.3388 -0.2851
    7MOL   C260 2312   6.690   3.191   3.119  0.0209 -0.3973  1.0441
    7MOL   C261 2313   6.721   3.292   3.212 -0.0634 -1.0600  0.0784
    7MOL   O262 2314   6.748   3.421   3.171 -0.1202  0.6880  0.5709
    7MOL   C263 2315   6.728   3.263   3.349 -0.2209  1.1828 -0.1544
    7MOL   C264 2316   6.689   3.132   3.394  0.3902  0.1357  0.3482
    7MOL   C265 2317   6.509   2.839   3.259 -0.2537 -0.0424 -0.3059
    7MOL   H266 2318   6.616   2.895   3.449  1.2697  1.1891  0.5845
    7MOL   H267 2319   6.653   2.988   3.087  0.9547  0.4426 -0.7418
    7MOL   H268 2320   6.688   3.207   3.012  2.1761 -1.9386  0.7290
    7MOL   H269 2321   6.791   3.467   3.241 -2.8631 -1.4134  3.8056
    7MOL   H270 2322   6.747   3.336   3.426  0.9727 -0.8048  1.4596
    7MOL   H271 2323   6.683   3.103   3.497 -0.1567  0.5079  0.4256
    7MOL   H272 2324   6.458   2.754   3.305  0.1575 -1.1900 -1.9371
    7MOL   H273 2325   6.531   2.801   3.159 -0.3671 -0.6609 -0.1006
    7MOL   C274 2326   6.398   2.944   3.226 -0.5637 -0.0148  0.1696
    7MOL   C275 2327   6.356   3.032   3.344 -0.4861  0.1209 -0.3681
    7MOL   C276 2328   6.299   2.984   3.464 -0.3751  0.0329  0.2714
    7MOL   C277 2329   6.272   3.079   3.558 -0.3137 -0.3377 -0.3142
    7MOL   C278 2330   6.293   3.217   3.543 -0.2128  0.7607 -0.4671
    7MOL   O279 2331   6.262   3.296   3.648  0.3475  0.3063  0.2995
    7MOL   C280 2332   6.358   3.265   3.426  0.2945 -0.2857  0.4568
    7MOL   C281 2333   6.380   3.172   3.329 -0.3121 -0.3887  0.4926
    7MOL   C282 2334   6.270   2.882   3.164 -0.7144 -0.0411 -0.7120
    7MOL   H283 2335   6.431   3.006   3.142  1.1021 -0.8969  0.1644
    7MOL   H284 2336   6.287   2.878   3.476  1.0938 -0.1835 -0.0188
    7MOL   H285 2337   6.224   3.042   3.647  0.9783 -1.8061 -0.2010
    7MOL   H286 2338   6.342   3.345   3.654  0.7118 -0.2885  0.3252
    7MOL   H287 2339   6.380   3.366   3.397 -1.6436 -1.0115 -3.9957
    7MOL   H288 2340   6.412   3.212   3.234  0.1584 -0.8885  0.4332
    7MOL   H289 2341   6.215   2.830   3.243  1.6364 -1.0217  0.3095
    7MOL   H290 2342   6.202   2.960   3.131 -2.5705 -1.6373 -0.8297
    7MOL   C291 2343   6.289   2.780   3.047  0.2679 -0.1724 -0.4029
    7MOL   C292 2344   6.371   2.830   2.925 -0.3972 -0.3102 -0.2789
    7MOL   C293 2345   6.320   2.931   2.841 -0.2510  1.3367 -0.0632
    7MOL   C294 2346   6.377   2.951   2.718 -1.0869 -0.0913 -0.3913
    7MOL   C295 2347   6.502   2.889   2.687  0.1870  0.3719  0.4386
    7MOL   O296 2348   6.556   2.921   2.570  0.3703  0.1490 -0.1597
    7MOL   C297 2349   6.561   2.797   2.773  0.0984  0.0929 -0.3050
    7MOL   C298 2350   6.496   2.772   2.894  0.2815 -0.1269  0.4375
    7MOL   C299 2351   6.162   2.704   3.013  0.0885  0.2133  0.1541
    7MOL   H300 2352   6.356   2.703   3.087  2.3696  2.1442  0.6683
    7MOL   H301 2353   6.223   2.977   2.852 -0.1122  1.6308 -0.0695
    7MOL   H302 2354   6.331   3.021   2.650  1.4978  1.9334 -0.1399
    7MOL   H303 2355   6.511   2.963   2.499  0.2440 -0.8808 -0.6946
    7MOL   H304 2356   6.664   2.766   2.766  0.0082 -0.3134  0.1717
    7MOL   H305 2357   6.533   2.698   2.963  2.1475 -1.4926 -1.9363
    7MOL   H306 2358   6.150   2.680   2.907  1.3998  3.4036 -0.7628
    7MOL   H307 2359   6.080   2.773   3.033  0.9952  1.2062  0.4933
    7MOL   C308 2360   6.142   2.586   3.098 -0.0540 -0.6605  1.0488
    7MOL   C309 2361   6.235   2.467   3.063 -0.1686 -0.0561  0.2336
    7MOL   C310 2362   6.346   2.443   3.144  1.1414 -0.2882 -0.5621
    7MOL   C311 2363   6.426   2.332   3.123  0.1571 -0.6319 -0.2780
    7MOL   C312 2364   6.393   2.237   3.016  0.1969 -0.7037 -0.8067
    7MOL   O313 2365   6.478   2.140   2.981 -0.3419  0.3990  0.0008
    7MOL   C314 2366   6.280   2.257   2.933 -0.1337 -0.3613  0.0927
    7MOL   C315 2367   6.206   2.377   2.956  0.4455 -0.0805 -0.0745
    7MOL   C316 2368   5.987   2.557   3.092  0.5991 -0.0741  0.1659
    7MOL   H317 2369   6.167   2.610   3.201  1.1242  2.4723  0.0820
    7MOL   H318 2370   6.363   2.512   3.225 -2.2556  1.9807 -1.6485
    7MOL   H319 2371   6.520   2.325   3.175  0.2358 -1.1329 -0.4881
    7MOL   H320 2372   6.540   2.133   3.052 -1.1829 -0.0385  0.7018
    7MOL   H321 2373   6.259   2.186   2.854  1.4300 -1.8007  0.9214
    7MOL   H322 2374   6.125   2.380   2.884  0.8275 -1.0240 -0.5562
    7MOL   H323 2375   5.961   2.508   2.998  1.4442 -1.2205  0.5140
    7MOL   H324 2376   5.929   2.649   3.089  1.5587  0.5108 -0.5565
    7MOL   C325 2377   5.930   2.477   3.218 -0.1162 -0.4899 -0.4675
    7MOL   C326 2378   5.992   2.340   3.243 -0.6280  0.3455  0.4481
    7MOL   C327 2379   6.063   2.301   3.357 -0.1677  0.0955  0.0058
    7MOL   C328 2380   6.129   2.177   3.361  0.1041  0.0532  0.1557
    7MOL   C329 2381   6.108   2.088   3.257  0.7419  0.4350 -0.1634
    7MOL   O330 2382   6.168   1.969   3.269 -0.3759  0.7189  0.2119
    7MOL   C331 2383   6.035   2.123   3.145  0.3240  0.6422  0.0326
    7MOL   C332 2384   5.982   2.253   3.132  1.2517  0.1505  0.0048
    7MOL   C333 2385   5.779   2.468   3.212 -0.1882  0.3861  0.8521
    7MOL   H334 2386   5.958   2.539   3.304 -1.4045 -1.5635  0.7585
    7MOL   H335 2387   6.072   2.377   3.433 -0.5379  0.3897 -0.2435
    7MOL   H336 2388   6.195   2.154   3.444  0.8156  1.2281 -0.0705
    7MOL   H337 2389   6.219   1.954   3.192  0.9491  1.3619  0.9342
    7MOL   H338 2390   6.030   2.063   3.056  0.6193  0.2172  0.2962
    7MOL   H339 2391   5.933   2.268   3.037  0.1040 -1.0985  0.3918
    7MOL   H340 2392   5.742   2.425   3.305  0.9999 -2.3411  0.1324
    7MOL   H341 2393   5.736   2.399   3.139 -1.5432  0.8639  1.1871
    7MOL   H342 2394   5.722   2.559   3.197  0.9062  0.8351 -0.6780
    8MOL     C1 2395   0.112   4.450   3.337 -0.3199  0.5904  0.0974
    8MOL     C2 2396   0.044   4.588   3.342 -0.0936  0.6429  0.6157
    8MOL     C3 2397   0.119   4.701   3.385  0.7785  0.6182  0.1563
    8MOL     C4 2398   0.066   4.832   3.368  0.1889 -0.1723 -0.4580
    8MOL     C5 2399   7.973   4.846   3.325  0.3189 -0.0210 -1.0013
    8MOL     O6 2400   7.928   4.972   3.296  0.5931  0.2219  0.0712
    8MOL     C7 2401   7.899   4.730   3.279  0.0221  0.3398  0.7554
    8MOL     C8 2402   7.955   4.601   3.290  0.2166 -0.1176  0.0438
    8MOL     C9 2403   0.233   4.446   3.239 -0.3823 -0.0008  0.1393
    8MOL    H10 2404   0.149   4.427   3.436 -1.1628 -1.8511 -0.1098
    8MOL    H11 2405   0.219   4.694   3.425  0.0214  1.4909  2.2623
    8MOL    H12 2406   0.121   4.923   3.385 -2.0507  1.2203 -0.3790
    8MOL    H13 2407   7.837   4.980   3.273  0.4304 -1.8854 -0.0480
    8MOL    H14 2408   7.800   4.740   3.236  1.0776  0.1032 -1.8418
    8MOL    H15 2409   7.901   4.519   3.245  2.0887 -0.1695 -2.2222
    8MOL    H16 2410   0.293   4.535   3.254  2.1214 -1.8339  1.2922
    8MOL    H17 2411   0.207   4.455   3.133 -0.3070 -3.2063 -0.1931
    8MOL    H18 2412   0.039   4.371   3.315 -0.3367  1.3798 -3.0314
    8MOL    C19 2413   0.327   4.325   3.265 -0.0736 -0.5151 -0.6762
    8MOL    C20 2414   0.396   4.340   3.399  0.1831  0.3911 -0.0448
    8MOL    C21 2415   0.510   4.414   3.410 -0.0336  0.1125  0.0573
    8MOL    C22 2416   0.595   4.415   3.522  0.5697  0.1011 -0.0209
    8MOL    C23 2417   0.562   4.337   3.632  0.8400  0.5183  0.5984
    8MOL    O24 2418   0.652   4.331   3.731  0.0538  0.0611 -0.5114
    8MOL    C25 2419   0.439   4.266   3.634 -0.0274 -0.1053 -0.3184
    8MOL    C26 2420   0.355   4.273   3.518  0.7734 -0.4636  0.6099
    8MOL    C27 2421   0.433   4.326   3.146  0.6196  0.0328 -0.0400
    8MOL    H28 2422   0.273   4.231   3.267 -1.7360  0.3920 -1.5221
    8MOL    H29 2423   0.545   4.479   3.331 -1.5311 -0.4424 -1.0802
    8MOL    H30 2424   0.691   4.466   3.524  2.1111 -2.7153  2.1350
    8MOL    H31 2425   0.738   4.367   3.718  0.0302 -0.2095 -1.4535
    8MOL    H32 2426   0.411   4.214   3.724 -1.7406  1.8298  0.3066
    8MOL    H33 2427   0.261   4.220   3.509 -0.5931  2.0205 -0.0753
    8MOL    H34 2428   0.528   4.275   3.162 -0.2199 -1.0242  1.6574
    8MOL    H35 2429   0.477   4.425   3.139 -2.1895  1.3816  0.6887
    8MOL    C36 2430   0.384   4.301   3.004  0.2272  0.5268  0.2167
    8MOL    C37 2431   0.297   4.178   2.983  0.3208 -0.6029 -0.4063
    8MOL    C38 2432   0.164   4.191   2.934  0.1933  0.1806  0.6499
    8MOL    C39 2433   0.085   4.077   2.911 -0.0600 -0.0434 -1.0543
    8MOL    C40 2434   0.138   3.953   2.945  0.7398  0.0247 -0.1403
    8MOL    O41 2435   0.058   3.844   2.945 -0.0463  0.6094 -0.1447
    8MOL    C42 2436   0.267   3.938   2.991 -1.0855  0.0437 -0.5723
    8MOL    C43 2437   0.343   4.051   3.009 -0.9721 -0.4586 -0.1253
    8MOL    C44 2438   0.506   4.298   2.905 -0.3400  0.3652  0.2363
    8MOL    H45 2439   0.321   4.382   2.968  1.6724  0.7648 -1.8607
    8MOL    H46 2440   0.117   4.285   2.910  1.3639  0.3933 -0.8425
    8MOL    H47 2441   8.020   4.077   2.878 -1.8634 -2.7245  4.0959
    8MOL    H48 2442   0.104   3.777   2.994 -1.6369 -0.7131 -0.4250
    8MOL    H49 2443   0.312   3.841   3.008 -2.1200 -0.8025 -2.5003
    8MOL    H50 2444   0.443   4.029   3.045 -1.1660 -1.4835 -0.2222
    8MOL    H51 2445   0.569   4.214   2.936  1.6063  0.2090 -3.8456
    8MOL    H52 2446   0.467   4.261   2.810  2.4086 -2.0536 -0.0319
    8MOL    C53 2447   0.578   4.431   2.877 -0.0388  0.1590  0.4159
    8MOL    C54 2448   0.694   4.410   2.776 -0.7396  0.7429  0.6212
    8MOL    C55 2449   0.824   4.424   2.828  0.1313  0.2448  0.0901
    8MOL    C56 2450   0.937   4.395   2.749 -0.6586  0.2662 -0.8659
    8MOL    C57 2451   0.922   4.357   2.613 -0.0719 -0.2279 -1.0512
    8MOL    O58 2452   1.032   4.329   2.539  0.1477  0.5327 -0.1891
    8MOL    C59 2453   0.791   4.348   2.559  0.7629  0.0037 -0.2915
    8MOL    C60 2454   0.678   4.370   2.644 -0.3116 -0.0698 -1.1125
    8MOL    C61 2455   0.482   4.552   2.827 -0.3168 -0.7440  0.2915
    8MOL    H62 2456   0.633   4.458   2.967 -1.0679 -0.5494  1.2596
    8MOL    H63 2457   0.837   4.434   2.935  0.1010 -0.1605  0.1322
    8MOL    H64 2458   1.033   4.386   2.796 -0.9052  1.4517 -0.1148
    8MOL    H65 2459   1.113   4.335   2.587 -0.1552  2.6809  0.1259
    8MOL    H66 2460   0.776   4.323   2.455 -3.3689 -0.4091  0.3401
    8MOL    H67 2461   0.575   4.355   2.612 -0.6731  0.0376 -0.0096
    8MOL    H68 2462   0.381   4.545   2.867 -0.6472 -1.0865 -0.5967
    8MOL    H69 2463   0.479   4.539   2.719 -0.7514 -2.3617  0.4794
    8MOL    C70 2464   0.534   4.688   2.863 -0.2156 -0.2263  0.4504
    8MOL    C71 2465   0.581   4.701   3.005 -0.0595 -0.0868  0.3033
    8MOL    C72 2466   0.486   4.705   3.114 -0.1105 -0.3873  0.5152
    8MOL    C73 2467   0.529   4.727   3.243  0.9024  0.2974  0.0933
    8MOL    C74 2468   0.671   4.752   3.271 -0.2355 -0.4394  0.4482
    8MOL    O75 2469   0.703   4.780   3.400 -0.8933  0.6486 -0.0328
    8MOL    C76 2470   0.765   4.746   3.163  0.4283  0.0409 -0.2503
    8MOL    C77 2471   0.718   4.719   3.031 -0.2284  0.3950  0.1845
    8MOL    C78 2472   0.410   4.780   2.838 -0.9111  0.6989  0.0397
    8MOL    H79 2473   0.615   4.716   2.796 -2.2363  1.1310 -1.5524
    8MOL    H80 2474   0.381   4.692   3.094 -0.5004  1.3498  1.3570
    8MOL    H81 2475   0.461   4.735   3.326 -1.8468  0.0893 -2.0275
    8MOL    H82 2476   0.784   4.828   3.404 -0.9365  0.7087  0.1084
    8MOL    H83 2477   0.867   4.774   3.187 -0.3747  1.0020  2.2345
    8MOL    H84 2478   0.781   4.736   2.945  0.5336  0.1306  0.6824
    8MOL    H85 2479   0.333   4.745   2.906  3.0159 -2.9296  2.9243
    8MOL    H86 2480   0.370   4.769   2.737 -0.0108 -1.5961 -0.1124
    8MOL    C87 2481   0.424   4.926   2.873  0.7173  0.4362  0.1792
    8MOL    C88 2482   0.281   4.983   2.869 -0.5886  0.5014 -0.1605
    8MOL    C89 2483   0.227   5.018   2.995 -0.1833  0.1789  0.1303
    8MOL    C90 2484   0.091   5.064   3.000 -0.3390  0.6211 -0.1058
    8MOL    C91 2485   0.012   5.078   2.884  0.6707 -0.5289 -0.4225
    8MOL    O92 2486   7.916   5.111   2.893  0.0479  0.4878  0.2200
    8MOL    C93 2487   0.069   5.045   2.758  0.4124  0.0081  0.2083
    8MOL    C94 2488   0.206   4.997   2.753 -0.2704 -0.5380  0.5019
    8MOL    C95 2489   0.532   5.003   2.783 -0.5369  0.0835  0.4452
    8MOL    H96 2490   0.460   4.926   2.976  0.0754  0.5468  0.4062
    8MOL    H97 2491   0.280   4.998   3.087  1.3844 -0.3428 -0.8676
    8MOL    H98 2492   0.046   5.094   3.093  0.7646 -0.7767  0.8775
    8MOL    H99 2493   7.871   5.101   2.811 -2.1189  1.2476  1.2678
    8MOL   H100 2494   0.007   5.067   2.673 -1.5743  1.4564  1.9871
    8MOL   H101 2495   0.255   4.982   2.658  0.1986 -1.0896  0.8266
    8MOL   H102 2496   0.636   4.971   2.795 -0.2861  0.5368 -0.4823
    8MOL   H103 2497   0.503   4.989   2.679 -0.0027  3.8464 -0.2907
    8MOL   C104 2498   0.538   5.157   2.811  0.0450  0.1261  0.0037
    8MOL   C105 2499   0.625   5.222   2.702  0.5484 -0.3052  0.2801
    8MOL   C106 2500   0.562   5.279   2.590 -0.5034  0.8750  0.2254
    8MOL   C107 2501   0.645   5.325   2.484 -0.1606 -0.4677  0.1565
    8MOL   C108 2502   0.786   5.331   2.496  0.7382  0.7634  0.1639
    8MOL   O109 2503   0.852   5.379   2.392 -0.2819  0.0999 -0.0704
    8MOL   C110 2504   0.849   5.273   2.606  0.8734  0.9978  0.2592
    8MOL   C111 2505   0.770   5.222   2.710 -0.4447 -0.7246 -0.7316
    8MOL   C112 2506   0.592   5.206   2.946 -0.3403  0.0472  0.7255
    8MOL   H113 2507   0.437   5.191   2.787  0.2467  0.6309 -0.1363
    8MOL   H114 2508   0.454   5.284   2.594 -0.7880 -0.6084 -3.6281
    8MOL   H115 2509   0.615   5.362   2.386  0.3108 -2.7687 -0.8789
    8MOL   H116 2510   0.793   5.368   2.319 -1.1356  1.1919  0.4519
    8MOL   H117 2511   0.956   5.287   2.611  0.9410  0.0896  1.7237
    8MOL   H118 2512   0.828   5.179   2.791 -0.7137  1.3760  0.6054
    8MOL   H119 2513   0.698   5.186   2.957  0.0890  2.3032  0.9295
    8MOL   H120 2514   0.546   5.155   3.031 -2.4012  3.6556  1.8990
    8MOL   C121 2515   0.576   5.360   2.976  0.2963  0.9503  0.2076
    8MOL   C122 2516   0.434   5.400   2.972  0.7080 -0.8603 -0.5273
    8MOL   C123 2517   0.342   5.363   3.068 -0.6229  0.0126 -0.5779
    8MOL   C124 2518   0.203   5.401   3.064 -0.1390 -0.4426  1.0418
    8MOL   C125 2519   0.163   5.475   2.952 -0.1842 -0.5418 -0.3132
    8MOL   O126 2520   0.032   5.512   2.935  0.6061  0.6774  0.4058
    8MOL   C127 2521   0.253   5.524   2.858 -0.4529  0.5575  0.0376
    8MOL   C128 2522   0.390   5.485   2.865 -0.0978  0.4764  0.4821
    8MOL   C129 2523   0.639   5.400   3.111 -0.1524 -0.1292 -0.3303
    8MOL   H130 2524   0.634   5.404   2.895  0.8857 -4.0351 -2.2792
    8MOL   H131 2525   0.369   5.288   3.140 -0.5837 -0.5227 -1.1478
    8MOL   H132 2526   0.123   5.359   3.122 -0.0672 -0.0339  1.4336
    8MOL   H133 2527   8.021   5.485   3.011  0.8186  0.0920  0.3370
    8MOL   H134 2528   0.230   5.591   2.776  1.0301 -0.4754 -1.2619
    8MOL   H135 2529   0.462   5.506   2.788 -1.1778 -0.6394 -0.8761
    8MOL   H136 2530   0.744   5.370   3.115 -0.5190 -1.4524 -0.1455
    8MOL   H137 2531   0.593   5.337   3.187  2.5462 -1.8296 -0.0149
    8MOL   C138 2532   0.643   5.548   3.145  0.9052  1.1276 -0.3704
    8MOL   C139 2533   0.650   5.643   3.020  0.3256  0.3406 -1.2105
    8MOL   C140 2534   0.554   5.750   3.002 -0.4108 -0.7557  0.5515
    8MOL   C141 2535   0.556   5.835   2.900 -0.1029  0.5299  0.8705
    8MOL   C142 2536   0.651   5.810   2.796  0.2224 -0.3619 -0.5137
    8MOL   O143 2537   0.638   5.876   2.679  0.4343 -0.2337 -0.0222
    8MOL   C144 2538   0.757   5.716   2.813  0.1716 -0.2138 -0.1110
    8MOL   C145 2539   0.752   5.636   2.932 -0.5423 -0.0943  0.1231
    8MOL   C146 2540   0.739   5.571   3.266 -0.5808 -0.0327  0.4178
    8MOL   H147 2541   0.544   5.571   3.183  0.3053  0.3822 -1.4664
    8MOL   H148 2542   0.475   5.753   3.076  0.4325  0.1457  1.4406
    8MOL   H149 2543   0.480   5.910   2.887  0.7364  1.1423 -0.5927
    8MOL   H150 2544   0.611   5.817   2.610 -0.7018 -1.9160  1.8309
    8MOL   H151 2545   0.825   5.705   2.730 -1.3662 -1.2857 -1.2560
    8MOL   H152 2546   0.836   5.571   2.951  0.3338  1.1114  0.4456
    8MOL   H153 2547   0.745   5.679   3.276 -0.1948  0.2403 -2.3615
    8MOL   H154 2548   0.834   5.530   3.231 -1.2519 -0.2567 -1.2111
    8MOL   C155 2549   0.707   5.502   3.398 -0.0783  0.6312 -0.1607
    8MOL   C156 2550   0.750   5.362   3.404 -0.1504 -0.3414 -0.0052
    8MOL   C157 2551   0.890   5.345   3.402  0.1618 -0.2018  0.0357
    8MOL   C158 2552   0.951   5.215   3.406  0.0326 -0.0044 -0.3676
    8MOL   C159 2553   0.865   5.105   3.396  0.4629  0.2996 -0.1601
    8MOL   O160 2554   0.919   4.982   3.406  0.3326  0.1516 -0.1373
    8MOL   C161 2555   0.723   5.123   3.405  0.1038  0.7177  0.4850
    8MOL   C162 2556   0.665   5.253   3.408 -0.5982  0.1983 -0.1653
    8MOL   C163 2557   0.554   5.514   3.450 -0.2619 -0.3421 -0.0467
    8MOL   H164 2558   0.762   5.553   3.478 -1.4191  0.2709  1.0135
    8MOL   H165 2559   0.956   5.430   3.404  1.5189 -1.2564  1.3490
    8MOL   H166 2560   1.059   5.207   3.405 -0.0426 -1.0137 -1.7817
    8MOL   H167 2561   1.003   4.981   3.449  0.2993 -1.5077 -0.0879
    8MOL   H168 2562   0.671   5.029   3.407  0.6836  0.4030  0.7612
    8MOL   H169 2563   0.558   5.267   3.414 -0.4205  1.8601 -0.7465
    8MOL   H170 2564   0.539   5.465   3.546  0.5937 -0.8548 -0.1651
    8MOL   H171 2565   0.490   5.459   3.382  0.6223 -0.0441 -1.1442
    8MOL   C172 2566   0.496   5.661   3.467 -0.1963  0.3646 -0.0968
    8MOL   C173 2567   0.584   5.765   3.541 -0.5897 -0.1031 -0.0646
    8MOL   C174 2568   0.618   5.735   3.671 -0.4962 -0.2803 -0.4070
    8MOL   C175 2569   0.710   5.827   3.731 -0.5117  0.0400 -0.7730
    8MOL   C176 2570   0.755   5.944   3.660 -0.1635  0.3574 -0.4022
    8MOL   O177 2571   0.840   6.038   3.718  0.3367 -0.1052  1.2512
    8MOL   C178 2572   0.714   5.965   3.526 -0.3288 -0.9193 -0.0075
    8MOL   C179 2573   0.622   5.878   3.470 -0.0030  0.1446  0.0800
    8MOL   C180 2574   0.357   5.649   3.538 -0.6266  0.0923  0.8323
    8MOL   H181 2575   0.475   5.702   3.369 -2.1728  1.4358  0.7444
    8MOL   H182 2576   0.583   5.646   3.720 -0.1862 -1.0595 -1.5680
    8MOL   H183 2577   0.741   5.806   3.832  1.9447  3.0051 -0.8530
    8MOL   H184 2578   0.856   6.005   3.805  0.4731 -1.9676  0.5496
    8MOL   H185 2579   0.761   6.043   3.469 -0.4040  1.0267  2.4931
    8MOL   H186 2580   0.585   5.887   3.369 -1.5126 -1.6340  0.4532
    8MOL   H187 2581   0.354   5.601   3.635 -1.5170  1.1033  1.3225
    8MOL   H188 2582   0.297   5.586   3.472  0.9768  0.7819 -1.3382
    8MOL   C189 2583   0.284   5.787   3.558  0.4836  0.1365 -0.3697
    8MOL   C190 2584   0.247   5.849   3.423 -0.2290  0.7091  0.0759
    8MOL   C191 2585   0.189   5.776   3.312  0.2492  0.3684 -0.5747
    8MOL   C192 2586   0.155   5.836   3.185 -0.1964  0.1244  0.5043
    8MOL   C193 2587   0.188   5.973   3.167 -0.0191  0.3335 -0.5721
    8MOL   O194 2588   0.171   6.026   3.052  0.9309 -0.1823  0.3904
    8MOL   C195 2589   0.235   6.050   3.274 -0.2941 -0.7383 -0.1280
    8MOL   C196 2590   0.260   5.985   3.404  0.4210 -0.5882  0.1760
    8MOL   C197 2591   0.173   5.780   3.657  0.8166  0.3079 -1.2781
    8MOL   H198 2592   0.357   5.857   3.601 -2.3362  1.1759  2.9317
    8MOL   H199 2593   0.156   5.673   3.313 -1.2317  0.8151 -1.3590
    8MOL   H200 2594   0.108   5.777   3.108  0.3265  1.0758 -0.5571
    8MOL   H201 2595   0.178   6.120   3.055  2.1970 -0.1950 -1.1596
    8MOL   H202 2596   0.253   6.156   3.268 -3.2621 -0.0955  1.2539
    8MOL   H203 2597   0.287   6.037   3.495  1.2830  0.3971 -0.6370
    8MOL   H204 2598   0.197   5.718   3.744 -0.9717  0.1229 -0.8887
    8MOL   H205 2599   0.082   5.738   3.615 -0.6943  1.1460  1.0331
    8MOL   C206 2600   0.140   5.918   3.718  0.4365 -1.1537  0.3836
    8MOL   C207 2601   0.233   5.946   3.833  0.1898  0.1437  0.5270
    8MOL   C208 2602   0.338   6.029   3.823  0.4862 -0.1135  0.2615
    8MOL   C209 2603   0.429   6.051   3.929  0.1475 -0.0910 -0.4286
    8MOL   C210 2604   0.410   5.994   4.053 -0.2164 -0.2041 -0.2587
    8MOL   O211 2605   0.487   6.034   4.161  0.0612 -0.0485 -0.4489
    8MOL   C212 2606   0.304   5.897   4.066 -0.6070  0.2285 -0.1183
    8MOL   C213 2607   0.218   5.883   3.959 -0.9827  0.0938 -0.6075
    8MOL   C214 2608   8.030   5.923   3.763 -0.2695  0.0377 -0.1107
    8MOL   H215 2609   0.147   6.007   3.655  3.5411  0.5157  2.9188
    8MOL   H216 2610   0.346   6.069   3.723  1.8856 -0.3436  0.2712
    8MOL   H217 2611   0.504   6.126   3.905  0.4006 -0.6031 -1.2644
    8MOL   H218 2612   0.559   6.087   4.131 -0.6375 -0.1428 -2.3644
    8MOL   H219 2613   0.290   5.860   4.167  2.1457 -0.0712  0.1790
    8MOL   H220 2614   0.133   5.816   3.952 -0.5395 -0.1546 -4.0806
    8MOL   H221 2615   8.011   5.996   3.842  1.3299  0.6479 -0.2637
    8MOL   H222 2616   8.003   5.832   3.816 -1.6581  0.6923  0.3163
    8MOL   C223 2617   7.939   5.946   3.642  0.1234 -0.7045 -0.5844
    8MOL   C224 2618   7.955   6.078   3.571  0.5643  0.1238  0.6968
    8MOL   C225 2619   7.990   6.084   3.433 -0.0706 -0.5121 -0.4684
    8MOL   C226 2620   8.018   6.205   3.372  0.2428 -0.3490  0.0908
    8MOL   C227 2621   7.995   6.324   3.446  0.2405  0.8230  0.1877
    8MOL   O228 2622   8.005   6.446   3.391 -0.1389 -0.1839  0.1081
    8MOL   C229 2623   7.956   6.324   3.583 -0.8004 -0.0420  0.2602
    8MOL   C230 2624   7.946   6.198   3.645 -0.6040 -0.1302  0.1124
    8MOL   C231 2625   7.789   5.913   3.671 -0.8319  0.0735 -0.0984
    8MOL   H232 2626   7.971   5.879   3.562 -0.3617 -0.9081 -0.6067
    8MOL   H233 2627   7.986   5.991   3.377 -0.5235 -0.2009 -0.9540
    8MOL   H234 2628   0.008   6.203   3.268  1.6270  1.8717  0.3701
    8MOL   H235 2629   0.028   6.444   3.319  0.5109 -1.1826  0.6601
    8MOL   H236 2630   7.955   6.415   3.641  2.0375  2.2636 -3.1321
    8MOL   H237 2631   7.927   6.189   3.751  1.8672 -2.1031  0.4377
    8MOL   H238 2632   7.785   5.834   3.746  0.7064 -0.3969 -0.5056
    8MOL   H239 2633   7.756   6.007   3.716  1.1912 -0.3386  2.3555
    8MOL   C240 2634   7.704   5.878   3.550 -0.0123  0.1010 -0.5460
    8MOL   C241 2635   7.773   5.762   3.477  0.4237  0.0274  0.3955
    8MOL   C242 2636   7.800   5.638   3.534  0.2101  0.0110 -0.7314
    8MOL   C243 2637   7.868   5.535   3.467  1.0291  0.0417 -0.0081
    8MOL   C244 2638   7.915   5.563   3.336 -0.2256 -0.3323 -0.3539
    8MOL   O245 2639   7.989   5.473   3.272  0.6914  0.4473  0.1836
    8MOL   C246 2640   7.886   5.686   3.280  0.0525  0.2523 -0.2368
    8MOL   C247 2641   7.812   5.788   3.350 -0.2047 -0.1764 -0.1036
    8MOL   C248 2642   7.548   5.855   3.577 -0.9804 -0.1689  0.2776
    8MOL   H249 2643   7.712   5.966   3.486 -2.9038 -0.0085 -1.1253
    8MOL   H250 2644   7.773   5.608   3.634  0.2491  2.4746  0.0498
    8MOL   H251 2645   7.884   5.442   3.518 -1.3822 -0.2359  0.3109
    8MOL   H252 2646   7.999   5.388   3.312 -0.0570  0.7179  0.9507
    8MOL   H253 2647   7.918   5.712   3.181 -0.4697 -0.0465 -0.4878
    8MOL   H254 2648   7.786   5.880   3.301  0.9995 -0.4373 -1.2744
    8MOL   H255 2649   7.534   5.788   3.662 -0.3697  0.9507  1.2826
    8MOL   H256 2650   7.508   5.946   3.623 -0.0542  0.4945 -0.2129
    8MOL   C257 2651   7.467   5.809   3.457 -0.7820 -0.2250 -0.4921
    8MOL   C258 2652   7.362   5.704   3.503 -0.4472 -0.0651 -0.0605
    8MOL   C259 2653   7.244   5.733   3.568 -0.2235 -0.5620  0.0418
    8MOL   C260 2654   7.168   5.630   3.634  0.5118  0.1005 -0.1595
    8MOL   C261 2655   7.213   5.498   3.620 -0.1395 -0.1882 -0.4684
    8MOL   O262 2656   7.142   5.390   3.677  0.4546 -0.3472  0.0196
    8MOL   C263 2657   7.327   5.468   3.549  0.1720 -0.8413 -0.5965
    8MOL   C264 2658   7.398   5.572   3.495 -1.0282  0.4964  0.5138
    8MOL   C265 2659   7.411   5.917   3.359 -0.6153 -0.1144 -0.4020
    8MOL   H266 2660   7.538   5.743   3.407 -0.2687  0.4914 -0.7076
    8MOL   H267 2661   7.214   5.836   3.581 -0.4596 -0.2613 -2.6007
    8MOL   H268 2662   7.072   5.658   3.676 -0.0650 -0.9887 -0.7144
    8MOL   H269 2663   7.086   5.416   3.748  1.1869  1.2679  0.0209
    8MOL   H270 2664   7.353   5.367   3.520  0.2633 -0.9296 -0.2127
    8MOL   H271 2665   7.490   5.555   3.440 -0.8127  2.1099  0.3571
    8MOL   H272 2666   7.493   5.980   3.326 -0.8568  0.2161 -0.3783
    8MOL   H273 2667   7.337   5.982   3.407 -0.3515 -0.4708  0.4973
    8MOL   C274 2668   7.345   5.856   3.235  0.0271 -0.4691  0.7515
    8MOL   C275 2669   7.444   5.762   3.166 -0.2952 -0.0338 -0.4814
    8MOL   C276 2670   7.424   5.621   3.156 -0.2222 -0.1125  0.3838
    8MOL   C277 2671   7.512   5.539   3.084 -0.4864 -0.0482 -0.4314
    8MOL   C278 2672   7.630   5.593   3.039 -0.4059 -0.2429 -0.5335
    8MOL   O279 2673   7.725   5.517   2.975 -0.0057  0.1879  0.4921
    8MOL   C280 2674   7.649   5.734   3.041  0.1206  0.4307 -0.3570
    8MOL   C281 2675   7.553   5.817   3.103 -0.6464  0.5970  0.6072
    8MOL   C282 2676   7.302   5.967   3.143 -0.0828 -0.1424  0.1181
    8MOL   H283 2677   7.258   5.797   3.266 -2.4918  2.7238  0.1119
    8MOL   H284 2678   7.344   5.569   3.208 -0.2519 -0.0200  0.4316
    8MOL   H285 2679   7.486   5.434   3.079  1.1526 -0.5262  0.5738
    8MOL   H286 2680   7.714   5.425   2.993 -0.5871  0.3379  0.9284
    8MOL   H287 2681   7.739   5.777   3.001  0.6912 -1.3287 -1.0245
    8MOL   H288 2682   7.571   5.924   3.107  0.2662  0.5222 -1.0214
    8MOL   H289 2683   7.384   6.020   3.094 -0.1751  0.4132  0.5621
    8MOL   H290 2684   7.250   5.917   3.061 -1.1800 -0.6511  1.1242
    8MOL   C291 2685   7.196   6.063   3.197  0.4137 -0.2607  0.8448
    8MOL   C292 2686   7.070   5.982   3.231  0.4155 -0.7113 -0.5672
    8MOL   C293 2687   6.974   5.938   3.132  0.5158 -0.0075  0.2666
    8MOL   C294 2688   6.851   5.883   3.171 -0.8685  0.5248 -0.0521
    8MOL   C295 2689   6.820   5.865   3.308  0.1411  0.0244  0.6525
    8MOL   O296 2690   6.688   5.826   3.336  0.0609 -0.8444  0.0347
    8MOL   C297 2691   6.905   5.905   3.408  0.1846  0.2304 -0.0298
    8MOL   C298 2692   7.034   5.964   3.371 -0.7249  0.4245  0.9209
    8MOL   C299 2693   7.184   6.185   3.101  0.0570  0.0840  0.0328
    8MOL   H300 2694   7.237   6.113   3.285 -1.4701  0.1905  1.4997
    8MOL   H301 2695   6.997   5.934   3.027 -1.7708  1.2301 -0.3283
    8MOL   H302 2696   6.780   5.834   3.106 -1.2022 -0.0826  0.7505
    8MOL   H303 2697   6.674   5.772   3.412 -3.0533 -0.8946 -0.5334
    8MOL   H304 2698   6.878   5.883   3.510  2.7088  1.5207  0.9648
    8MOL   H305 2699   7.098   5.999   3.451 -0.9527  2.3267  0.2790
    8MOL   H306 2700   7.123   6.264   3.144  2.1549  2.4203 -1.1402
    8MOL   H307 2701   7.127   6.156   3.013 -1.1483  0.9930  0.5162
    8MOL   C308 2702   7.307   6.261   3.050  0.1484  0.3377 -0.4932
    8MOL   C309 2703   7.403   6.296   3.157  0.8021 -0.8678  0.1341
    8MOL   C310 2704   7.535   6.250   3.152  0.0114 -0.0595 -0.2785
    8MOL   C311 2705   7.626   6.284   3.259 -0.3045 -1.1880  0.9249
    8MOL   C312 2706   7.588   6.374   3.357 -0.3576  0.2890 -0.1211
    8MOL   O313 2707   7.668   6.416   3.457 -0.5552 -0.0582  0.2602
    8MOL   C314 2708   7.460   6.427   3.354 -0.5279 -0.0446 -0.2958
    8MOL   C315 2709   7.367   6.392   3.254  0.2441 -0.8250 -0.1060
    8MOL   C316 2710   7.271   6.384   2.960 -0.1378  0.1818 -0.0094
    8MOL   H317 2711   7.365   6.202   2.980  1.2416 -0.7839  1.3219
    8MOL   H318 2712   7.573   6.186   3.074 -0.6249  0.8964 -1.3893
    8MOL   H319 2713   7.728   6.249   3.253 -0.2313 -0.7186 -0.7404
    8MOL   H320 2714   7.746   6.364   3.462 -0.5768 -0.1047  0.1208
    8MOL   H321 2715   7.428   6.498   3.429 -0.8999 -0.1115 -0.3914
    8MOL   H322 2716   7.273   6.445   3.253 -0.0898 -1.3861 -3.0620
    8MOL   H323 2717   7.210   6.454   3.016 -0.9518  2.5077 -3.6161
    8MOL   H324 2718   7.216   6.347   2.873  0.6667 -2.1724  0.4395
    8MOL   C325 2719   7.387   6.474   2.914 -0.7192 -0.3603  0.0996
    8MOL   C326 2720   7.343   6.617   2.866  0.1306  0.2765  0.3482
    8MOL   C327 2721   7.280   6.636   2.743 -0.1182 -0.2394 -0.6016
    8MOL   C328 2722   7.234   6.763   2.698  0.2038  0.6141 -0.5784
    8MOL   C329 2723   7.256   6.869   2.781  0.2898 -0.5950  0.2922
    8MOL   O330 2724   7.208   6.991   2.738  0.2443  0.3864 -0.1072
    8MOL   C331 2725   7.312   6.857   2.912 -0.4656 -0.3701  0.5471
    8MOL   C332 2726   7.364   6.729   2.950 -0.1170  0.0451  0.3516
    8MOL   C333 2727   7.472   6.416   2.798  0.2200  0.0843 -0.0014
    8MOL   H334 2728   7.459   6.495   2.993 -1.1396 -0.5105  0.5180
    8MOL   H335 2729   7.269   6.554   2.674  2.2366  0.3059 -1.6602
    8MOL   H336 2730   7.196   6.782   2.599 -1.5546  0.3189  0.0332
    8MOL   H337 2731   7.197   7.058   2.803 -2.4182  0.0717 -0.1652
    8MOL   H338 2732   7.310   6.944   2.975  0.6383 -0.2119  0.3779
    8MOL   H339 2733   7.416   6.722   3.044 -1.3829  1.1458  1.1468
    8MOL   H340 2734   7.551   6.481   2.761  0.4774  1.3272  2.5817
    8MOL   H341 2735   7.396   6.397   2.722  1.4871 -0.5314 -1.1479
    8MOL   H342 2736   7.521   6.319   2.811 -0.6233 -0.6241 -1.8649
    9MOL     C1 2737   1.226   7.615   5.148 -0.2901  0.4420 -0.3639
    9MOL     C2 2738   1.202   7.522   5.025 -0.5597 -0.0656 -1.1309
    9MOL     C3 2739   1.263   7.394   5.010 -0.2409 -0.3444  0.1288
    9MOL     C4 2740   1.227   7.316   4.900 -0.9665  0.3546 -0.0305
    9MOL     C5 2741   1.145   7.363   4.799  0.7904 -0.3246  0.4459
    9MOL     O6 2742   1.121   7.298   4.682 -0.5243  0.0025 -0.5934
    9MOL     C7 2743   1.086   7.487   4.809  0.6871  0.6697  0.0241
    9MOL     C8 2744   1.116   7.568   4.924 -0.2762 -0.2993  0.5480
    9MOL     C9 2745   1.215   7.523   5.274 -0.0964 -0.0719 -0.5850
    9MOL    H10 2746   1.325   7.662   5.149 -0.7040  1.3173 -1.0801
    9MOL    H11 2747   1.336   7.361   5.083 -0.5448  0.4624  0.8050
    9MOL    H12 2748   1.270   7.217   4.887 -1.5241 -0.0778  1.3462
    9MOL    H13 2749   1.189   7.233   4.679 -1.6697 -1.2722  0.4328
    9MOL    H14 2750   1.011   7.521   4.738 -0.8663  0.2333  1.4204
    9MOL    H15 2751   1.077   7.667   4.941  1.2988  0.1963  1.3978
    9MOL    H16 2752   1.308   7.471   5.297 -0.0546  0.7203  1.1816
    9MOL    H17 2753   1.149   7.439   5.252 -1.0111 -0.0914  2.0190
    9MOL    H18 2754   1.157   7.698   5.160  0.0090  0.5338  0.8897
    9MOL    C19 2755   1.151   7.582   5.398  0.0250  0.1702 -0.1061
    9MOL    C20 2756   1.156   7.483   5.509  0.4625 -0.6164 -0.7357
    9MOL    C21 2757   1.249   7.497   5.617  0.2396 -0.4341 -0.0019
    9MOL    C22 2758   1.238   7.415   5.725  0.2385 -0.4840 -0.0245
    9MOL    C23 2759   1.138   7.318   5.739  0.0018  0.2008  0.5653
    9MOL    O24 2760   1.131   7.230   5.845 -0.0622 -0.0388  0.1954
    9MOL    C25 2761   1.053   7.300   5.632  0.1631  0.5520  0.4367
    9MOL    C26 2762   1.063   7.377   5.514 -0.4512  0.0268 -0.4831
    9MOL    C27 2763   1.021   7.663   5.371  0.6684 -0.0887 -0.2442
    9MOL    H28 2764   1.218   7.659   5.436 -0.8984 -0.4060  2.8570
    9MOL    H29 2765   1.329   7.570   5.611 -0.2708  0.2298  1.0738
    9MOL    H30 2766   1.316   7.426   5.798  1.5559 -0.2466 -1.4293
    9MOL    H31 2767   1.058   7.170   5.851  0.2541 -0.7176 -2.1872
    9MOL    H32 2768   0.988   7.216   5.648 -0.0590  0.3515 -1.3765
    9MOL    H33 2769   0.991   7.355   5.436 -1.0381 -2.9073  0.8275
    9MOL    H34 2770   0.957   7.612   5.299  0.2675  1.5767 -1.0970
    9MOL    H35 2771   1.044   7.752   5.313  0.0898  0.7742  0.8178
    9MOL    C36 2772   0.932   7.712   5.485 -0.2082  0.0767 -0.2160
    9MOL    C37 2773   0.783   7.703   5.448  0.0979 -0.4316  0.0421
    9MOL    C38 2774   0.711   7.820   5.404  0.1252  0.5560 -0.8948
    9MOL    C39 2775   0.581   7.804   5.351  0.4037 -0.1473 -0.0260
    9MOL    C40 2776   0.521   7.682   5.356  0.2918 -0.0192 -0.1404
    9MOL    O41 2777   0.397   7.684   5.300  0.3320 -0.4188  0.4499
    9MOL    C42 2778   0.584   7.566   5.397 -0.4052 -0.1621 -0.0939
    9MOL    C43 2779   0.724   7.576   5.432  0.1974  0.3655 -0.2969
    9MOL    C44 2780   0.968   7.845   5.557  0.1954 -0.0658 -1.0851
    9MOL    H45 2781   0.957   7.642   5.565  2.0220 -0.3035 -1.2394
    9MOL    H46 2782   0.747   7.922   5.406  0.5975  0.4009 -1.4997
    9MOL    H47 2783   0.531   7.891   5.309  0.1567  0.5744  1.7023
    9MOL    H48 2784   0.393   7.697   5.207  1.2683  0.5188  0.5286
    9MOL    H49 2785   0.532   7.471   5.395 -4.1972  1.7836  1.3790
    9MOL    H50 2786   0.761   7.479   5.460  0.9498 -0.2492 -3.2450
    9MOL    H51 2787   1.020   7.896   5.477  0.4503  2.4807  0.6286
    9MOL    H52 2788   0.884   7.910   5.582 -0.5669 -1.2135 -0.6197
    9MOL    C53 2789   1.050   7.828   5.688  0.1700  0.9255  0.0714
    9MOL    C54 2790   1.129   7.956   5.717 -0.2590  0.3952 -0.5069
    9MOL    C55 2791   1.266   7.952   5.698  0.1004 -0.1593  0.1317
    9MOL    C56 2792   1.342   0.033   5.717 -0.1714  0.4974  0.4441
    9MOL    C57 2793   1.283   0.152   5.760  0.2688  0.5373  0.1754
    9MOL    O58 2794   1.362   0.260   5.775 -0.2779  0.0139 -0.4348
    9MOL    C59 2795   1.142   0.157   5.775  0.0690  0.1582  0.4979
    9MOL    C60 2796   1.064   0.038   5.758 -0.0772  0.2078  0.9656
    9MOL    C61 2797   0.955   7.779   5.804  0.2983  0.0288 -0.5021
    9MOL    H62 2798   1.118   7.745   5.669  2.0488  2.2159  0.9605
    9MOL    H63 2799   1.317   7.867   5.655 -0.5499  0.3985 -1.7941
    9MOL    H64 2800   1.442   0.028   5.677 -0.6178  0.6204 -0.6963
    9MOL    H65 2801   1.440   0.267   5.723  0.4589 -1.3665  0.4661
    9MOL    H66 2802   1.092   0.247   5.805  2.2914  0.8564  2.2591
    9MOL    H67 2803   0.956   0.041   5.761 -0.2047  1.0462 -2.2260
    9MOL    H68 2804   0.870   7.719   5.771 -0.0027  1.4473 -2.4281
    9MOL    H69 2805   0.900   7.864   5.846 -0.2722 -0.4789 -0.2062
    9MOL    C70 2806   1.015   7.697   5.920 -0.3637 -0.3668  0.2332
    9MOL    C71 2807   0.914   7.700   6.033  0.3011  0.4000 -0.5596
    9MOL    C72 2808   0.895   7.821   6.112 -0.9038  0.5152  0.5524
    9MOL    C73 2809   0.798   7.816   6.216 -0.2804  0.3197  0.5263
    9MOL    C74 2810   0.718   7.702   6.233 -0.2401 -0.6216  0.2864
    9MOL    O75 2811   0.635   7.709   6.340  0.3909  0.1395 -0.1487
    9MOL    C76 2812   0.732   7.587   6.152  0.5405 -0.1086  0.3182
    9MOL    C77 2813   0.825   7.592   6.052  0.8911 -0.2884  0.5392
    9MOL    C78 2814   1.153   7.758   5.967  0.0587  0.1506 -0.4218
    9MOL    H79 2815   1.022   7.596   5.878  0.5367 -0.2040 -0.0238
    9MOL    H80 2816   0.956   7.907   6.092 -1.7137  1.3498  1.5850
    9MOL    H81 2817   0.768   7.901   6.275 -3.8239  0.7460 -1.7555
    9MOL    H82 2818   0.651   7.653   6.414 -2.2036 -0.7496 -0.2260
    9MOL    H83 2819   0.692   7.492   6.184 -1.5851  0.8218  0.5270
    9MOL    H84 2820   0.838   7.507   5.986  2.6199  0.5137 -0.1779
    9MOL    H85 2821   1.137   7.865   5.985 -0.0556  0.2117 -0.8675
    9MOL    H86 2822   1.239   7.736   5.903  0.2877 -0.9913  0.2622
    9MOL    C87 2823   1.203   7.704   6.099 -0.2807  0.7495 -0.4220
    9MOL    C88 2824   1.313   7.782   6.178  0.2089 -0.8772  0.6940
    9MOL    C89 2825   1.315   7.807   6.316  0.5734  0.1313 -0.2967
    9MOL    C90 2826   1.422   7.850   6.384  0.0616 -0.5688  0.0782
    9MOL    C91 2827   1.533   7.907   6.314  0.4584 -0.0454  0.0287
    9MOL    O92 2828   1.635   7.959   6.384  0.5066 -0.6003  0.3096
    9MOL    C93 2829   1.534   7.891   6.174 -0.3473 -0.3510  0.2850
    9MOL    C94 2830   1.426   7.831   6.105  0.0361  1.0382 -0.4124
    9MOL    C95 2831   1.236   7.554   6.098 -0.2176  0.0004 -0.2681
    9MOL    H96 2832   1.118   7.710   6.168 -0.3890 -1.7858 -0.2716
    9MOL    H97 2833   1.231   7.781   6.379  0.3623 -1.4385 -1.1896
    9MOL    H98 2834   1.423   7.865   6.491  1.0153 -1.0232  0.1379
    9MOL    H99 2835   1.705   7.988   6.327 -0.0674 -0.6482 -0.4326
    9MOL   H100 2836   1.621   7.935   6.128  0.9574 -0.7986  2.2692
    9MOL   H101 2837   1.428   7.828   5.997  1.7206 -0.3633 -0.3622
    9MOL   H102 2838   1.178   7.503   6.021  0.3917  0.4536 -1.0296
    9MOL   H103 2839   1.335   7.565   6.053 -0.6887  2.1135 -0.8377
    9MOL   C104 2840   1.244   7.483   6.232 -0.2248 -0.3022  0.3987
    9MOL   C105 2841   1.363   7.384   6.248  0.1354  0.7881 -0.3849
    9MOL   C106 2842   1.433   7.376   6.368  0.3337 -0.1856 -0.5437
    9MOL   C107 2843   1.535   7.279   6.376 -0.1056  0.2604 -0.4017
    9MOL   C108 2844   1.568   7.195   6.268  0.1244  0.6568 -0.2423
    9MOL   O109 2845   1.674   7.107   6.285  0.3383  0.0128  0.2037
    9MOL   C110 2846   1.487   7.195   6.154  0.1281  0.1761  0.2141
    9MOL   C111 2847   1.385   7.292   6.140 -0.0140 -0.3655 -0.8477
    9MOL   C112 2848   1.111   7.422   6.272 -0.0252  0.3247 -0.6701
    9MOL   H113 2849   1.269   7.564   6.301  1.4500  1.3563 -2.0742
    9MOL   H114 2850   1.421   7.434   6.459  0.8566 -1.0066  0.0593
    9MOL   H115 2851   1.575   7.250   6.471 -0.9031 -1.7273 -0.6531
    9MOL   H116 2852   1.730   7.085   6.212 -1.2108 -1.7874 -0.4920
    9MOL   H117 2853   1.500   7.115   6.082  1.6300  0.2018  0.4479
    9MOL   H118 2854   1.337   7.301   6.043  3.2089  0.8184 -2.4126
    9MOL   H119 2855   1.096   7.323   6.228 -1.7752  0.3784 -0.1981
    9MOL   H120 2856   1.032   7.489   6.239  1.0455  0.3753 -3.3382
    9MOL   C121 2857   1.102   7.399   6.428  0.2952  0.5026 -0.0970
    9MOL   C122 2858   1.099   7.534   6.498  0.2261 -0.2101  0.2007
    9MOL   C123 2859   1.194   7.560   6.601  1.0132 -0.0686  0.5735
    9MOL   C124 2860   1.196   7.685   6.658  0.6925 -0.0915  0.4260
    9MOL   C125 2861   1.114   7.787   6.615 -0.1318  0.1224  0.2414
    9MOL   O126 2862   1.123   7.905   6.676  0.0187  0.4349  0.0288
    9MOL   C127 2863   1.013   7.764   6.521  0.4049 -0.8447 -0.5562
    9MOL   C128 2864   1.003   7.632   6.470  0.3608 -0.4117 -0.6676
    9MOL   C129 2865   0.982   7.316   6.472  0.3114 -0.4269  0.0160
    9MOL   H130 2866   1.194   7.354   6.465  0.0524  0.2051  0.1476
    9MOL   H131 2867   1.265   7.491   6.644  1.0899 -0.4650 -0.1858
    9MOL   H132 2868   1.263   7.711   6.739 -0.1244 -1.3751  1.5260
    9MOL   H133 2869   1.050   7.963   6.658 -2.1560 -1.8466  1.1462
    9MOL   H134 2870   0.956   7.849   6.487  0.9683  0.1233  0.8583
    9MOL   H135 2871   0.930   7.609   6.393 -0.2790 -1.9186  0.3478
    9MOL   H136 2872   0.895   7.338   6.410  0.2475 -1.8718 -0.4167
    9MOL   H137 2873   0.949   7.345   6.571  1.6559  0.7883  0.1232
    9MOL   C138 2874   1.015   7.163   6.484 -0.7044 -0.1068 -0.5826
    9MOL   C139 2875   1.049   7.093   6.356 -0.4588 -0.6515  0.3668
    9MOL   C140 2876   0.951   7.079   6.254 -0.5185 -0.0933 -0.0406
    9MOL   C141 2877   0.978   7.020   6.132 -0.5197 -1.0107  0.8642
    9MOL   C142 2878   1.106   6.968   6.109 -0.2547  0.4626 -0.2614
    9MOL   O143 2879   1.132   6.896   5.991 -0.7671 -0.4187 -0.5199
    9MOL   C144 2880   1.204   6.984   6.210 -1.1196 -0.2495 -0.0012
    9MOL   C145 2881   1.182   7.044   6.330  0.9293  0.3160 -0.4863
    9MOL   C146 2882   0.906   7.077   6.561 -0.2767 -0.0340 -0.6173
    9MOL   H147 2883   1.100   7.157   6.551 -2.0312 -0.2357  1.1177
    9MOL   H148 2884   0.850   7.113   6.271 -0.6482 -1.4940  2.2288
    9MOL   H149 2885   0.896   7.031   6.062 -0.0383  2.1369  0.7531
    9MOL   H150 2886   1.222   6.866   5.999 -1.1519 -1.4894 -0.1675
    9MOL   H151 2887   1.304   6.948   6.195 -1.1716 -0.6791  0.6384
    9MOL   H152 2888   1.268   7.055   6.394  1.9692  1.0360 -1.9842
    9MOL   H153 2889   0.923   6.971   6.544  1.4020 -0.0570  1.0031
    9MOL   H154 2890   0.815   7.096   6.503  0.5178  3.1238 -0.9361
    9MOL   C155 2891   0.880   7.103   6.714  0.7643  0.5023  0.3136
    9MOL   C156 2892   0.988   7.054   6.812 -0.7173 -0.0292 -0.1476
    9MOL   C157 2893   1.063   6.934   6.785  0.6517  0.3231 -0.0061
    9MOL   C158 2894   1.144   6.883   6.884 -0.5570  0.0140  0.7767
    9MOL   C159 2895   1.165   6.955   7.004  0.6802 -0.2862  0.5024
    9MOL   O160 2896   1.262   6.918   7.096  0.3859  0.0332 -0.5264
    9MOL   C161 2897   1.089   7.072   7.034 -0.0840 -0.0673 -0.4036
    9MOL   C162 2898   1.004   7.126   6.937 -0.4680  0.3289  0.0974
    9MOL   C163 2899   0.744   7.045   6.753 -0.1795 -0.2188  0.1397
    9MOL   H164 2900   0.876   7.211   6.728  0.9780  0.5894 -0.2558
    9MOL   H165 2901   1.060   6.888   6.687  0.5643 -0.3408  0.3011
    9MOL   H166 2902   1.210   6.799   6.868 -0.1875  0.4298  0.1426
    9MOL   H167 2903   1.306   6.839   7.069 -0.4621 -0.7103  0.2549
    9MOL   H168 2904   1.109   7.131   7.122 -0.2346 -0.3972 -0.1515
    9MOL   H169 2905   0.939   7.212   6.951 -0.8435  0.1608 -0.6008
    9MOL   H170 2906   0.745   7.069   6.859  3.0502 -0.3406  0.1709
    9MOL   H171 2907   0.732   6.937   6.748  0.5782 -0.2795 -0.3687
    9MOL   C172 2908   0.618   7.113   6.697  0.4051  0.8071 -0.6387
    9MOL   C173 2909   0.623   7.262   6.674 -0.1219 -0.3465  0.1814
    9MOL   C174 2910   0.672   7.352   6.773  0.2451 -0.2016  0.6793
    9MOL   C175 2911   0.666   7.490   6.753  0.4204  0.1273 -0.1238
    9MOL   C176 2912   0.650   7.539   6.625 -0.1705 -0.3753 -0.4152
    9MOL   O177 2913   0.661   7.670   6.595 -0.4303 -0.3602  0.1160
    9MOL   C178 2914   0.612   7.449   6.521 -0.5598  0.1107 -0.1169
    9MOL   C179 2915   0.592   7.312   6.548 -0.8027  0.1211 -1.3049
    9MOL   C180 2916   0.489   7.075   6.774  0.7061  0.1025 -0.8077
    9MOL   H181 2917   0.598   7.063   6.603  0.9951 -0.7165  0.0248
    9MOL   H182 2918   0.696   7.316   6.871 -0.4224 -0.2870  0.8171
    9MOL   H183 2919   0.692   7.553   6.837  0.2760  0.1433 -0.0914
    9MOL   H184 2920   0.684   7.723   6.670  1.7503 -0.7569 -0.2279
    9MOL   H185 2921   0.587   7.485   6.422  0.8485  0.3878 -0.3801
    9MOL   H186 2922   0.550   7.241   6.478 -1.4103  0.0414 -0.8618
    9MOL   H187 2923   0.487   7.149   6.854 -0.2329  1.0360 -1.6735
    9MOL   H188 2924   0.502   6.977   6.819 -1.0080 -0.0894 -0.6934
    9MOL   C189 2925   0.360   7.066   6.687  0.1961  0.0177  0.2782
    9MOL   C190 2926   0.360   6.940   6.589  0.4444  0.3004 -0.3607
    9MOL   C191 2927   0.353   6.960   6.450 -0.0027 -0.0000  0.0410
    9MOL   C192 2928   0.367   6.844   6.363 -0.2008  0.3052 -0.1914
    9MOL   C193 2929   0.387   6.716   6.416 -0.5451  0.0496  0.7255
    9MOL   O194 2930   0.396   6.607   6.333 -0.2686 -0.6414 -0.1471
    9MOL   C195 2931   0.385   6.702   6.557  0.6837 -0.3263 -0.3223
    9MOL   C196 2932   0.377   6.814   6.639 -0.2716 -0.6682 -0.0480
    9MOL   C197 2933   0.235   7.053   6.775 -0.1694 -0.3595 -0.6489
    9MOL   H198 2934   0.367   7.162   6.636  0.1225 -0.4270 -0.5817
    9MOL   H199 2935   0.337   7.058   6.407 -3.0436 -0.4382  0.1003
    9MOL   H200 2936   0.350   6.853   6.257  0.3646  1.7420 -0.1695
    9MOL   H201 2937   0.400   6.629   6.242  1.3103  2.0104  0.5263
    9MOL   H202 2938   0.394   6.603   6.599  5.0396  0.8562  1.8346
    9MOL   H203 2939   0.365   6.799   6.746 -1.8450  1.7021  0.1418
    9MOL   H204 2940   0.245   6.986   6.860  2.4621  0.2568 -0.4157
    9MOL   H205 2941   0.153   7.009   6.719 -0.6527 -0.6425  0.2774
    9MOL   C206 2942   0.182   7.187   6.827  0.5568 -0.3206 -0.0203
    9MOL   C207 2943   0.116   7.163   6.970 -1.0152  0.0856 -0.1689
    9MOL   C208 2944   8.017   7.157   6.991 -0.5546  0.4322 -0.3199
    9MOL   C209 2945   7.965   7.156   7.123 -0.0915  0.2952 -0.6378
    9MOL   C210 2946   0.012   7.168   7.232 -0.3024  0.6923 -0.1790
    9MOL   O211 2947   7.996   7.177   7.359  0.0453  0.3648  0.1916
    9MOL   C212 2948   0.155   7.179   7.218  0.2893  0.7049  0.3936
    9MOL   C213 2949   0.203   7.169   7.085 -0.1459  0.2325 -0.5986
    9MOL   C214 2950   0.092   7.262   6.729 -0.3193  0.5942 -1.0779
    9MOL   H215 2951   0.270   7.249   6.845  0.1044  0.1416  0.6446
    9MOL   H216 2952   7.951   7.148   6.906  0.8819 -1.6581 -1.2382
    9MOL   H217 2953   7.859   7.163   7.141 -0.7497 -0.2364 -3.9401
    9MOL   H218 2954   0.006   7.116   7.414  1.4156 -0.4974 -1.9005
    9MOL   H219 2955   0.221   7.180   7.303  1.7810 -0.1895 -0.7498
    9MOL   H220 2956   0.311   7.165   7.074 -0.0429  0.7340  0.1309
    9MOL   H221 2957   8.033   7.212   6.734  0.2227 -0.3153  0.8388
    9MOL   H222 2958   0.120   7.259   6.624 -0.1222  0.0204 -1.0098
    9MOL   C223 2959   0.083   7.411   6.779  0.4830 -0.0167  0.0925
    9MOL   C224 2960   7.976   7.468   6.757 -0.1123  0.2953 -0.5211
    9MOL   C225 2961   7.889   7.480   6.869 -0.1276  0.2660  0.6160
    9MOL   C226 2962   7.760   7.532   6.847  0.2070  0.3330  0.3722
    9MOL   C227 2963   7.715   7.564   6.719 -0.4097  0.6518 -0.5243
    9MOL   O228 2964   7.584   7.605   6.693  0.4415  0.1741  0.3218
    9MOL   C229 2965   7.800   7.546   6.610 -0.0555  0.1767 -0.0753
    9MOL   C230 2966   7.933   7.496   6.628  0.0991  0.4977  0.4958
    9MOL   C231 2967   0.196   7.501   6.717 -0.7780 -1.1673 -1.0640
    9MOL   H232 2968   0.100   7.406   6.887  0.0188  0.9272  0.2122
    9MOL   H233 2969   7.932   7.455   6.964 -1.8354  1.7751  1.8038
    9MOL   H234 2970   7.692   7.558   6.927 -0.4716  0.8561 -0.3708
    9MOL   H235 2971   7.544   7.528   6.655 -0.4103  0.5564  0.4293
    9MOL   H236 2972   7.760   7.568   6.513 -0.7257  0.1510  0.1903
    9MOL   H237 2973   7.998   7.481   6.543  0.1352 -0.2474  0.6514
    9MOL   H238 2974   0.284   7.437   6.719 -1.0123 -1.4925 -1.2223
    9MOL   H239 2975   0.190   7.521   6.610  1.9515  1.0355 -0.8762
    9MOL   C240 2976   0.225   7.632   6.787 -1.1085 -0.5336 -0.5921
    9MOL   C241 2977   0.263   7.597   6.934 -0.3481  0.2102 -0.3065
    9MOL   C242 2978   0.381   7.513   6.952 -0.3840 -0.2224  0.0335
    9MOL   C243 2979   0.415   7.462   7.079  0.4824 -0.3968  0.2311
    9MOL   C244 2980   0.320   7.474   7.184 -0.3823 -0.4641 -0.2553
    9MOL   O245 2981   0.344   7.422   7.313  0.3653  0.7302  0.3292
    9MOL   C246 2982   0.198   7.547   7.166 -0.1009  0.5400 -0.1560
    9MOL   C247 2983   0.176   7.615   7.041  0.2114  0.7400 -0.4099
    9MOL   C248 2984   0.328   7.708   6.707  0.3212  0.9777 -0.2175
    9MOL   H249 2985   0.133   7.691   6.792 -0.3208  0.5705  1.5878
    9MOL   H250 2986   0.449   7.491   6.871 -0.1668 -1.6223  0.5881
    9MOL   H251 2987   0.501   7.400   7.101 -0.4271 -1.6806  0.2062
    9MOL   H252 2988   0.419   7.364   7.319  2.1395  2.9419  0.6145
    9MOL   H253 2989   0.123   7.552   7.243 -0.6135  0.7129 -0.6588
    9MOL   H254 2990   0.076   7.655   7.033  0.4950  1.3659 -0.8162
    9MOL   H255 2991   0.415   7.646   6.689  1.1117  1.9060  0.4017
    9MOL   H256 2992   0.299   7.718   6.602  0.0437 -3.2653 -0.6530
    9MOL   C257 2993   0.365   7.849   6.753  0.2992  0.1513  0.0518
    9MOL   C258 2994   0.243   7.939   6.756 -0.4869  0.0115  0.1076
    9MOL   C259 2995   0.198   7.993   6.631  0.3595  0.0690  0.3361
    9MOL   C260 2996   0.074   0.025   6.620 -0.4526  0.1061 -0.3691
    9MOL   C261 2997   8.034   0.040   6.736 -0.1314  0.3740 -0.0543
    9MOL   O262 2998   7.915   0.107   6.736 -0.7188 -0.1654  0.4960
    9MOL   C263 2999   0.044   8.026   6.857 -0.9310 -0.6042  0.5481
    9MOL   C264 3000   0.167   7.965   6.873 -0.3679 -0.4760 -0.2563
    9MOL   C265 3001   0.446   7.859   6.886 -0.4685 -0.0316  0.3368
    9MOL   H266 3002   0.434   7.885   6.676 -0.2406  3.0245  0.8404
    9MOL   H267 3003   0.262   7.990   6.544 -0.6839 -3.2614 -0.3879
    9MOL   H268 3004   0.050   0.064   6.522  0.4290  1.3069 -0.1205
    9MOL   H269 3005   7.850   0.066   6.681 -0.7100  0.0483  0.3230
    9MOL   H270 3006   8.029   0.019   6.946  0.7492 -1.1138  1.7487
    9MOL   H271 3007   0.180   7.913   6.967 -0.2797 -0.2188 -0.1252
    9MOL   H272 3008   0.528   7.786   6.884  0.6861  1.2796 -1.0486
    9MOL   H273 3009   0.392   7.830   6.976 -0.3116  1.4799  0.9287
    9MOL   C274 3010   0.508   8.000   6.917 -0.0509  0.6651  0.5499
    9MOL   C275 3011   0.623   8.031   6.831  0.4763 -0.1017 -0.3591
    9MOL   C276 3012   0.607   0.058   6.714 -0.2368 -0.6976 -0.3534
    9MOL   C277 3013   0.724   0.096   6.641 -0.6114  0.2472  0.2754
    9MOL   C278 3014   0.856   0.064   6.681  0.2719  0.1274  0.2257
    9MOL   O279 3015   0.963   0.083   6.604  0.0301  0.4860 -0.4149
    9MOL   C280 3016   0.866   8.031   6.804 -0.1601  1.0706 -0.2811
    9MOL   C281 3017   0.752   7.993   6.874  0.5636 -0.3223  0.0102
    9MOL   C282 3018   0.544   8.026   7.066 -0.1946 -0.0883  0.0560
    9MOL   H283 3019   0.435   0.040   6.893 -0.7912 -0.0780  0.3781
    9MOL   H284 3020   0.513   0.098   6.680  0.2248  0.9996  0.3221
    9MOL   H285 3021   0.708   0.150   6.549  2.9930  0.2689 -0.4239
    9MOL   H286 3022   0.942   0.128   6.524  0.5325  1.2979 -0.0996
    9MOL   H287 3023   0.961   8.005   6.847  0.4339  1.5502 -1.2984
    9MOL   H288 3024   0.775   7.944   6.967 -0.1259 -0.9709 -0.1608
    9MOL   H289 3025   0.596   7.939   7.107 -0.5357 -0.0203  0.6388
    9MOL   H290 3026   0.619   0.067   7.065 -1.0359  0.7231  0.0619
    9MOL   C291 3027   0.423   0.026   7.148  0.2010  0.1502  0.1768
    9MOL   C292 3028   0.382   0.170   7.130 -0.0450 -0.9188  0.1346
    9MOL   C293 3029   0.240   0.196   7.099  0.0949  0.5135 -0.0606
    9MOL   C294 3030   0.200   0.319   7.051 -0.0698 -0.5760 -0.2103
    9MOL   C295 3031   0.290   0.418   7.054  0.3243 -0.3133  0.9185
    9MOL   O296 3032   0.247   0.540   7.016  0.0578  0.3096 -0.1993
    9MOL   C297 3033   0.423   0.404   7.094  0.5498 -0.0469 -0.1454
    9MOL   C298 3034   0.475   0.276   7.127  0.0424  0.7356 -0.4666
    9MOL   C299 3035   0.434   8.029   7.294 -0.2218 -0.4091  0.0574
    9MOL   H300 3036   0.344   7.997   7.114 -0.2440  0.3668  0.7825
    9MOL   H301 3037   0.169   0.115   7.105 -1.1019  1.6818  2.1431
    9MOL   H302 3038   0.099   0.346   7.024  0.8527  0.5635 -2.6799
    9MOL   H303 3039   0.194   0.542   6.938  0.2721 -0.4728 -0.3769
    9MOL   H304 3040   0.502   0.478   7.086  0.4498  0.0103 -0.6150
    9MOL   H305 3041   0.577   0.269   7.161 -0.0966 -0.5311 -0.2758
    9MOL   H306 3042   0.505   0.069   7.324 -0.3385  0.4658 -1.8208
    9MOL   H307 3043   0.488   7.935   7.304 -0.1522 -0.5760 -1.7506
    9MOL   C308 3044   0.290   8.026   7.363 -0.1740 -0.1614 -1.0259
    9MOL   C309 3045   0.317   0.005   7.509  0.3208 -0.9202  0.5482
    9MOL   C310 3046   0.398   7.948   7.578 -0.2016 -0.0537 -0.0247
    9MOL   C311 3047   0.407   7.952   7.718  0.8110 -0.2895 -0.6005
    9MOL   C312 3048   0.355   0.023   7.790 -0.2298 -0.2013  0.5365
    9MOL   O313 3049   0.361   0.029   7.919  0.2205  0.5406  0.1463
    9MOL   C314 3050   0.290   0.130   7.718 -0.4204 -0.0227 -0.3470
    9MOL   C315 3051   0.267   0.108   7.584 -0.2404  0.0285  1.2022
    9MOL   C316 3052   0.215   7.886   7.342 -0.6610 -0.7103 -0.5200
    9MOL   H317 3053   0.219   0.066   7.337  1.4665  1.6273 -0.2148
    9MOL   H318 3054   0.443   7.859   7.536  3.2550  1.6048  0.0082
    9MOL   H319 3055   0.435   7.866   7.778  0.4993  0.3080  0.4168
    9MOL   H320 3056   0.327   0.116   7.934 -1.3500  0.2588 -1.5769
    9MOL   H321 3057   0.231   0.208   7.764 -0.9971 -0.1390 -0.8838
    9MOL   H322 3058   0.219   0.192   7.535  1.0120  1.4214  2.3021
    9MOL   H323 3059   0.277   7.803   7.378 -0.1349 -1.2876 -2.6739
    9MOL   H324 3060   0.208   7.868   7.234  2.9753  0.2322 -0.9766
    9MOL   C325 3061   0.074   7.875   7.399  0.5755  0.1718  0.1506
    9MOL   C326 3062   0.004   7.747   7.367  0.0754  0.1618 -0.1548
    9MOL   C327 3063   7.957   7.735   7.257 -0.7341  0.2041  0.3624
    9MOL   C328 3064   7.895   7.618   7.224  0.5931 -0.2830 -0.4102
    9MOL   C329 3065   7.898   7.506   7.314  0.4714  0.0772 -0.0958
    9MOL   O330 3066   7.827   7.392   7.285 -0.0859  0.0256  0.1788
    9MOL   C331 3067   7.985   7.515   7.422 -0.1755  0.7250  0.7185
    9MOL   C332 3068   0.018   7.631   7.454 -0.6726 -0.3462  0.2391
    9MOL   C333 3069   8.024   7.999   7.379 -0.4010  0.5634  0.5818
    9MOL   H334 3070   0.090   7.868   7.506  1.0856  2.0228  0.2065
    9MOL   H335 3071   7.939   7.815   7.188 -0.9996 -2.8413 -3.2396
    9MOL   H336 3072   7.823   7.612   7.143  2.9704 -0.6034 -2.5569
    9MOL   H337 3073   7.880   7.324   7.324  0.4496  1.9861  2.9963
    9MOL   H338 3074   8.001   7.427   7.483  1.8035  0.1276 -0.6226
    9MOL   H339 3075   0.080   7.638   7.542  1.2085 -0.7619 -1.0301
    9MOL   H340 3076   7.922   7.998   7.419 -0.5913  2.0603  0.1433
    9MOL   H341 3077   8.010   8.030   7.275 -0.6849  0.1312  0.4856
    9MOL   H342 3078   0.037   0.040   7.434 -0.5556 -0.5250  2.3065
   10MOL     C1 3079   5.764   5.312   2.233 -0.0139  0.3000  0.1693
   10MOL     C2 3080   5.865   5.293   2.347  0.5559  0.0823  0.8758
   10MOL     C3 3081   5.807   5.300   2.479 -0.3102  0.1627  0.6232
   10MOL     C4 3082   5.881   5.250   2.586 -0.1939  0.3757 -0.1230
   10MOL     C5 3083   6.012   5.215   2.568 -0.1822  0.8509  0.4198
   10MOL     O6 3084   6.085   5.179   2.676  0.5384 -0.4619 -0.1237
   10MOL     C7 3085   6.076   5.216   2.442 -0.3047  0.2002  0.5608
   10MOL     C8 3086   6.001   5.251   2.328 -0.5027 -0.5726 -0.7112
   10MOL     C9 3087   5.705   5.450   2.238  0.5266  0.5426 -0.8252
   10MOL    H10 3088   5.805   5.284   2.136 -3.3191 -0.9248 -0.9228
   10MOL    H11 3089   5.704   5.318   2.506 -0.8098  0.6952 -1.5173
   10MOL    H12 3090   5.833   5.240   2.683 -0.9397  1.8922 -0.3152
   10MOL    H13 3091   6.176   5.204   2.676  0.7147 -1.0085  1.3988
   10MOL    H14 3092   6.176   5.182   2.421 -0.9353 -0.8798 -0.7406
   10MOL    H15 3093   6.049   5.234   2.233 -0.4492  1.0519 -0.9805
   10MOL    H16 3094   5.767   5.516   2.177 -0.3564 -0.1269 -2.4814
   10MOL    H17 3095   5.703   5.491   2.339 -0.1153  0.1516 -0.6739
   10MOL    H18 3096   5.684   5.239   2.240 -0.1311  0.2675 -1.2901
   10MOL    C19 3097   5.565   5.459   2.168 -0.2311 -0.2514 -0.0487
   10MOL    C20 3098   5.520   5.606   2.154  0.2424  0.5282  0.1118
   10MOL    C21 3099   5.510   5.684   2.266 -0.0798  0.0966 -0.6844
   10MOL    C22 3100   5.480   5.824   2.252 -0.4728 -0.3975 -0.0241
   10MOL    C23 3101   5.459   5.872   2.125 -0.3166 -0.3361  1.0789
   10MOL    O24 3102   5.426   6.004   2.103  0.4344 -0.7165 -0.1497
   10MOL    C25 3103   5.475   5.792   2.012 -0.0303 -0.4606  0.1303
   10MOL    C26 3104   5.512   5.658   2.024  0.5853  0.2284 -0.7264
   10MOL    C27 3105   5.463   5.376   2.243  0.3581 -0.1273  0.3308
   10MOL    H28 3106   5.575   5.416   2.069  1.8727  1.1706 -0.4850
   10MOL    H29 3107   5.530   5.647   2.366 -0.5071  2.4564  0.3021
   10MOL    H30 3108   5.459   5.889   2.335  0.0400  1.4562 -1.3270
   10MOL    H31 3109   5.409   6.047   2.186 -1.6714 -1.1746 -0.3217
   10MOL    H32 3110   5.453   5.829   1.913 -3.8138  0.9498  1.4130
   10MOL    H33 3111   5.525   5.588   1.942 -0.2656  0.3704 -0.9876
   10MOL    H34 3112   5.459   5.410   2.346 -0.5986 -1.9819  0.9374
   10MOL    H35 3113   5.489   5.273   2.271 -3.4704 -1.4378 -0.6851
   10MOL    C36 3114   5.317   5.380   2.183  0.1963 -0.4913 -0.3875
   10MOL    C37 3115   5.231   5.325   2.295  0.3440 -0.6404  0.1531
   10MOL    C38 3116   5.157   5.400   2.385  0.1210  0.0383  0.0213
   10MOL    C39 3117   5.091   5.332   2.494 -0.5820 -1.0895 -0.0346
   10MOL    C40 3118   5.085   5.197   2.507 -0.3337 -0.0391  0.0065
   10MOL    O41 3119   5.024   5.156   2.620  0.0419  0.0797 -0.2328
   10MOL    C42 3120   5.155   5.120   2.408 -0.0266  0.3279 -0.0250
   10MOL    C43 3121   5.228   5.183   2.308 -0.0651 -0.8637 -0.6641
   10MOL    C44 3122   5.309   5.303   2.048 -0.1253  0.6406  0.3667
   10MOL    H45 3123   5.297   5.486   2.170 -0.6806 -0.8359 -1.9168
   10MOL    H46 3124   5.152   5.508   2.384 -1.3400  0.0016 -2.4577
   10MOL    H47 3125   5.046   5.392   2.571 -0.9556  1.3515 -2.0685
   10MOL    H48 3126   5.041   5.066   2.642 -0.7648  0.3135  1.4801
   10MOL    H49 3127   5.146   5.013   2.417 -1.6138  0.2232 -2.3527
   10MOL    H50 3128   5.268   5.123   2.228 -0.9287  0.3409 -2.0081
   10MOL    H51 3129   5.364   5.357   1.971 -0.9410  0.9549 -0.0041
   10MOL    H52 3130   5.346   5.201   2.053  0.0545  0.6917  0.0722
   10MOL    C53 3131   5.169   5.293   1.991  0.2926 -0.0281  0.7794
   10MOL    C54 3132   5.097   5.427   2.007  0.1137 -0.1626  1.4632
   10MOL    C55 3133   5.135   5.536   1.924 -0.0066  0.5820  0.2762
   10MOL    C56 3134   5.062   5.655   1.946 -0.0392  0.3135 -0.8351
   10MOL    C57 3135   4.959   5.671   2.036 -0.0444  0.0005 -0.6404
   10MOL    O58 3136   4.890   5.789   2.048  0.1723  0.7076 -0.5497
   10MOL    C59 3137   4.927   5.561   2.117  0.0106  0.1814 -0.8463
   10MOL    C60 3138   4.998   5.439   2.106  0.0980 -0.5332  0.0515
   10MOL    C61 3139   5.171   5.247   1.848  0.0389  0.6977  1.4776
   10MOL    H62 3140   5.117   5.212   2.041  1.0713 -1.9179 -1.3508
   10MOL    H63 3141   5.217   5.533   1.855  1.2170  2.4343  1.5751
   10MOL    H64 3142   5.079   5.742   1.883 -0.4291  0.4471 -0.7546
   10MOL    H65 3143   4.823   5.795   2.114  0.4100  1.2855 -0.3602
   10MOL    H66 3144   4.855   5.575   2.196 -0.4185 -0.6304 -1.0848
   10MOL    H67 3145   4.969   5.358   2.171 -0.4309  1.1574  1.9868
   10MOL    H68 3146   5.224   5.153   1.830 -1.7604 -0.0129 -0.2952
   10MOL    H69 3147   5.218   5.321   1.784  0.7064 -0.7780  0.2293
   10MOL    C70 3148   5.027   5.225   1.778 -0.0853  0.1569  0.2692
   10MOL    C71 3149   4.969   5.088   1.802  0.7705 -0.0969 -0.6954
   10MOL    C72 3150   5.034   4.967   1.765 -0.6589  0.1595 -0.6390
   10MOL    C73 3151   4.979   4.837   1.782  0.0727  0.1413 -0.4575
   10MOL    C74 3152   4.840   4.830   1.818  0.7026 -0.0493 -0.0335
   10MOL    O75 3153   4.769   4.708   1.831 -0.1560  0.0063  0.0147
   10MOL    C76 3154   4.774   4.949   1.850  0.4270  0.4492  0.2782
   10MOL    C77 3155   4.837   5.077   1.847  0.3313  0.4408 -0.7950
   10MOL    C78 3156   5.044   5.248   1.626  0.6940  0.3823  0.1704
   10MOL    H79 3157   4.953   5.300   1.806  0.3155  0.0970  1.5540
   10MOL    H80 3158   5.137   4.976   1.733 -1.0940  3.6406 -1.2719
   10MOL    H81 3159   5.017   4.744   1.743 -2.1564 -0.8960 -0.2031
   10MOL    H82 3160   4.692   4.731   1.880  0.1598  1.0372  0.0501
   10MOL    H83 3161   4.669   4.941   1.873  0.8141 -0.6872  1.7760
   10MOL    H84 3162   4.779   5.168   1.851  1.4177  1.1386 -0.3539
   10MOL    H85 3163   4.943   5.220   1.596  1.1222 -1.8167  0.6344
   10MOL    H86 3164   5.102   5.172   1.573  0.1075  0.7260 -0.9764
   10MOL    C87 3165   5.070   5.388   1.570  0.0266 -0.0218 -0.5970
   10MOL    C88 3166   4.949   5.439   1.503  0.0958  0.5457 -0.3367
   10MOL    C89 3167   4.871   5.539   1.563 -0.2879  0.2845 -0.0184
   10MOL    C90 3168   4.762   5.595   1.501  0.2575 -0.8780  0.0158
   10MOL    C91 3169   4.726   5.544   1.381  0.4817  0.3101 -0.6092
   10MOL    O92 3170   4.609   5.581   1.322  0.5800  0.1798 -0.3366
   10MOL    C93 3171   4.795   5.440   1.326  1.5022  0.2686  0.3270
   10MOL    C94 3172   4.908   5.386   1.380  0.0199 -0.1033 -0.7957
   10MOL    C95 3173   5.199   5.414   1.478 -0.1169 -0.1008  0.3067
   10MOL    H96 3174   5.092   5.457   1.651  0.3398  0.4410 -1.0757
   10MOL    H97 3175   4.902   5.581   1.657  0.1254  1.0823 -0.5110
   10MOL    H98 3176   4.705   5.680   1.535 -1.6178 -1.3863 -1.7464
   10MOL    H99 3177   4.594   5.536   1.240  1.9709 -0.2274 -0.3891
   10MOL   H100 3178   4.767   5.390   1.234 -0.6577  2.1563 -0.0761
   10MOL   H101 3179   4.965   5.308   1.331  2.5163  3.7470 -4.3042
   10MOL   H102 3180   5.192   5.371   1.378 -1.2988  0.7563 -0.0047
   10MOL   H103 3181   5.200   5.521   1.459  1.6207 -0.2544 -0.5400
   10MOL   C104 3182   5.339   5.382   1.525 -0.3128  0.1394 -0.5040
   10MOL   C105 3183   5.440   5.499   1.509  0.5422  0.3957  0.5165
   10MOL   C106 3184   5.502   5.520   1.382 -0.2706 -0.2170  0.5152
   10MOL   C107 3185   5.595   5.624   1.375  0.0699 -0.6854  1.2958
   10MOL   C108 3186   5.632   5.706   1.480  0.1394 -0.1509  0.5840
   10MOL   O109 3187   5.736   5.793   1.465  0.3784  0.2842  0.7282
   10MOL   C110 3188   5.573   5.684   1.606  0.4987 -0.4422 -0.0737
   10MOL   C111 3189   5.485   5.577   1.618 -0.2399  0.0546 -0.1290
   10MOL   C112 3190   5.374   5.243   1.468 -0.2761 -0.2520  0.2688
   10MOL   H113 3191   5.337   5.369   1.633 -0.7516 -2.4566 -0.8146
   10MOL   H114 3192   5.476   5.456   1.300  0.7623  2.0026 -1.6017
   10MOL   H115 3193   5.645   5.639   1.280 -1.3572  0.4388  0.6959
   10MOL   H116 3194   5.750   5.827   1.378  1.2836 -1.0629  0.3324
   10MOL   H117 3195   5.597   5.752   1.686 -1.1516 -0.1055  0.1546
   10MOL   H118 3196   5.439   5.553   1.712 -0.9226 -2.0966 -0.9916
   10MOL   H119 3197   5.368   5.245   1.359  4.1264 -0.5589 -0.0867
   10MOL   H120 3198   5.313   5.156   1.491  0.5881 -0.9846 -0.1511
   10MOL   C121 3199   5.513   5.193   1.496  0.3986 -0.0350  0.3730
   10MOL   C122 3200   5.532   5.142   1.643 -0.0547  0.6668 -0.4181
   10MOL   C123 3201   5.525   5.002   1.671  0.2650 -0.3589 -0.0309
   10MOL   C124 3202   5.563   4.956   1.800  0.6108  0.5198 -0.2177
   10MOL   C125 3203   5.609   5.045   1.892  0.6892 -0.3395 -0.6030
   10MOL   O126 3204   5.646   5.008   2.018  0.3159  0.7471 -0.2160
   10MOL   C127 3205   5.616   5.185   1.862  0.8277 -0.0411  0.4217
   10MOL   C128 3206   5.579   5.234   1.735  0.0182  0.2507 -0.4371
   10MOL   C129 3207   5.555   5.091   1.385 -0.8902  0.1519  0.3730
   10MOL   H130 3208   5.583   5.276   1.485  0.7775 -0.3105  0.6975
   10MOL   H131 3209   5.494   4.937   1.590 -3.2124  0.6297  0.4593
   10MOL   H132 3210   5.565   4.851   1.824 -0.2657  0.9140  1.7074
   10MOL   H133 3211   5.668   4.916   2.022 -1.6892  0.2180 -0.9244
   10MOL   H134 3212   5.649   5.263   1.930  0.4573 -0.4296  1.0503
   10MOL   H135 3213   5.598   5.336   1.706 -1.4708  0.6475 -0.0632
   10MOL   H136 3214   5.521   5.136   1.292  1.1871  0.9721 -0.0159
   10MOL   H137 3215   5.506   4.994   1.394  0.5861 -1.0360 -3.3270
   10MOL   C138 3216   5.703   5.066   1.352  0.3326 -0.6980  0.0014
   10MOL   C139 3217   5.708   4.995   1.213 -0.7705  0.5629  1.2112
   10MOL   C140 3218   5.647   4.873   1.178 -0.4440  0.6695  0.2057
   10MOL   C141 3219   5.643   4.820   1.045 -0.8141  0.5442 -0.3259
   10MOL   C142 3220   5.720   4.885   0.945 -0.2776  0.2163  0.1407
   10MOL   O143 3221   5.718   4.842   0.818  0.2927 -0.1136  0.1919
   10MOL   C144 3222   5.795   5.001   0.983  0.2974  0.0418  0.1406
   10MOL   C145 3223   5.776   5.062   1.108 -0.2197  0.8144  0.2424
   10MOL   C146 3224   5.758   4.976   1.471  0.0329 -0.0150  0.0014
   10MOL   H147 3225   5.758   5.160   1.352 -0.3104 -0.3125  0.3184
   10MOL   H148 3226   5.591   4.816   1.251 -1.1594  0.7368 -0.2762
   10MOL   H149 3227   5.585   4.732   1.023  1.0151 -0.7170 -0.2145
   10MOL   H150 3228   5.799   4.806   0.786  0.0780 -0.6960  0.2999
   10MOL   H151 3229   5.850   5.052   0.905  0.8650 -2.8004 -1.3899
   10MOL   H152 3230   5.816   5.161   1.125  2.3428  0.1115 -1.4208
   10MOL   H153 3231   5.686   4.897   1.492  0.4454 -0.1722  0.8416
   10MOL   H154 3232   5.781   5.037   1.558 -0.7004 -2.2244  1.7761
   10MOL   C155 3233   5.883   4.901   1.428  0.5405  0.0075 -0.3312
   10MOL   C156 3234   5.923   4.802   1.536 -0.8176 -0.2388  0.2578
   10MOL   C157 3235   5.889   4.667   1.521 -0.1499  0.6249  0.1375
   10MOL   C158 3236   5.929   4.570   1.618  0.0976 -0.1257  0.5319
   10MOL   C159 3237   6.021   4.599   1.723  0.0640  0.8740  0.2839
   10MOL   O160 3238   6.069   4.513   1.822  0.0680 -0.3985  0.2044
   10MOL   C161 3239   6.074   4.730   1.718 -0.3948 -0.0058  0.3461
   10MOL   C162 3240   6.010   4.836   1.643 -0.3386 -0.5029 -0.1006
   10MOL   C163 3241   5.998   4.999   1.390  0.7120 -0.0449 -0.9402
   10MOL   H164 3242   5.869   4.836   1.342 -1.2186  1.6622 -1.3176
   10MOL   H165 3243   5.824   4.640   1.440  2.8315  0.1569 -2.1974
   10MOL   H166 3244   5.871   4.480   1.620  0.2571 -0.2059  2.0383
   10MOL   H167 3245   6.147   4.549   1.860  0.4860 -1.7916  0.6884
   10MOL   H168 3246   6.150   4.763   1.788  0.8218  1.9378 -1.8198
   10MOL   H169 3247   6.041   4.938   1.652  1.2823 -1.1303  1.6701
   10MOL   H170 3248   6.019   5.079   1.461  1.0795  0.3785 -1.5297
   10MOL   H171 3249   5.960   5.048   1.301 -0.2164  3.3356  1.2269
   10MOL   C172 3250   6.138   4.936   1.358 -0.6846  0.4341  0.7419
   10MOL   C173 3251   6.232   5.048   1.309  0.1141  0.0757  0.2906
   10MOL   C174 3252   6.210   5.097   1.178 -0.6180 -0.5610  0.6100
   10MOL   C175 3253   6.307   5.181   1.122 -0.2925 -0.1904  0.5271
   10MOL   C176 3254   6.417   5.220   1.197  0.0589  0.5497 -0.2786
   10MOL   O177 3255   6.506   5.297   1.128  0.0246 -0.5647 -0.4584
   10MOL   C178 3256   6.437   5.178   1.329  0.7194  0.2397  0.2197
   10MOL   C179 3257   6.343   5.086   1.385  0.2292 -0.2965 -0.3292
   10MOL   C180 3258   6.141   4.808   1.273  0.4412 -0.2664  1.0350
   10MOL   H181 3259   6.177   4.902   1.454 -1.2738  0.0445  0.8431
   10MOL   H182 3260   6.115   5.088   1.128 -0.8120 -0.8140  1.0135
   10MOL   H183 3261   6.307   5.209   1.017 -0.1586 -0.8876  0.3334
   10MOL   H184 3262   6.478   5.307   1.039 -1.1596 -2.2488 -0.2975
   10MOL   H185 3263   6.529   5.204   1.379  0.2562 -0.3024  1.3819
   10MOL   H186 3264   6.361   5.036   1.479 -0.8892  0.1698  0.1440
   10MOL   H187 3265   6.081   4.848   1.191  1.9030  1.0603  0.5820
   10MOL   H188 3266   6.092   4.715   1.299 -1.7767  0.7658  0.6485
   10MOL   C189 3267   6.289   4.767   1.238  0.0144 -0.2750  0.1805
   10MOL   C190 3268   6.356   4.717   1.364 -0.4784  0.1059 -1.2460
   10MOL   C191 3269   6.300   4.615   1.446 -0.0893 -0.0040 -0.0440
   10MOL   C192 3270   6.367   4.583   1.571  0.2074 -0.0951  0.2536
   10MOL   C193 3271   6.478   4.654   1.607  0.1891 -0.1268 -0.2297
   10MOL   O194 3272   6.518   4.637   1.735  0.4191 -0.0755 -0.3719
   10MOL   C195 3273   6.534   4.749   1.522  0.4268 -0.7665  0.1190
   10MOL   C196 3274   6.476   4.781   1.398 -0.3386  0.1729  0.6174
   10MOL   C197 3275   6.295   4.658   1.125  0.1345  0.2221 -0.6874
   10MOL   H198 3276   6.337   4.857   1.200 -0.9368  0.1324 -0.0571
   10MOL   H199 3277   6.221   4.552   1.411  1.5011 -1.1631 -1.6071
   10MOL   H200 3278   6.322   4.510   1.637 -1.4845  0.3720 -0.3588
   10MOL   H201 3279   6.565   4.708   1.777  0.4833  0.0299 -0.6175
   10MOL   H202 3280   6.610   4.816   1.559  0.4343 -0.1865 -0.9074
   10MOL   H203 3281   6.519   4.860   1.338 -0.0565  0.4654  1.1991
   10MOL   H204 3282   6.204   4.652   1.064 -0.9867 -1.2588  1.1065
   10MOL   H205 3283   6.299   4.563   1.176 -0.4252  0.9491  0.7362
   10MOL   C206 3284   6.418   4.672   1.027  0.5542 -0.3378  0.1241
   10MOL   C207 3285   6.419   4.808   0.956  0.3595 -0.5104  0.1338
   10MOL   C208 3286   6.322   4.839   0.859 -0.3160  0.3419 -0.2112
   10MOL   C209 3287   6.321   4.965   0.794 -0.6858  0.7516 -0.1990
   10MOL   C210 3288   6.427   5.055   0.829  0.3037 -0.6656 -0.0617
   10MOL   O211 3289   6.430   5.177   0.763  0.2008  0.5294  0.2245
   10MOL   C212 3290   6.523   5.022   0.926 -0.3120  0.2100 -0.1392
   10MOL   C213 3291   6.520   4.896   0.992 -0.2291 -0.4422 -0.5887
   10MOL   C214 3292   6.421   4.551   0.935  0.3416 -0.4308  0.0915
   10MOL   H215 3293   6.499   4.662   1.100  0.2472  1.3451  0.7365
   10MOL   H216 3294   6.244   4.768   0.836 -0.9589  0.6039  1.1414
   10MOL   H217 3295   6.245   4.985   0.720  1.3664 -0.5070 -2.7504
   10MOL   H218 3296   6.350   5.188   0.714  1.0884 -1.7390 -1.8509
   10MOL   H219 3297   6.598   5.093   0.956  1.9626 -1.0468 -2.6407
   10MOL   H220 3298   6.588   4.869   1.073 -0.5340  0.5979  0.0173
   10MOL   H221 3299   6.324   4.524   0.893  0.3530 -2.9313  1.5763
   10MOL   H222 3300   6.441   4.474   1.010 -0.1911  0.0927  0.7770
   10MOL   C223 3301   6.526   4.531   0.823 -1.0279  0.3873 -0.7862
   10MOL   C224 3302   6.507   4.611   0.701  0.1861 -0.2126  0.0446
   10MOL   C225 3303   6.586   4.731   0.674 -0.4738 -0.6550 -0.1197
   10MOL   C226 3304   6.559   4.806   0.556  0.8006  0.3604 -0.2964
   10MOL   C227 3305   6.456   4.765   0.473 -0.6724 -0.0744 -0.2096
   10MOL   O228 3306   6.432   4.838   0.365  0.0716  0.2164 -0.4353
   10MOL   C229 3307   6.386   4.648   0.495  0.4756  0.1353 -0.1528
   10MOL   C230 3308   6.406   4.573   0.609  0.0505  0.0617 -0.7313
   10MOL   C231 3309   6.526   4.371   0.786 -0.3057 -0.1434  0.3103
   10MOL   H232 3310   6.620   4.556   0.873 -1.5342 -2.3816  1.6351
   10MOL   H233 3311   6.658   4.765   0.747 -0.3571  1.8983 -1.3790
   10MOL   H234 3312   6.618   4.894   0.534 -0.5706  1.0192 -1.4559
   10MOL   H235 3313   6.401   4.779   0.298  2.8747 -0.4132 -1.2243
   10MOL   H236 3314   6.309   4.615   0.427  1.4959 -2.3030 -0.1607
   10MOL   H237 3315   6.338   4.490   0.621 -0.6877  0.6376 -0.8987
   10MOL   H238 3316   6.552   4.327   0.882  0.9497 -0.9383 -0.3849
   10MOL   H239 3317   6.422   4.350   0.760  0.0610  0.2119 -1.5486
   10MOL   C240 3318   6.635   4.330   0.681  0.0911  0.0452  0.1355
   10MOL   C241 3319   6.761   4.281   0.744 -0.7223  0.2185  0.5122
   10MOL   C242 3320   6.849   4.382   0.796  0.1468 -0.2994 -0.2430
   10MOL   C243 3321   6.955   4.351   0.882  0.3324  0.6350  0.6011
   10MOL   C244 3322   6.982   4.217   0.919 -0.2313 -0.6599  0.4234
   10MOL   O245 3323   7.086   4.191   1.000  0.1890 -0.0534  0.0720
   10MOL   C246 3324   6.893   4.118   0.877  0.0076  0.5569  0.0856
   10MOL   C247 3325   6.787   4.152   0.790 -0.5107  0.3675  0.7258
   10MOL   C248 3326   6.566   4.227   0.583  0.1087  0.4307 -0.2304
   10MOL   H249 3327   6.667   4.412   0.617  0.7941  0.8464  1.4968
   10MOL   H250 3328   6.830   4.482   0.759 -0.2011  0.1759  1.1842
   10MOL   H251 3329   7.016   4.430   0.924  2.1118 -0.0930 -0.5725
   10MOL   H252 3330   7.107   4.259   1.063  0.5804  1.2443 -1.4298
   10MOL   H253 3331   6.895   4.017   0.917  2.3510  1.2256  1.7576
   10MOL   H254 3332   6.726   4.070   0.758  1.0178 -0.9212  1.0557
   10MOL   H255 3333   6.546   4.131   0.630  0.5609 -0.3835 -1.6830
   10MOL   H256 3334   6.474   4.263   0.537  1.5488  1.3649 -2.4522
   10MOL   C257 3335   6.658   4.186   0.466 -0.0695  0.3543  0.1068
   10MOL   C258 3336   6.612   4.054   0.391  0.5704  0.1633 -0.4344
   10MOL   C259 3337   6.484   4.046   0.327  0.4664  0.4238  0.0435
   10MOL   C260 3338   6.448   3.930   0.262 -0.3045  0.4327  0.1301
   10MOL   C261 3339   6.533   3.813   0.259  0.0471 -0.1614  0.2680
   10MOL   O262 3340   6.501   3.693   0.194 -0.2213 -0.4297 -0.1200
   10MOL   C263 3341   6.654   3.817   0.328 -0.0448 -0.1134  0.3575
   10MOL   C264 3342   6.694   3.939   0.394 -0.2974  0.5744 -0.1646
   10MOL   C265 3343   6.691   4.300   0.365 -0.2576 -0.9761 -0.5333
   10MOL   H266 3344   6.748   4.151   0.518  1.9358  1.0240 -2.7860
   10MOL   H267 3345   6.414   4.129   0.330  1.2194  1.1545 -1.9720
   10MOL   H268 3346   6.351   3.920   0.215 -1.0373 -1.1434  1.8888
   10MOL   H269 3347   6.563   3.630   0.227  0.6438 -0.4207 -1.6969
   10MOL   H270 3348   6.727   3.738   0.338  0.3555  0.3146  0.8274
   10MOL   H271 3349   6.798   3.942   0.423 -0.2027  2.5756 -0.6309
   10MOL   H272 3350   6.639   4.392   0.390 -1.3382 -1.9661  0.9048
   10MOL   H273 3351   6.655   4.281   0.264 -0.2919  2.0506 -1.1160
   10MOL   C274 3352   6.837   4.339   0.375  0.1229  1.0977  0.0719
   10MOL   C275 3353   6.867   4.481   0.353  0.0501 -0.4148 -0.8982
   10MOL   C276 3354   6.807   4.553   0.251  0.0684  0.0363 -0.0899
   10MOL   C277 3355   6.836   4.689   0.231 -0.0950 -0.6318 -0.1376
   10MOL   C278 3356   6.931   4.748   0.313  0.1092  0.7691  1.0717
   10MOL   O279 3357   6.970   4.873   0.288  0.0303  0.0162 -0.5996
   10MOL   C280 3358   6.996   4.677   0.414  0.8662 -0.2870 -0.1934
   10MOL   C281 3359   6.969   4.539   0.431  0.2095  0.5120 -0.3128
   10MOL   C282 3360   6.945   4.235   0.321 -0.2139  0.3801 -0.2339
   10MOL   H283 3361   6.846   4.337   0.484  1.9241 -1.4482 -0.0770
   10MOL   H284 3362   6.737   4.515   0.178 -0.8891 -0.6615  1.1737
   10MOL   H285 3363   6.784   4.742   0.154 -1.0143  0.5730  1.2836
   10MOL   H286 3364   6.908   4.916   0.231  0.4552  0.7288 -0.5408
   10MOL   H287 3365   7.065   4.711   0.489 -1.4446  3.0904  0.5328
   10MOL   H288 3366   7.021   4.477   0.503  1.2926  0.5582 -1.0570
   10MOL   H289 3367   7.038   4.252   0.375  1.2204 -1.0390 -2.1892
   10MOL   H290 3368   6.919   4.133   0.351 -1.7699 -0.1416 -3.1495
   10MOL   C291 3369   6.967   4.241   0.165  0.5503 -0.1595 -0.4496
   10MOL   C292 3370   6.850   4.202   0.084 -0.4160  0.6821  0.6329
   10MOL   C293 3371   6.776   4.279   8.025 -0.2211 -0.2486  0.2967
   10MOL   C294 3372   6.666   4.226   7.962 -0.3773  0.1560  0.6690
   10MOL   C295 3373   6.636   4.088   7.979 -0.1183  0.3650  0.4508
   10MOL   O296 3374   6.532   4.046   7.912  0.8748 -0.3039 -0.0014
   10MOL   C297 3375   6.703   4.009   0.033  0.6839  0.8728  0.1457
   10MOL   C298 3376   6.813   4.066   0.102  1.2370  0.1178  0.1585
   10MOL   C299 3377   7.101   4.180   0.120  0.3345  0.1873  1.0943
   10MOL   H300 3378   6.980   4.346   0.139 -0.4076  0.3039  0.8643
   10MOL   H301 3379   6.803   4.383   8.019  0.1957 -0.3944 -0.3924
   10MOL   H302 3380   6.617   4.284   7.885  3.5901  1.0675 -1.2778
   10MOL   H303 3381   6.492   3.968   7.948 -0.4762  1.0435  1.5242
   10MOL   H304 3382   6.670   3.907   0.040  0.8931  0.5351 -2.9724
   10MOL   H305 3383   6.865   4.006   0.174 -0.6062 -0.1427  1.3231
   10MOL   H306 3384   7.098   4.179   0.011 -2.1872 -0.9225  1.1417
   10MOL   H307 3385   7.099   4.077   0.156 -0.4236 -0.4231 -0.6809
   10MOL   C308 3386   7.234   4.247   0.160  0.3560  0.4150  0.2111
   10MOL   C309 3387   7.223   4.395   0.171  1.1456  0.5392 -0.0837
   10MOL   C310 3388   7.253   4.463   0.287  0.5862 -0.5834 -0.0969
   10MOL   C311 3389   7.263   4.600   0.285  1.2732  0.0083  0.3110
   10MOL   C312 3390   7.265   4.672   0.165  0.0366 -0.5116 -0.3455
   10MOL   O313 3391   7.273   4.806   0.157 -0.3028  0.1386  0.1780
   10MOL   C314 3392   7.234   4.599   0.046  0.3642  1.1008  0.5115
   10MOL   C315 3393   7.213   4.463   0.048 -0.0780 -0.5909  0.5928
   10MOL   C316 3394   7.351   4.210   0.062  0.5811 -0.9557 -0.2546
   10MOL   H317 3395   7.259   4.202   0.256 -1.8024 -1.2871  0.0005
   10MOL   H318 3396   7.250   4.421   0.386  0.2371 -1.3202 -0.4212
   10MOL   H319 3397   7.292   4.654   0.375 -2.2561  1.1390  0.8354
   10MOL   H320 3398   7.273   4.835   0.247  1.6005  1.3286 -0.1713
   10MOL   H321 3399   7.234   4.649   7.988 -1.9299 -0.8317 -0.5401
   10MOL   H322 3400   7.198   4.418   7.989  2.8336 -0.5008  0.0510
   10MOL   H323 3401   7.319   4.226   7.997 -0.4852 -1.4018  0.0047
   10MOL   H324 3402   7.366   4.102   0.051 -1.1399 -1.2485  0.1579
   10MOL   C325 3403   7.492   4.278   0.082 -0.2971  0.8664 -0.3491
   10MOL   C326 3404   7.560   4.288   7.982  0.5924  0.6551 -0.2552
   10MOL   C327 3405   7.555   4.404   7.908 -0.4273  0.2735  0.1290
   10MOL   C328 3406   7.613   4.402   7.778 -0.0956 -0.9162 -0.3036
   10MOL   C329 3407   7.668   4.290   7.711 -0.4456 -0.1334 -0.5665
   10MOL   O330 3408   7.709   4.289   7.582  0.1144 -0.3757 -0.2257
   10MOL   C331 3409   7.669   4.169   7.787  1.0696 -0.0519  0.2908
   10MOL   C332 3410   7.609   4.169   7.920  0.5820  0.3136  0.0912
   10MOL   C333 3411   7.579   4.226   0.197 -0.1513  0.3072  0.5281
   10MOL   H334 3412   7.476   4.381   0.113  0.4069  0.3202  1.9876
   10MOL   H335 3413   7.512   4.497   7.942  0.8021  1.0244 -0.3247
   10MOL   H336 3414   7.607   4.499   7.731 -2.5648  0.2003  2.1476
   10MOL   H337 3415   7.649   4.338   7.528  1.0111  0.0194 -0.8731
   10MOL   H338 3416   7.713   4.080   7.742  1.5146  0.6409 -0.6715
   10MOL   H339 3417   7.607   4.076   7.975  0.7926 -0.9195 -1.9228
   10MOL   H340 3418   7.595   4.119   0.186  0.7025  0.5131 -0.3119
   10MOL   H341 3419   7.531   4.251   0.291 -0.3821 -3.2831  1.4478
   10MOL   H342 3420   7.678   4.271   0.196 -0.9223  2.0193 -1.3211
   11MOL     C1 3421   5.934   4.889   2.445 -0.2891 -0.4448 -0.6778
   11MOL     C2 3422   5.897   4.817   2.315 -0.2114 -0.0223 -0.4443
   11MOL     C3 3423   5.979   4.835   2.202 -0.2898 -0.2354 -0.3499
   11MOL     C4 3424   5.966   4.758   2.084  0.5174  0.2687 -0.5315
   11MOL     C5 3425   5.858   4.663   2.078 -0.2288  0.6295 -0.2555
   11MOL     O6 3426   5.844   4.579   1.975 -0.3385  0.0323  0.0159
   11MOL     C7 3427   5.764   4.654   2.181  0.8189  0.3224 -0.0410
   11MOL     C8 3428   5.792   4.722   2.304  0.2124 -0.3786  0.1290
   11MOL     C9 3429   6.088   4.876   2.476  0.1420  0.0252  0.0810
   11MOL    H10 3430   5.908   4.993   2.424 -0.8872  0.0373  2.1417
   11MOL    H11 3431   6.062   4.905   2.205 -0.9765  0.5580  0.6315
   11MOL    H12 3432   6.037   4.770   2.004  0.3052  2.4252 -0.4053
   11MOL    H13 3433   5.904   4.584   1.902 -1.0124 -1.1192 -0.6297
   11MOL    H14 3434   5.680   4.586   2.175 -0.5992  2.0824 -0.8142
   11MOL    H15 3435   5.728   4.704   2.390  0.0277 -0.9130 -0.1200
   11MOL    H16 3436   6.110   4.938   2.563  0.6426 -0.4634  0.3064
   11MOL    H17 3437   6.142   4.928   2.397  1.7533 -0.6904  0.6799
   11MOL    H18 3438   5.872   4.845   2.524  0.1459 -1.3082 -0.8151
   11MOL    C19 3439   6.148   4.737   2.486  1.2939  0.2895 -0.4537
   11MOL    C20 3440   6.082   4.653   2.593  0.2468  0.1577  0.8407
   11MOL    C21 3441   6.103   4.681   2.728 -1.0602  0.0644 -0.1251
   11MOL    C22 3442   6.055   4.598   2.831 -0.8452  0.3960  0.4610
   11MOL    C23 3443   5.984   4.485   2.793  0.0693  0.3893 -0.1606
   11MOL    O24 3444   5.946   4.395   2.891  0.1468 -0.1781  0.1560
   11MOL    C25 3445   5.954   4.456   2.659 -0.2620  0.2564 -0.4193
   11MOL    C26 3446   6.011   4.537   2.562  0.6084  0.2778  0.0541
   11MOL    C27 3447   6.300   4.752   2.512  0.5098 -0.5619 -0.4807
   11MOL    H28 3448   6.141   4.692   2.387  0.0588  2.8971 -1.6101
   11MOL    H29 3449   6.147   4.776   2.753 -0.4523 -0.3243  0.2807
   11MOL    H30 3450   6.078   4.618   2.934 -1.9583 -0.2608  0.8418
   11MOL    H31 3451   5.977   4.417   2.977  1.3457  1.1986 -0.6208
   11MOL    H32 3452   5.910   4.362   2.628  2.3905 -0.1596 -3.2605
   11MOL    H33 3453   6.002   4.501   2.460  1.1583  1.9427 -0.5874
   11MOL    H34 3454   6.350   4.656   2.526  0.7666 -0.6080 -1.6990
   11MOL    H35 3455   6.323   4.803   2.605 -0.4471 -1.0773  0.0443
   11MOL    C36 3456   6.378   4.811   2.388 -0.1309  0.3544 -0.0401
   11MOL    C37 3457   6.357   4.725   2.261 -0.6219 -0.9045  0.4516
   11MOL    C38 3458   6.319   4.587   2.254 -0.4195  0.0765 -0.2690
   11MOL    C39 3459   6.303   4.518   2.136  0.0482  0.4057  1.3211
   11MOL    C40 3460   6.343   4.586   2.020  0.1311  0.2019 -0.3518
   11MOL    O41 3461   6.339   4.520   1.901 -0.2638 -0.5194  0.9679
   11MOL    C42 3462   6.387   4.719   2.019 -0.1468  0.0519  0.2378
   11MOL    C43 3463   6.377   4.797   2.137 -0.1344 -0.3644 -0.4179
   11MOL    C44 3464   6.525   4.825   2.421 -0.4762 -0.6419 -0.2234
   11MOL    H45 3465   6.345   4.912   2.362  0.5682  1.0446  1.6828
   11MOL    H46 3466   6.309   4.522   2.340 -3.4387  0.1217 -0.5393
   11MOL    H47 3467   6.270   4.416   2.144  1.2997 -0.1952 -0.7902
   11MOL    H48 3468   6.410   4.547   1.845 -1.9347  0.8401 -0.5637
   11MOL    H49 3469   6.415   4.763   1.924 -0.6655 -0.9933 -0.4204
   11MOL    H50 3470   6.392   4.904   2.130 -1.1812 -0.1807  0.0729
   11MOL    H51 3471   6.551   4.784   2.519  0.3254 -0.8054 -0.4970
   11MOL    H52 3472   6.583   4.761   2.354 -0.8771 -1.1436 -0.0929
   11MOL    C53 3473   6.591   4.964   2.410  0.2001  0.3193  0.7374
   11MOL    C54 3474   6.511   5.083   2.468  0.2087 -0.0917 -0.9557
   11MOL    C55 3475   6.477   5.191   2.384  0.1072 -0.3794  0.0240
   11MOL    C56 3476   6.403   5.301   2.430 -1.0235 -0.1247  0.5459
   11MOL    C57 3477   6.374   5.314   2.572  0.0190 -0.9623  0.1530
   11MOL    O58 3478   6.300   5.414   2.624 -0.4414  0.0713 -0.0153
   11MOL    C59 3479   6.401   5.209   2.656  0.6529 -0.2964 -0.1213
   11MOL    C60 3480   6.471   5.093   2.605 -0.5741  0.1654 -0.0292
   11MOL    C61 3481   6.729   4.958   2.472  0.3959  0.0790  0.1662
   11MOL    H62 3482   6.593   4.983   2.302 -0.2855 -1.6342  0.3640
   11MOL    H63 3483   6.512   5.183   2.283 -2.1369 -2.5256 -0.6404
   11MOL    H64 3484   6.387   5.385   2.364 -1.4694  0.6022  1.5598
   11MOL    H65 3485   6.260   5.465   2.556  0.0877 -0.4499 -0.7321
   11MOL    H66 3486   6.365   5.201   2.758 -1.0893  0.4156 -0.6812
   11MOL    H67 3487   6.477   5.004   2.665  2.0558 -0.3504 -0.9938
   11MOL    H68 3488   6.777   4.864   2.444 -2.5304 -1.4820  0.2562
   11MOL    H69 3489   6.702   4.942   2.576 -1.1458  1.4255 -0.0192
   11MOL    C70 3490   6.830   5.076   2.457  0.1336  0.5709 -0.0089
   11MOL    C71 3491   6.881   5.087   2.313  0.4349 -0.0669 -0.3737
   11MOL    C72 3492   6.859   5.211   2.247 -0.2567 -0.2528  0.1375
   11MOL    C73 3493   6.906   5.229   2.115 -0.3551 -0.3279 -0.1187
   11MOL    C74 3494   6.974   5.125   2.052  0.8376  0.4726 -0.4997
   11MOL    O75 3495   7.009   5.136   1.918 -0.4766 -0.7752 -0.1641
   11MOL    C76 3496   7.004   5.003   2.118 -0.6546 -0.1550 -0.4166
   11MOL    C77 3497   6.951   4.986   2.247 -0.3581 -0.1315 -0.3530
   11MOL    C78 3498   6.950   5.057   2.559 -0.1631  0.4127  0.5077
   11MOL    H79 3499   6.782   5.172   2.478 -0.0251  0.0987  1.9041
   11MOL    H80 3500   6.799   5.285   2.297 -1.3781 -1.2512  0.3013
   11MOL    H81 3501   6.888   5.321   2.062 -2.6512  0.8840  2.5923
   11MOL    H82 3502   7.080   5.081   1.890 -0.9370 -0.5656 -1.7855
   11MOL    H83 3503   7.058   4.921   2.073  0.3114  1.7249 -2.7699
   11MOL    H84 3504   6.964   4.890   2.295  1.3280  0.1681 -0.1762
   11MOL    H85 3505   6.989   4.955   2.562 -0.3134  0.3577  0.5965
   11MOL    H86 3506   6.910   5.082   2.658  0.2398  0.2696  0.7111
   11MOL    C87 3507   7.056   5.172   2.540  0.4876 -0.1983  0.3945
   11MOL    C88 3508   7.153   5.150   2.424  0.0757 -0.1065 -0.8848
   11MOL    C89 3509   7.188   5.264   2.348  0.4636  0.6665  0.2734
   11MOL    C90 3510   7.287   5.247   2.242 -0.7355 -0.2675 -0.3794
   11MOL    C91 3511   7.348   5.124   2.222  0.7075  0.2084 -0.4953
   11MOL    O92 3512   7.438   5.103   2.124 -0.2338  0.4627  0.0169
   11MOL    C93 3513   7.315   5.015   2.302 -0.6995  0.5475 -0.0376
   11MOL    C94 3514   7.220   5.026   2.408  0.3018  0.3478  0.9123
   11MOL    C95 3515   7.132   5.204   2.665 -0.1273 -0.3200  0.0916
   11MOL    H96 3516   6.994   5.257   2.512 -0.0537 -0.4042  0.9508
   11MOL    H97 3517   7.151   5.361   2.381 -0.8895  0.6506 -1.1372
   11MOL    H98 3518   7.329   5.336   2.198 -2.3797  0.6006 -0.2378
   11MOL    H99 3519   7.482   5.021   2.140  1.3847  1.5902  1.4597
   11MOL   H100 3520   7.359   4.917   2.296 -0.5395  0.4861  1.7591
   11MOL   H101 3521   7.213   4.943   2.477  1.9483  0.0113  0.6919
   11MOL   H102 3522   7.192   5.124   2.708  2.3556  1.6697  0.4072
   11MOL   H103 3523   7.202   5.284   2.644 -2.2408  0.9932 -2.2027
   11MOL   C104 3524   7.052   5.261   2.781 -0.0117  0.4581 -0.6159
   11MOL   C105 3525   6.936   5.361   2.746  0.4074  0.2950 -0.1007
   11MOL   C106 3526   6.951   5.467   2.653 -0.3810  0.2637  0.6204
   11MOL   C107 3527   6.848   5.559   2.629 -0.3452  0.0786 -0.7105
   11MOL   C108 3528   6.726   5.543   2.692 -0.0344  0.4285  0.5410
   11MOL   O109 3529   6.622   5.630   2.673 -0.3586 -0.0954 -0.7623
   11MOL   C110 3530   6.706   5.436   2.783  0.1771 -0.2954  0.1633
   11MOL   C111 3531   6.807   5.344   2.805  0.4322  0.4583  0.5285
   11MOL   C112 3532   7.154   5.320   2.884 -0.4053 -0.6282 -0.2832
   11MOL   H113 3533   7.004   5.180   2.836  1.8545 -0.0379  0.3243
   11MOL   H114 3534   7.051   5.483   2.616 -0.1562 -0.0413  1.0897
   11MOL   H115 3535   6.865   5.654   2.582 -2.9582  0.8513 -0.1942
   11MOL   H116 3536   6.551   5.613   2.734  2.4285 -2.6263  1.9710
   11MOL   H117 3537   6.619   5.420   2.844 -0.4394 -1.5915 -1.0204
   11MOL   H118 3538   6.786   5.257   2.865  0.1456 -0.6064 -1.0908
   11MOL   H119 3539   7.087   5.370   2.954  2.2118  1.3578  0.9097
   11MOL   H120 3540   7.202   5.404   2.833  0.5310 -1.2280 -0.4200
   11MOL   C121 3541   7.245   5.214   2.945  0.4933 -0.2366  0.2080
   11MOL   C122 3542   7.385   5.209   2.869 -0.2140 -0.1021  0.2505
   11MOL   C123 3543   7.452   5.328   2.832  0.3387 -0.8459  0.3652
   11MOL   C124 3544   7.578   5.323   2.774  0.1246  0.0456 -0.2864
   11MOL   C125 3545   7.639   5.197   2.746  0.8814  0.2772  0.4326
   11MOL   O126 3546   7.763   5.194   2.697 -0.1157 -0.2007  0.2391
   11MOL   C127 3547   7.565   5.086   2.788 -0.7240  0.0034 -0.5337
   11MOL   C128 3548   7.437   5.087   2.842  0.3726  0.3178 -0.1266
   11MOL   C129 3549   7.264   5.230   3.095  0.3303 -0.7708 -0.3191
   11MOL   H130 3550   7.202   5.114   2.944  1.0265 -0.4898  1.2025
   11MOL   H131 3551   7.401   5.422   2.848 -0.8299 -1.3403 -0.4124
   11MOL   H132 3552   7.637   5.410   2.749  4.3910 -1.9972  2.0638
   11MOL   H133 3553   7.805   5.278   2.689  0.1646 -0.2070  1.5898
   11MOL   H134 3554   7.609   4.988   2.778  1.8131  0.9050  1.0564
   11MOL   H135 3555   7.392   4.993   2.869 -0.5880  1.4909  2.5370
   11MOL   H136 3556   7.280   5.336   3.113  2.5260 -0.7248 -2.2681
   11MOL   H137 3557   7.368   5.205   3.112  0.7674  1.4680  0.5221
   11MOL   C138 3558   7.156   5.165   3.186 -0.0527 -0.2989 -0.1568
   11MOL   C139 3559   7.039   5.271   3.206 -1.4759  0.4117 -0.1552
   11MOL   C140 3560   6.916   5.238   3.141 -0.5860 -0.5666  0.2806
   11MOL   C141 3561   6.808   5.333   3.149 -0.6158 -0.1105 -0.4515
   11MOL   C142 3562   6.822   5.453   3.223 -0.5218  0.5123 -0.2754
   11MOL   O143 3563   6.718   5.539   3.236 -0.2255 -0.2594  0.2274
   11MOL   C144 3564   6.939   5.477   3.297 -0.2558 -0.1896 -0.0389
   11MOL   C145 3565   7.053   5.388   3.288 -0.1239 -0.1786  0.2079
   11MOL   C146 3566   7.222   5.109   3.317 -0.1601 -0.4888 -0.7949
   11MOL   H147 3567   7.109   5.083   3.131 -1.1623 -1.0191  1.8223
   11MOL   H148 3568   6.896   5.149   3.084  0.9178 -0.8398  0.1652
   11MOL   H149 3569   6.711   5.306   3.109 -1.2756  0.0798  1.0159
   11MOL   H150 3570   6.665   5.552   3.158  0.4974  1.2333 -0.0296
   11MOL   H151 3571   6.965   5.566   3.354  1.7997  0.5712 -2.0839
   11MOL   H152 3572   7.152   5.418   3.321  0.1612 -0.8208 -0.0576
   11MOL   H153 3573   7.141   5.086   3.387  0.9306  1.9065  1.3468
   11MOL   H154 3574   7.272   5.193   3.365  1.8845 -0.9922 -1.9693
   11MOL   C155 3575   7.300   4.970   3.287  0.2244  0.2040 -0.0738
   11MOL   C156 3576   7.210   4.859   3.229 -0.5159 -0.2566  0.3059
   11MOL   C157 3577   7.226   4.827   3.095 -0.1619  0.4250  0.2278
   11MOL   C158 3578   7.163   4.714   3.035 -0.5637  0.3052 -0.0804
   11MOL   C159 3579   7.080   4.638   3.113 -0.2889  0.6902  0.1320
   11MOL   O160 3580   7.025   4.526   3.064 -0.1350 -0.0263  0.3341
   11MOL   C161 3581   7.066   4.669   3.250  1.2494  1.0015 -0.5469
   11MOL   C162 3582   7.126   4.781   3.306 -0.0539 -0.1876 -0.0333
   11MOL   C163 3583   7.390   4.918   3.396 -0.1167  0.1159 -0.0883
   11MOL   H164 3584   7.377   4.990   3.212  1.4513 -0.4347  1.0070
   11MOL   H165 3585   7.284   4.899   3.039  1.0041  1.4524  2.6934
   11MOL   H166 3586   7.181   4.697   2.930 -2.4060 -0.0895 -0.3408
   11MOL   H167 3587   6.944   4.492   3.099 -1.1101 -0.6718 -2.4152
   11MOL   H168 3588   7.004   4.617   3.322  1.8767 -0.4414 -1.0465
   11MOL   H169 3589   7.114   4.803   3.411  0.5647 -1.5977  0.3386
   11MOL   H170 3590   7.449   4.836   3.356  1.1466  0.3942  1.1886
   11MOL   H171 3591   7.335   4.880   3.482 -1.0049 -0.2247 -0.7945
   11MOL   C172 3592   7.496   5.023   3.461  0.3675  0.5439 -0.1827
   11MOL   C173 3593   7.574   5.089   3.351  0.2698 -0.7836 -0.0314
   11MOL   C174 3594   7.624   5.017   3.242 -0.6446  0.5290 -0.3053
   11MOL   C175 3595   7.691   5.087   3.141  0.7491 -0.1047 -0.0350
   11MOL   C176 3596   7.714   5.221   3.143  0.5779  0.0094  0.5364
   11MOL   O177 3597   7.783   5.284   3.046  0.0388  0.0294 -0.3047
   11MOL   C178 3598   7.674   5.289   3.262 -0.1253 -0.4700  0.2542
   11MOL   C179 3599   7.602   5.225   3.362  0.0903  0.5366  0.0668
   11MOL   C180 3600   7.596   4.949   3.547  0.1118  0.3001 -0.5901
   11MOL   H181 3601   7.440   5.102   3.510  1.4689  1.2870 -0.1313
   11MOL   H182 3602   7.622   4.909   3.240 -2.0329  0.5264  0.6511
   11MOL   H183 3603   7.724   5.030   3.056  2.0339  0.8485 -0.2057
   11MOL   H184 3604   7.806   5.224   2.976  1.1205 -1.8103  1.5887
   11MOL   H185 3605   7.691   5.395   3.255 -0.6728 -0.2406  2.1855
   11MOL   H186 3606   7.567   5.278   3.449 -0.7416  0.5837 -0.2886
   11MOL   H187 3607   7.668   5.028   3.566  1.2511 -0.9942  0.6632
   11MOL   H188 3608   7.629   4.869   3.481 -4.6760 -1.4293 -1.1104
   11MOL   C189 3609   7.541   4.889   3.678  0.0653  0.0546 -0.1126
   11MOL   C190 3610   7.608   4.754   3.708 -0.4244 -0.4732  0.4409
   11MOL   C191 3611   7.542   4.636   3.674 -0.2178  0.5641 -0.1646
   11MOL   C192 3612   7.603   4.509   3.700  0.2107  0.0431  0.4147
   11MOL   C193 3613   7.734   4.504   3.740 -0.3750  0.1518 -0.3320
   11MOL   O194 3614   7.795   4.379   3.745  0.9155 -0.3015  0.2202
   11MOL   C195 3615   7.804   4.617   3.759  0.5037  0.1861 -0.8706
   11MOL   C196 3616   7.748   4.745   3.738 -0.2201 -0.0049  0.1002
   11MOL   C197 3617   7.565   4.987   3.794 -0.2047 -0.1562 -0.4828
   11MOL   H198 3618   7.435   4.871   3.663  0.3050 -0.6086 -1.0711
   11MOL   H199 3619   7.439   4.624   3.644 -0.4359 -1.7687  1.4101
   11MOL   H200 3620   7.549   4.418   3.676 -0.6372  0.5446  0.3783
   11MOL   H201 3621   7.738   4.303   3.746 -1.3229  1.3543  1.8973
   11MOL   H202 3622   7.905   4.610   3.799 -0.4069  1.2674  1.7200
   11MOL   H203 3623   7.811   4.833   3.740  1.8088 -1.4556  2.3351
   11MOL   H204 3624   7.673   5.005   3.791 -0.5311  2.1321  0.1743
   11MOL   H205 3625   7.550   4.930   3.886 -1.8109 -2.4426 -2.1299
   11MOL   C206 3626   7.478   5.119   3.794 -0.1891 -0.3892 -0.5164
   11MOL   C207 3627   7.522   5.224   3.898  0.4735 -0.0625 -0.0258
   11MOL   C208 3628   7.511   5.365   3.869 -0.0367  0.3804  0.3838
   11MOL   C209 3629   7.544   5.460   3.973  0.5658 -0.0879  0.3126
   11MOL   C210 3630   7.561   5.415   4.102 -0.1627  0.0434 -0.5677
   11MOL   O211 3631   7.580   5.510   4.196  0.7086 -0.2030 -0.0967
   11MOL   C212 3632   7.555   5.274   4.135  0.3306  0.4913  0.8681
   11MOL   C213 3633   7.541   5.179   4.033  0.1265 -0.3166 -0.3162
   11MOL   C214 3634   7.324   5.100   3.791 -0.7765 -0.2618  0.0283
   11MOL   H215 3635   7.512   5.165   3.701 -1.5308 -1.5985 -1.6309
   11MOL   H216 3636   7.491   5.410   3.773 -3.4770 -0.6525  0.5575
   11MOL   H217 3637   7.540   5.566   3.954 -1.9221 -0.3400 -0.8646
   11MOL   H218 3638   7.578   5.592   4.150 -0.6382  0.7006  1.5064
   11MOL   H219 3639   7.554   5.243   4.239  0.6153  2.9690  1.6583
   11MOL   H220 3640   7.535   5.073   4.054  0.4595 -0.4730 -1.0307
   11MOL   H221 3641   7.282   5.045   3.706 -0.6643 -0.2534 -0.0318
   11MOL   H222 3642   7.280   5.198   3.773  0.0647 -0.2060 -1.8304
   11MOL   C223 3643   7.264   5.044   3.922  0.5800 -0.0290 -0.2784
   11MOL   C224 3644   7.260   4.888   3.931  0.0517 -0.6165 -0.5830
   11MOL   C225 3645   7.339   4.830   4.030  0.4645  0.0146  0.8074
   11MOL   C226 3646   7.356   4.692   4.027 -0.4447 -0.3450  0.0742
   11MOL   C227 3647   7.287   4.613   3.934  0.2585 -0.2814 -0.0683
   11MOL   O228 3648   7.295   4.480   3.944  0.2936  0.0594 -0.3709
   11MOL   C229 3649   7.198   4.674   3.838  0.1198  0.1949 -0.2756
   11MOL   C230 3650   7.185   4.812   3.839  0.2261  0.1639  0.0208
   11MOL   C231 3651   7.118   5.103   3.939 -0.0169  0.3202 -0.2652
   11MOL   H232 3652   7.323   5.089   4.002 -0.4750  2.6098 -0.9295
   11MOL   H233 3653   7.395   4.892   4.099 -0.1663  0.3608  1.0166
   11MOL   H234 3654   7.415   4.649   4.106  1.2453 -0.9372 -1.4876
   11MOL   H235 3655   7.250   4.429   3.879 -1.5995 -0.7208  1.5001
   11MOL   H236 3656   7.143   4.612   3.769 -0.0490  0.6134 -0.5214
   11MOL   H237 3657   7.125   4.863   3.765  1.4830  0.1006 -1.0704
   11MOL   H238 3658   7.121   5.212   3.933 -2.4332  0.5862  2.5115
   11MOL   H239 3659   7.056   5.080   3.853  0.8062 -0.0983 -0.7548
   11MOL   C240 3660   7.043   5.061   4.067 -0.3465 -0.0041 -0.7053
   11MOL   C241 3661   7.128   5.073   4.196 -0.0355  0.2018  0.2114
   11MOL   C242 3662   7.148   4.953   4.271  0.2755  0.2006  0.5152
   11MOL   C243 3663   7.225   4.949   4.391 -0.3383 -0.3358  0.5623
   11MOL   C244 3664   7.272   5.071   4.446 -0.2734  0.4543 -0.1382
   11MOL   O245 3665   7.349   5.062   4.560  0.0662 -0.1011  0.1613
   11MOL   C246 3666   7.256   5.191   4.374 -0.2023 -0.1216 -0.3269
   11MOL   C247 3667   7.177   5.192   4.255  0.1527 -0.1039  0.4689
   11MOL   C248 3668   6.908   5.122   4.098  0.1431 -0.2995 -0.3610
   11MOL   H249 3669   7.035   4.956   4.040 -1.4864  0.4723 -2.2596
   11MOL   H250 3670   7.127   4.863   4.215 -0.6001  0.7565 -0.0736
   11MOL   H251 3671   7.248   4.853   4.436  0.1685  0.2708  1.6081
   11MOL   H252 3672   7.398   5.142   4.566  2.5014 -1.5370  0.0819
   11MOL   H253 3673   7.296   5.283   4.413  0.1423 -0.3101 -0.2340
   11MOL   H254 3674   7.154   5.287   4.210 -1.2176  0.3358  2.0236
   11MOL   H255 3675   6.862   5.072   4.184 -1.6852 -0.4374 -1.3881
   11MOL   H256 3676   6.912   5.227   4.124  1.1083 -0.3645 -0.2159
   11MOL   C257 3677   6.801   5.100   3.984 -0.2705 -0.5481 -0.3194
   11MOL   C258 3678   6.796   4.956   3.930  0.4367 -0.0271 -0.3835
   11MOL   C259 3679   6.759   4.850   4.014 -0.4998  0.0969 -0.2308
   11MOL   C260 3680   6.749   4.719   3.965 -0.5495  0.1772 -0.0118
   11MOL   C261 3681   6.785   4.687   3.832 -0.0376 -0.1832  0.5257
   11MOL   O262 3682   6.756   4.561   3.784  0.1348  0.2593 -1.0324
   11MOL   C263 3683   6.822   4.793   3.742  0.5133 -0.7379 -0.0618
   11MOL   C264 3684   6.821   4.925   3.793  0.0894  0.0402 -0.2703
   11MOL   C265 3685   6.659   5.143   4.022 -1.1281  0.0237 -0.1964
   11MOL   H266 3686   6.837   5.163   3.903 -1.2297 -0.1076 -0.4097
   11MOL   H267 3687   6.745   4.867   4.120  0.8989  1.7617 -0.2783
   11MOL   H268 3688   6.724   4.640   4.034  2.5503 -0.5361  0.3876
   11MOL   H269 3689   6.666   4.536   3.795  1.1100 -2.0467  2.4941
   11MOL   H270 3690   6.847   4.776   3.639 -1.8875 -1.2230 -0.6031
   11MOL   H271 3691   6.845   5.009   3.729  0.1680 -0.2719 -0.6515
   11MOL   H272 3692   6.684   5.234   4.076 -0.4046 -0.0028 -0.4758
   11MOL   H273 3693   6.603   5.073   4.084  1.6803  0.0294  2.4702
   11MOL   C274 3694   6.569   5.170   3.894 -0.8072  0.0555  0.4240
   11MOL   C275 3695   6.626   5.280   3.798  0.2696 -0.2693 -0.0383
   11MOL   C276 3696   6.618   5.263   3.658  0.4618  0.6298  0.2721
   11MOL   C277 3697   6.651   5.362   3.565  0.3442 -0.0899  0.1436
   11MOL   C278 3698   6.691   5.490   3.613 -0.6831 -0.7067  0.6056
   11MOL   O279 3699   6.723   5.593   3.526 -0.1342 -0.0477 -0.3422
   11MOL   C280 3700   6.711   5.511   3.753  0.5881 -0.7198 -0.1667
   11MOL   C281 3701   6.679   5.403   3.839  0.1824  0.0686 -0.5353
   11MOL   C282 3702   6.430   5.219   3.939 -0.1460 -0.3664 -0.3826
   11MOL   H283 3703   6.569   5.079   3.834  2.4514  0.1163  0.1940
   11MOL   H284 3704   6.584   5.167   3.622 -0.6352  1.1743 -0.1841
   11MOL   H285 3705   6.644   5.342   3.459 -0.7229 -2.1647  0.5757
   11MOL   H286 3706   6.744   5.559   3.440 -3.0158  1.1024 -1.5748
   11MOL   H287 3707   6.764   5.594   3.796 -1.8128  0.7071  0.1058
   11MOL   H288 3708   6.690   5.430   3.943 -0.9979 -1.5545  0.0258
   11MOL   H289 3709   6.435   5.282   4.028  1.4968  0.1221 -0.8180
   11MOL   H290 3710   6.387   5.281   3.860  1.6122  1.0141 -0.2823
   11MOL   C291 3711   6.337   5.094   3.968 -0.1480  0.3828  0.4220
   11MOL   C292 3712   6.341   5.002   3.850 -0.4257  0.6249 -0.0648
   11MOL   C293 3713   6.354   4.861   3.877  0.4337 -0.3722 -0.2406
   11MOL   C294 3714   6.338   4.757   3.781  0.7647 -0.4927 -0.3357
   11MOL   C295 3715   6.318   4.805   3.650 -0.5443  0.2276  0.4589
   11MOL   O296 3716   6.311   4.705   3.553 -0.0279 -0.0308 -0.6559
   11MOL   C297 3717   6.313   4.945   3.616  0.1417 -0.0906  0.4859
   11MOL   C298 3718   6.324   5.044   3.716  0.4678  0.3684 -0.4313
   11MOL   C299 3719   6.188   5.151   3.998 -0.8859 -0.4362 -0.6282
   11MOL   H300 3720   6.375   5.045   4.057 -1.0035  1.4552  1.3940
   11MOL   H301 3721   6.379   4.827   3.977  0.1508  0.6714  0.1948
   11MOL   H302 3722   6.350   4.656   3.816  3.0593  0.1384  0.8444
   11MOL   H303 3723   6.267   4.631   3.590  1.6581 -0.7028  0.0239
   11MOL   H304 3724   6.311   4.976   3.512 -1.6917  0.3011  0.6175
   11MOL   H305 3725   6.312   5.150   3.706  0.1167  0.2551 -1.1980
   11MOL   H306 3726   6.122   5.092   3.933  1.9338 -3.4332 -0.9305
   11MOL   H307 3727   6.200   5.254   3.966 -0.4358 -1.6102 -4.5623
   11MOL   C308 3728   6.144   5.146   4.143  0.2571  0.5654  0.2737
   11MOL   C309 3729   6.141   5.000   4.198  0.2384  0.2408 -0.6249
   11MOL   C310 3730   6.042   4.916   4.159 -0.0937 -0.3740  0.3422
   11MOL   C311 3731   6.042   4.785   4.196 -0.1489  0.8558 -0.6317
   11MOL   C312 3732   6.142   4.733   4.283 -0.0815  0.5123 -0.0901
   11MOL   O313 3733   6.127   4.602   4.327  0.2721  0.0874 -0.3531
   11MOL   C314 3734   6.244   4.816   4.328 -0.2398 -0.1976  0.2245
   11MOL   C315 3735   6.247   4.949   4.278 -0.3791  0.1149 -0.1913
   11MOL   C316 3736   6.012   5.234   4.168 -0.1908  0.1109 -0.2032
   11MOL   H317 3737   6.224   5.191   4.200 -0.9104  0.7652  1.7899
   11MOL   H318 3738   5.960   4.941   4.094  1.0285  1.2172 -0.4988
   11MOL   H319 3739   5.955   4.728   4.170  0.2078  0.0390 -0.0724
   11MOL   H320 3740   6.050   4.567   4.285 -1.1452  3.7158 -0.9318
   11MOL   H321 3741   6.325   4.779   4.389 -1.2922 -0.4560  1.4857
   11MOL   H322 3742   6.327   5.014   4.309 -1.3814  1.2355  0.0714
   11MOL   H323 3743   5.996   5.232   4.276  0.5610  0.5832 -0.0785
   11MOL   H324 3744   5.921   5.188   4.130 -1.4460  0.6336  2.0666
   11MOL   C325 3745   6.020   5.388   4.124 -0.0631  0.0777  0.0897
   11MOL   C326 3746   6.140   5.457   4.194 -0.0144 -1.0248  0.0022
   11MOL   C327 3747   6.248   5.499   4.115  0.0397  0.3634  0.0015
   11MOL   C328 3748   6.365   5.537   4.178 -0.3160 -0.3583  0.1861
   11MOL   C329 3749   6.383   5.546   4.316 -0.8156  0.6155 -0.5238
   11MOL   O330 3750   6.504   5.577   4.374  0.1158  0.1783 -0.5447
   11MOL   C331 3751   6.274   5.497   4.397  0.6791  0.0600  0.6987
   11MOL   C332 3752   6.156   5.455   4.335  0.1095 -0.2792 -0.1035
   11MOL   C333 3753   5.881   5.451   4.155  0.4958 -0.0887  0.2404
   11MOL   H334 3754   6.025   5.378   4.015 -0.5394  1.1928 -0.0462
   11MOL   H335 3755   6.241   5.502   4.007 -2.2591  2.2339  0.1688
   11MOL   H336 3756   6.446   5.579   4.120  0.5543 -1.9487  0.2306
   11MOL   H337 3757   6.498   5.599   4.465  0.0708  0.4210 -0.6076
   11MOL   H338 3758   6.278   5.498   4.505  0.7765  1.4983  0.6830
   11MOL   H339 3759   6.070   5.423   4.391 -1.7201  1.9657 -1.5574
   11MOL   H340 3760   5.871   5.548   4.107 -0.1215 -0.6081 -0.7064
   11MOL   H341 3761   5.881   5.474   4.262  1.9424 -2.3248  0.7563
   11MOL   H342 3762   5.793   5.392   4.128  2.1930 -2.0010 -1.2560
   12MOL     C1 3763   7.259   7.671   4.833 -0.5980  0.1146 -0.3114
   12MOL     C2 3764   7.152   7.763   4.779 -0.8728  0.6085  0.3193
   12MOL     C3 3765   7.023   7.710   4.772  0.9354  0.1862  0.4490
   12MOL     C4 3766   6.918   7.782   4.717 -1.1327 -0.3747 -0.2728
   12MOL     C5 3767   6.941   7.912   4.678 -0.2061  0.6161  0.5807
   12MOL     O6 3768   6.835   7.976   4.624  0.5931 -0.3237 -0.1985
   12MOL     C7 3769   7.067   7.968   4.679  1.0165  0.3052  1.1297
   12MOL     C8 3770   7.178   7.892   4.726 -0.0791  0.6279  0.3280
   12MOL     C9 3771   7.300   7.717   4.978  0.1905  0.1131 -0.4350
   12MOL    H10 3772   7.223   7.569   4.824 -1.8885  0.5750 -0.5133
   12MOL    H11 3773   6.997   7.610   4.802 -1.3452  0.9104  0.9952
   12MOL    H12 3774   6.824   7.728   4.719 -0.7178 -1.0782  0.9653
   12MOL    H13 3775   6.851   0.024   4.586 -1.0931  1.2549  2.4303
   12MOL    H14 3776   7.088   0.026   4.633  0.2390  0.9024  2.0077
   12MOL    H15 3777   7.280   7.929   4.728  0.4459 -0.6919 -1.4183
   12MOL    H16 3778   7.205   7.729   5.031  0.4115  0.3270 -0.0917
   12MOL    H17 3779   7.355   7.810   4.966  2.6887 -1.1083  1.0814
   12MOL    H18 3780   7.342   7.688   4.764  0.2548  1.4776  1.0075
   12MOL    C19 3781   7.381   7.619   5.059 -0.0938 -0.5541 -0.0640
   12MOL    C20 3782   7.311   7.479   5.052 -0.1442 -0.1397  0.2608
   12MOL    C21 3783   7.403   7.371   5.026 -0.3750  0.3065 -0.3710
   12MOL    C22 3784   7.351   7.243   5.032  0.2121 -0.5153  0.1117
   12MOL    C23 3785   7.213   7.212   5.057  0.1410  0.0817 -0.8315
   12MOL    O24 3786   7.167   7.082   5.070 -0.0198 -0.4105 -0.3754
   12MOL    C25 3787   7.122   7.318   5.071  0.3989 -0.4354 -0.7749
   12MOL    C26 3788   7.176   7.455   5.074  0.0971 -0.5658 -0.0727
   12MOL    C27 3789   7.404   7.666   5.203  0.3381 -0.5031  0.5353
   12MOL    H28 3790   7.479   7.617   5.010 -0.1053  0.8530 -0.1610
   12MOL    H29 3791   7.506   7.396   5.009  0.6574 -1.0239  3.3771
   12MOL    H30 3792   7.423   7.165   5.012  0.3867  0.0924 -1.6776
   12MOL    H31 3793   7.238   7.022   5.088 -0.7026 -0.7404  1.3728
   12MOL    H32 3794   7.015   7.309   5.084  0.2724 -0.2028 -1.6039
   12MOL    H33 3795   7.111   7.539   5.092  0.8133  0.1372 -0.7753
   12MOL    H34 3796   7.438   7.577   5.255  0.9254 -0.3065  0.4900
   12MOL    H35 3797   7.310   7.701   5.247 -0.5095 -0.9845 -0.8570
   12MOL    C36 3798   7.507   7.780   5.215 -0.1231 -0.2450 -0.5878
   12MOL    C37 3799   7.655   7.734   5.206  0.4103  0.4927  0.6510
   12MOL    C38 3800   7.702   7.612   5.262 -0.5655  0.1308  0.1407
   12MOL    C39 3801   7.824   7.558   5.219 -0.2121  0.5286  0.3128
   12MOL    C40 3802   7.907   7.636   5.131  1.1673 -0.2669 -0.2747
   12MOL    O41 3803   8.029   7.600   5.083 -0.2853  0.4048  0.5283
   12MOL    C42 3804   7.869   7.766   5.100 -0.8125  0.7521  0.3727
   12MOL    C43 3805   7.743   7.822   5.133  0.8181  0.4878  0.4967
   12MOL    C44 3806   7.485   7.867   5.337 -0.2603 -0.2975 -0.3250
   12MOL    H45 3807   7.490   7.840   5.126  1.8230 -0.1927 -0.9451
   12MOL    H46 3808   7.641   7.547   5.322 -1.6410  1.0487  0.0446
   12MOL    H47 3809   7.861   7.463   5.252 -0.7429  1.2389  3.0775
   12MOL    H48 3810   0.015   7.509   5.080 -1.8478 -0.0282  1.0701
   12MOL    H49 3811   7.942   7.828   5.049 -0.5046 -0.5104 -0.7435
   12MOL    H50 3812   7.700   7.916   5.101  0.2058 -0.8420 -2.7921
   12MOL    H51 3813   7.438   7.812   5.419  1.1463 -2.0944 -0.6939
   12MOL    H52 3814   7.584   7.893   5.375 -1.9427  1.2305  3.2875
   12MOL    C53 3815   7.425   8.008   5.308  0.6116 -0.3038 -0.4886
   12MOL    C54 3816   7.297   8.005   5.229  0.1973  0.0658 -0.2075
   12MOL    C55 3817   7.182   7.938   5.272 -1.2626 -0.1876  0.6059
   12MOL    C56 3818   7.066   7.938   5.189  0.6489 -0.5364  0.5887
   12MOL    C57 3819   7.058   8.014   5.075  0.1834 -0.4089  0.6175
   12MOL    O58 3820   6.944   8.019   5.008 -0.6542 -0.6599 -0.1243
   12MOL    C59 3821   7.175   0.039   5.029  0.2454 -0.0148 -0.1050
   12MOL    C60 3822   7.296   0.035   5.106  0.1134 -0.5327 -1.1385
   12MOL    C61 3823   7.410   0.065   5.429 -0.2881 -0.6649  0.6911
   12MOL    H62 3824   7.502   0.003   5.238  0.9255 -2.8696 -1.3857
   12MOL    H63 3825   7.188   7.875   5.360 -0.0270  0.9661  1.3717
   12MOL    H64 3826   6.976   7.891   5.227  1.7132 -1.2092  2.3458
   12MOL    H65 3827   6.880   7.952   5.027 -1.6522  0.7817  1.8232
   12MOL    H66 3828   7.181   0.077   4.928 -1.3925 -1.4215 -0.7631
   12MOL    H67 3829   7.384   0.085   5.068  1.4610 -1.6839  0.3816
   12MOL    H68 3830   7.366   0.003   5.507  1.0472 -1.6966  0.6433
   12MOL    H69 3831   7.346   0.148   5.401  1.0306 -0.9301 -3.5408
   12MOL    C70 3832   7.538   0.124   5.487 -0.0447 -0.6082  0.3075
   12MOL    C71 3833   7.522   0.192   5.625 -0.4176  0.2423 -0.1291
   12MOL    C72 3834   7.612   0.189   5.729  0.4039 -0.1814  0.8169
   12MOL    C73 3835   7.583   0.255   5.848  0.1444  0.2842 -0.5598
   12MOL    C74 3836   7.472   0.334   5.862  1.1099  0.3847  0.0094
   12MOL    O75 3837   7.455   0.405   5.978  0.3081 -0.3953 -0.3212
   12MOL    C76 3838   7.386   0.347   5.755 -0.2537  0.1041  0.5622
   12MOL    C77 3839   7.403   0.272   5.640 -0.1780  0.1827  0.2773
   12MOL    C78 3840   7.595   0.224   5.388 -0.3014 -0.5813  0.0070
   12MOL    H79 3841   7.613   0.046   5.504  1.4818  0.7936  0.0947
   12MOL    H80 3842   7.697   0.123   5.715 -0.4793 -1.5165  1.6350
   12MOL    H81 3843   7.650   0.249   5.933 -2.0937  0.0161  1.2466
   12MOL    H82 3844   7.533   0.400   6.032 -0.4904 -1.4364  0.7752
   12MOL    H83 3845   7.300   0.413   5.753 -0.0357  0.3465 -2.3711
   12MOL    H84 3846   7.326   0.286   5.566  1.0248  2.9104 -0.5185
   12MOL    H85 3847   7.533   0.313   5.401 -0.8483 -0.9394 -0.1265
   12MOL    H86 3848   7.602   0.186   5.286  0.2870  1.4572 -0.7384
   12MOL    C87 3849   7.742   0.257   5.417 -0.0485  0.2542  0.1017
   12MOL    C88 3850   7.763   0.395   5.360 -0.4816 -0.0965 -0.6777
   12MOL    C89 3851   7.772   0.419   5.219 -0.7649  0.0800 -1.0875
   12MOL    C90 3852   7.780   0.545   5.161  0.2311 -0.2588  0.2582
   12MOL    C91 3853   7.789   0.656   5.252  0.2977  0.1714  0.9137
   12MOL    O92 3854   7.818   0.778   5.198 -0.2320  0.2205  0.6551
   12MOL    C93 3855   7.775   0.635   5.388 -0.2959 -0.1641 -1.1883
   12MOL    C94 3856   7.757   0.509   5.444 -0.0703  0.0373 -0.0561
   12MOL    C95 3857   7.843   0.152   5.357 -0.2907  0.0174 -0.5272
   12MOL    H96 3858   7.757   0.269   5.524 -1.0251 -0.0297  0.2727
   12MOL    H97 3859   7.778   0.341   5.144  1.1908 -1.0210  0.2012
   12MOL    H98 3860   7.793   0.553   5.054 -0.2796  0.0924  0.2173
   12MOL    H99 3861   7.845   0.789   5.108  0.8788 -0.2525  0.9188
   12MOL   H100 3862   7.777   0.724   5.449  0.8452 -1.5443  0.8302
   12MOL   H101 3863   7.730   0.502   5.549 -0.7846  0.3492 -0.2200
   12MOL   H102 3864   7.814   0.051   5.386 -1.9375  0.8027  0.6401
   12MOL   H103 3865   7.845   0.160   5.248 -0.1517 -1.1158 -0.6135
   12MOL   C104 3866   7.995   0.185   5.387  0.5746 -0.1832  0.8072
   12MOL   C105 3867   0.061   0.129   5.284  0.2147 -0.8300 -0.6620
   12MOL   C106 3868   0.058   8.031   5.248 -0.7034 -0.0682 -0.4836
   12MOL   C107 3869   0.167   7.979   5.169  0.5403 -0.2616  0.0514
   12MOL   C108 3870   0.272   0.024   5.125 -0.3482  0.2372 -0.6181
   12MOL   O109 3871   0.370   8.015   5.048  0.3988  0.2808 -0.1941
   12MOL   C110 3872   0.270   0.162   5.160  0.4666  0.4352 -0.1990
   12MOL   C111 3873   0.162   0.217   5.233 -0.1607  0.4960  0.2142
   12MOL   C112 3874   8.019   0.132   5.522 -0.0354  0.1227 -0.3880
   12MOL   H113 3875   7.995   0.294   5.387 -1.7417 -0.1559  0.7353
   12MOL   H114 3876   8.018   7.964   5.284  0.2207 -0.7554  0.2450
   12MOL   H115 3877   0.166   7.874   5.142 -1.6616 -0.0209 -0.9221
   12MOL   H116 3878   0.386   0.042   4.981 -0.8087 -0.2000 -0.9636
   12MOL   H117 3879   0.350   0.223   5.122 -0.5600  1.1962 -1.1487
   12MOL   H118 3880   0.177   0.316   5.273  1.4188 -0.4042  1.9173
   12MOL   H119 3881   7.994   0.026   5.519 -1.6693  0.5010 -0.2048
   12MOL   H120 3882   7.943   0.176   5.585  0.0095 -0.3835  0.0235
   12MOL   C121 3883   0.113   0.175   5.592 -0.1044  0.3249  0.1000
   12MOL   C122 3884   0.077   0.203   5.739 -0.0872  0.4822  0.0462
   12MOL   C123 3885   0.048   0.337   5.777  0.1314 -0.1269  0.0416
   12MOL   C124 3886   8.020   0.372   5.900  0.4001  0.0121 -0.1190
   12MOL   C125 3887   7.977   0.265   5.977 -0.8563  0.3572 -0.6747
   12MOL   O126 3888   7.898   0.282   6.090  0.9921 -0.1202 -0.8053
   12MOL   C127 3889   8.018   0.137   5.947  0.1561  0.5484  0.6833
   12MOL   C128 3890   0.045   0.098   5.828  0.6880 -0.2780 -0.1576
   12MOL   C129 3891   0.221   0.069   5.570  0.3683  0.4141 -0.0748
   12MOL   H130 3892   0.146   0.269   5.546 -0.2432  0.5926  0.5395
   12MOL   H131 3893   0.056   0.417   5.705 -2.1846  0.2231  0.1404
   12MOL   H132 3894   8.004   0.475   5.927  0.6778  0.3803 -1.3611
   12MOL   H133 3895   7.839   0.356   6.083  0.5782 -0.1759  1.5128
   12MOL   H134 3896   7.998   0.054   6.013  4.3893 -0.1329  1.2265
   12MOL   H135 3897   0.068   8.031   5.812 -0.5300 -0.4898 -0.5619
   12MOL   H136 3898   0.231   0.054   5.462  0.2447  1.3888 -0.2276
   12MOL   H137 3899   0.180   8.013   5.608  1.0215 -0.4048 -1.3387
   12MOL   C138 3900   0.361   0.103   5.628  0.4125  0.0644  0.0401
   12MOL   C139 3901   0.436   0.208   5.543 -0.4739  0.2820 -0.6557
   12MOL   C140 3902   0.481   0.176   5.413  0.5637 -0.1385  0.4673
   12MOL   C141 3903   0.547   0.269   5.332  0.8425 -1.1692  0.1891
   12MOL   C142 3904   0.566   0.400   5.379  0.0910 -0.6725 -0.4458
   12MOL   O143 3905   0.608   0.502   5.296  0.2780 -0.3254  0.7130
   12MOL   C144 3906   0.524   0.437   5.510 -0.3431 -0.5022  0.5114
   12MOL   C145 3907   0.464   0.335   5.594 -0.8098  0.4670 -0.0796
   12MOL   C146 3908   0.444   8.005   5.629  0.3275 -0.4628  0.4646
   12MOL   H147 3909   0.345   0.148   5.726  1.0422 -0.3362  0.3302
   12MOL   H148 3910   0.452   0.076   5.385  0.1039 -0.0031  0.4606
   12MOL   H149 3911   0.573   0.244   5.230 -1.0637 -0.2483 -0.5516
   12MOL   H150 3912   0.572   0.484   5.211  1.5043  0.8519 -0.0756
   12MOL   H151 3913   0.531   0.539   5.544  1.2855  0.4557 -2.5219
   12MOL   H152 3914   0.422   0.358   5.691 -1.4720  0.6811 -0.4062
   12MOL   H153 3915   0.532   8.003   5.565 -0.0206 -2.0366  0.0139
   12MOL   H154 3916   0.394   7.920   5.581 -1.6287  0.8273  0.1931
   12MOL   C155 3917   0.486   7.968   5.768  0.2290 -1.0416  0.3149
   12MOL   C156 3918   0.589   0.035   5.830  0.5288 -0.1607  0.2507
   12MOL   C157 3919   0.680   0.109   5.747  0.2539  0.0542  1.1193
   12MOL   C158 3920   0.767   0.202   5.805  0.4084  0.0861 -0.1893
   12MOL   C159 3921   0.772   0.214   5.944 -0.3423 -0.0227 -0.4341
   12MOL   O160 3922   0.860   0.300   6.008  0.3413  0.4583 -0.0143
   12MOL   C161 3923   0.685   0.140   6.025 -1.2487 -0.5285 -0.0159
   12MOL   C162 3924   0.593   0.046   5.970 -0.0791  0.6665 -0.7313
   12MOL   C163 3925   0.550   7.824   5.776  0.2559 -0.6357 -0.5175
   12MOL   H164 3926   0.394   7.985   5.823 -1.3025  1.6687 -2.9197
   12MOL   H165 3927   0.675   0.103   5.640 -1.3452  1.2545  1.1005
   12MOL   H166 3928   0.832   0.249   5.732 -0.9675  1.2536 -0.6733
   12MOL   H167 3929   0.907   0.244   6.068  1.3159  0.4931 -0.7434
   12MOL   H168 3930   0.691   0.143   6.132 -1.1275 -2.8176  0.0743
   12MOL   H169 3931   0.524   8.034   6.037  1.0589  0.7547  0.5282
   12MOL   H170 3932   0.573   7.797   5.879 -0.8240 -1.5103 -0.4967
   12MOL   H171 3933   0.643   7.821   5.719  0.0188  1.2512 -1.0340
   12MOL   C172 3934   0.470   7.694   5.737  0.2591 -0.5639 -0.1911
   12MOL   C173 3935   0.328   7.710   5.773  0.1914  0.0776  0.1126
   12MOL   C174 3936   0.240   7.710   5.668 -0.3111  0.0512 -0.2426
   12MOL   C175 3937   0.108   7.733   5.692  0.4101  0.4347  0.3931
   12MOL   C176 3938   0.065   7.770   5.822  0.6788  0.1710 -0.0719
   12MOL   O177 3939   7.971   7.814   5.832  0.0519 -0.4016 -0.7252
   12MOL   C178 3940   0.152   7.770   5.928 -0.3200  0.1660 -0.1053
   12MOL   C179 3941   0.289   7.732   5.906  0.3859 -0.6066  0.0375
   12MOL   C180 3942   0.531   7.558   5.789  0.0527 -0.9209 -0.3622
   12MOL   H181 3943   0.473   7.684   5.629 -0.0760  3.8763 -0.7146
   12MOL   H182 3944   0.268   7.678   5.569  2.3736 -0.0831  0.5164
   12MOL   H183 3945   0.033   7.712   5.616 -0.3878  0.3735  1.1930
   12MOL   H184 3946   7.947   7.824   5.923 -0.0006  0.8757 -0.8658
   12MOL   H185 3947   0.116   7.801   6.025  1.1056 -0.4501  0.6387
   12MOL   H186 3948   0.358   7.726   5.988  1.0855  2.4808 -0.2844
   12MOL   H187 3949   0.532   7.556   5.898  0.3417  0.9775 -0.3144
   12MOL   H188 3950   0.636   7.551   5.759  0.2602 -0.1699  0.1825
   12MOL   C189 3951   0.470   7.432   5.716 -0.6872 -0.3111  0.3907
   12MOL   C190 3952   0.573   7.320   5.738 -0.1630 -0.6152 -0.5991
   12MOL   C191 3953   0.625   7.291   5.865  0.1474  0.0660 -0.3435
   12MOL   C192 3954   0.720   7.188   5.883  0.0617  0.7698  0.2267
   12MOL   C193 3955   0.772   7.120   5.774  0.2114  0.1925 -0.1493
   12MOL   O194 3956   0.875   7.030   5.782 -0.1880 -0.8301  0.5654
   12MOL   C195 3957   0.721   7.151   5.646 -0.0574  0.1266  0.4892
   12MOL   C196 3958   0.621   7.248   5.636 -0.0133  0.3292 -0.2938
   12MOL   C197 3959   0.335   7.387   5.771  0.6619  0.7089  0.5862
   12MOL   H198 3960   0.465   7.460   5.610  1.5705  0.2452  0.4045
   12MOL   H199 3961   0.585   7.343   5.950  2.3590  1.4191 -0.0929
   12MOL   H200 3962   0.760   7.172   5.982 -0.9228  0.8212  0.6302
   12MOL   H201 3963   0.881   6.975   5.705  0.0399 -2.1635  1.5256
   12MOL   H202 3964   0.756   7.092   5.562 -0.5873 -1.6077  1.4549
   12MOL   H203 3965   0.585   7.270   5.536  1.1317  1.9620 -0.3453
   12MOL   H204 3966   0.267   7.472   5.760 -0.0886  0.0087 -0.3103
   12MOL   H205 3967   0.341   7.367   5.878  1.1116 -1.4181  0.1870
   12MOL   C206 3968   0.262   7.270   5.707  0.3771 -0.1541 -0.3955
   12MOL   C207 3969   0.250   7.280   5.553 -0.0467  0.0453 -0.0542
   12MOL   C208 3970   0.295   7.171   5.469  0.3461 -0.0744 -0.0113
   12MOL   C209 3971   0.283   7.185   5.323 -1.1930 -0.3401 -0.8623
   12MOL   C210 3972   0.225   7.297   5.264 -0.3218 -0.3525  0.3490
   12MOL   O211 3973   0.206   7.303   5.132  0.3321  0.0708  0.2083
   12MOL   C212 3974   0.178   7.397   5.344  0.1121  0.1904 -0.1752
   12MOL   C213 3975   0.192   7.387   5.482 -0.5570 -0.0926 -0.4123
   12MOL   C214 3976   0.126   7.254   5.781  0.7636  0.4800 -0.9772
   12MOL   H215 3977   0.316   7.178   5.728  0.2649 -0.6657 -2.2975
   12MOL   H216 3978   0.352   7.086   5.504 -3.2622 -3.4480 -1.8307
   12MOL   H217 3979   0.326   7.109   5.259  1.5681 -0.4800  1.0695
   12MOL   H218 3980   0.253   7.235   5.085  1.6025  1.2110 -0.2052
   12MOL   H219 3981   0.134   7.490   5.311 -0.4043  0.4132  1.1198
   12MOL   H220 3982   0.159   7.473   5.538 -0.6740 -1.1884  1.2563
   12MOL   H221 3983   0.067   7.180   5.727  0.1202 -0.5189  1.0623
   12MOL   H222 3984   0.068   7.345   5.769 -1.8035 -1.2714 -2.3611
   12MOL   C223 3985   0.135   7.208   5.927 -0.0403  0.8124 -0.2596
   12MOL   C224 3986   0.215   7.084   5.955  0.6714  0.5915  0.2254
   12MOL   C225 3987   0.341   7.094   6.023 -0.0875 -0.5098 -0.2715
   12MOL   C226 3988   0.423   6.982   6.045  0.1582 -0.4677 -0.0371
   12MOL   C227 3989   0.375   6.860   5.999  0.8237  0.5951  0.3777
   12MOL   O228 3990   0.454   6.750   6.028  0.7569  0.5007  1.0276
   12MOL   C229 3991   0.252   6.850   5.920 -0.2131  0.3661  0.3773
   12MOL   C230 3992   0.169   6.960   5.898  0.4618 -0.3749 -0.0464
   12MOL   C231 3993   8.025   7.196   5.990 -0.2853 -0.1499  0.0665
   12MOL   H232 3994   0.183   7.291   5.979 -0.4197  0.8538  0.0266
   12MOL   H233 3995   0.368   7.185   6.073  0.4884 -1.9803  2.2071
   12MOL   H234 3996   0.520   6.995   6.090  0.9545 -3.5770 -0.7336
   12MOL   H235 3997   0.542   6.776   6.049  0.2175  2.7241  0.6320
   12MOL   H236 3998   0.220   6.750   5.893 -0.6853  0.6601 -0.1612
   12MOL   H237 3999   0.069   6.964   5.859 -0.2164 -1.2350  1.5285
   12MOL   H238 4000   7.982   7.293   5.964  1.2655  0.6990  0.5695
   12MOL   H239 4001   7.965   7.124   5.936 -1.6658  0.7045  0.4318
   12MOL   C240 4002   8.017   7.184   6.145 -0.2281 -0.1261 -0.1211
   12MOL   C241 4003   0.069   7.289   6.211 -0.3345  0.5153 -0.7602
   12MOL   C242 4004   0.165   7.247   6.304  0.5184  0.5735 -0.1715
   12MOL   C243 4005   0.243   7.342   6.364 -0.2080 -0.1456 -0.8161
   12MOL   C244 4006   0.240   7.477   6.334  0.0675 -1.1002  0.3418
   12MOL   O245 4007   0.335   7.552   6.400  0.2956 -0.3783 -0.2901
   12MOL   C246 4008   0.146   7.526   6.241 -0.0268 -0.6833 -0.0652
   12MOL   C247 4009   0.059   7.433   6.178  0.0627  0.7778  0.1894
   12MOL   C248 4010   7.869   7.202   6.186 -0.3076  0.0899 -0.5859
   12MOL   H249 4011   0.022   7.086   6.168 -0.0946  0.5260  2.5812
   12MOL   H250 4012   0.175   7.143   6.329 -1.9760 -0.3507 -2.8037
   12MOL   H251 4013   0.311   7.314   6.443 -2.9080  1.1472  2.0461
   12MOL   H252 4014   0.345   7.640   6.366  0.4638  0.1648  1.1329
   12MOL   H253 4015   0.142   7.628   6.205 -1.1517 -0.6351  0.1806
   12MOL   H254 4016   8.033   7.477   6.103  0.6414  3.4592  1.2100
   12MOL   H255 4017   7.849   7.307   6.210 -1.5648 -0.0514 -0.9701
   12MOL   H256 4018   7.808   7.190   6.097 -2.2046 -1.5948  0.9067
   12MOL   C257 4019   7.817   7.112   6.302 -0.2846 -0.2334 -0.5319
   12MOL   C258 4020   7.711   7.184   6.390  0.2039 -0.3557  0.5371
   12MOL   C259 4021   7.591   7.241   6.332 -0.1823 -0.7897  0.2768
   12MOL   C260 4022   7.500   7.308   6.412 -0.8595 -0.4509 -0.0420
   12MOL   C261 4023   7.524   7.318   6.551  0.7815  0.4553 -0.7538
   12MOL   O262 4024   7.449   7.401   6.625  0.2704  0.6467 -0.0920
   12MOL   C263 4025   7.634   7.259   6.615 -0.1372  0.3637  0.1094
   12MOL   C264 4026   7.726   7.193   6.533  0.3812 -0.0926  0.6978
   12MOL   C265 4027   7.767   6.978   6.249 -0.9975 -0.4039  0.1315
   12MOL   H266 4028   7.902   7.099   6.369 -0.3895 -1.2220 -0.5779
   12MOL   H267 4029   7.578   7.245   6.225  0.0822  0.3201  0.2881
   12MOL   H268 4030   7.408   7.332   6.361 -1.1232  1.6026  1.3333
   12MOL   H269 4031   7.381   7.350   6.666  0.4838 -0.0752 -0.6193
   12MOL   H270 4032   7.657   7.254   6.721 -1.1427  2.8695  0.4710
   12MOL   H271 4033   7.809   7.151   6.588  0.0846  2.6139  3.3192
   12MOL   H272 4034   7.844   6.919   6.201 -1.6896 -1.2876  0.1013
   12MOL   H273 4035   7.692   7.001   6.172 -2.0895 -1.2994  0.9109
   12MOL   C274 4036   7.703   6.888   6.352  0.1897  0.3120  0.0588
   12MOL   C275 4037   7.793   6.865   6.475 -0.3645  0.2154 -0.3338
   12MOL   C276 4038   7.742   6.896   6.605 -0.0054 -0.3925  0.3513
   12MOL   C277 4039   7.827   6.892   6.717  1.2152 -0.0754  0.3325
   12MOL   C278 4040   7.956   6.852   6.703  0.6188 -0.0510 -0.1957
   12MOL   O279 4041   8.030   6.856   6.819  0.0590 -0.1523  0.4059
   12MOL   C280 4042   8.012   6.818   6.574  0.2142 -0.0533  0.3629
   12MOL   C281 4043   7.929   6.828   6.461  0.3951 -0.4731  0.2115
   12MOL   C282 4044   7.651   6.756   6.278  1.2731 -0.4100 -0.0203
   12MOL   H283 4045   7.611   6.939   6.377  0.6258  1.4880 -0.7234
   12MOL   H284 4046   7.640   6.932   6.603  1.2416  3.3594 -2.0484
   12MOL   H285 4047   7.780   6.920   6.810  1.3785 -0.2593  0.4718
   12MOL   H286 4048   8.031   6.940   6.863 -0.9351 -0.1323  0.4016
   12MOL   H287 4049   0.077   6.787   6.562 -0.0890 -2.3535  3.1185
   12MOL   H288 4050   7.963   6.807   6.361  0.7647 -2.1555  0.6784
   12MOL   H289 4051   7.611   6.790   6.183  0.7978 -0.1893  0.2522
   12MOL   H290 4052   7.730   6.686   6.254  0.1972 -1.6694  0.0557
   12MOL   C291 4053   7.542   6.679   6.360 -0.2946  0.1144  0.0227
   12MOL   C292 4054   7.606   6.585   6.464 -0.3701 -0.1808 -0.3056
   12MOL   C293 4055   7.686   6.478   6.420 -0.2621 -0.3153  0.2593
   12MOL   C294 4056   7.729   6.390   6.518  0.1084 -0.4576 -0.1247
   12MOL   C295 4057   7.707   6.405   6.654 -0.2562  0.3149  0.5397
   12MOL   O296 4058   7.739   6.317   6.749 -0.1342  0.3389 -0.3218
   12MOL   C297 4059   7.626   6.510   6.690 -0.4915 -0.9557  0.2655
   12MOL   C298 4060   7.569   6.597   6.601 -0.0702  0.7048  0.3843
   12MOL   C299 4061   7.443   6.601   6.270 -1.0661  0.5627 -0.1924
   12MOL   H300 4062   7.471   6.752   6.401  1.1018  1.9396 -0.7198
   12MOL   H301 4063   7.717   6.462   6.318 -3.7777  0.5988 -1.0281
   12MOL   H302 4064   7.782   6.298   6.499 -1.8156 -1.2868 -1.5411
   12MOL   H303 4065   7.820   6.271   6.735  0.2393  1.0354 -0.4785
   12MOL   H304 4066   7.601   6.520   6.795 -1.3820  1.8358 -0.1873
   12MOL   H305 4067   7.502   6.677   6.628 -0.8262  0.0454  0.5099
   12MOL   H306 4068   7.374   6.554   6.340 -0.6594  1.2430  0.6784
   12MOL   H307 4069   7.489   6.523   6.210 -0.6737 -1.0079  2.0778
   12MOL   C308 4070   7.351   6.691   6.176  0.3853 -0.6948 -0.0995
   12MOL   C309 4071   7.272   6.799   6.249 -0.1856  0.2804 -0.1883
   12MOL   C310 4072   7.139   6.781   6.288 -0.2449  1.3238  0.2809
   12MOL   C311 4073   7.065   6.877   6.351 -0.3134 -0.0161  0.1058
   12MOL   C312 4074   7.115   7.010   6.353 -0.1534  0.0996  0.2074
   12MOL   O313 4075   7.029   7.114   6.390 -0.2187 -0.2337  0.2196
   12MOL   C314 4076   7.238   7.045   6.305 -0.1867  0.0528  0.7475
   12MOL   C315 4077   7.321   6.937   6.262 -0.1894 -0.0356 -0.7275
   12MOL   C316 4078   7.270   6.585   6.092 -0.1102 -0.0380 -0.5992
   12MOL   H317 4079   7.414   6.748   6.108 -0.8983  2.8781  1.6218
   12MOL   H318 4080   7.097   6.682   6.284  0.1819  1.1009  1.2513
   12MOL   H319 4081   6.965   6.851   6.383 -1.5547  2.8077 -1.2685
   12MOL   H320 4082   7.065   7.190   6.432  0.3082 -0.8320  0.8782
   12MOL   H321 4083   7.278   7.143   6.323 -2.4259  0.6407  2.6674
   12MOL   H322 4084   7.423   6.960   6.235  0.5942  0.3904  2.3491
   12MOL   H323 4085   7.221   6.520   6.164  0.1700 -0.6056 -0.9116
   12MOL   H324 4086   7.332   6.522   6.027  1.2004  3.3653 -2.8173
   12MOL   C325 4087   7.156   6.631   6.005 -0.1455 -0.8842  0.1048
   12MOL   C326 4088   7.079   6.519   5.945 -0.5371  0.2819  0.2589
   12MOL   C327 4089   7.138   6.420   5.871 -0.2734  0.1565  0.5135
   12MOL   C328 4090   7.066   6.308   5.832 -0.9499 -0.6333  0.1352
   12MOL   C329 4091   6.933   6.293   5.866 -0.5357 -0.1266 -0.3354
   12MOL   O330 4092   6.873   6.175   5.833  0.5587  0.5673  0.2140
   12MOL   C331 4093   6.867   6.399   5.933 -0.9967 -0.3194  0.6313
   12MOL   C332 4094   6.945   6.508   5.977 -0.0407  0.2592 -0.3006
   12MOL   C333 4095   7.193   6.726   5.892 -0.0946 -0.3894  0.5442
   12MOL   H334 4096   7.095   6.682   6.080  1.8321 -0.9416  1.7984
   12MOL   H335 4097   7.244   6.423   5.848 -0.7420 -2.8204 -2.4666
   12MOL   H336 4098   7.124   6.225   5.796 -3.0263 -1.0532 -2.4233
   12MOL   H337 4099   6.778   6.175   5.831  0.5649 -0.5890 -1.0761
   12MOL   H338 4100   6.760   6.399   5.947 -1.2004 -0.7470 -0.8835
   12MOL   H339 4101   6.897   6.580   6.042 -1.6749 -0.6383 -0.4874
   12MOL   H340 4102   7.243   6.816   5.927 -0.3258 -0.2247  0.4481
   12MOL   H341 4103   7.102   6.765   5.847 -0.4680 -3.3856 -1.4166
   12MOL   H342 4104   7.268   6.685   5.824 -0.9669  0.3333 -0.8694
   13MOL     C1 4105   5.803   6.519   6.678  0.0715 -0.3471 -0.8201
   13MOL     C2 4106   5.693   6.573   6.775 -0.1565  0.1919  0.1527
   13MOL     C3 4107   5.693   6.711   6.804 -0.8166  0.1184  0.2737
   13MOL     C4 4108   5.601   6.758   6.896  0.4384  0.4834  0.0264
   13MOL     C5 4109   5.514   6.668   6.960 -0.0992 -0.4721  0.3327
   13MOL     O6 4110   5.441   6.720   7.062 -0.3583  0.1017 -0.0342
   13MOL     C7 4111   5.505   6.534   6.924 -0.0175 -0.3994  0.5659
   13MOL     C8 4112   5.601   6.482   6.832  0.7297  0.5860 -1.2169
   13MOL     C9 4113   5.744   6.434   6.562  0.5346  0.3752  0.3665
   13MOL    H10 4114   5.859   6.598   6.628 -0.4457  1.3553  1.2083
   13MOL    H11 4115   5.764   6.775   6.753  0.3865 -2.3895 -1.2673
   13MOL    H12 4116   5.609   6.859   6.933 -0.9086  1.3427 -1.9232
   13MOL    H13 4117   5.441   6.814   7.074  1.6753  0.0159  0.7808
   13MOL    H14 4118   5.431   6.472   6.973 -0.7311 -0.1392 -0.1768
   13MOL    H15 4119   5.611   6.376   6.817 -0.8216  0.4084 -1.0473
   13MOL    H16 4120   5.697   6.509   6.499 -0.2335  0.4674  1.0440
   13MOL    H17 4121   5.673   6.362   6.603  1.3422  0.0229  1.1932
   13MOL    H18 4122   5.884   6.467   6.730 -2.3969 -1.5208  1.9823
   13MOL    C19 4123   5.842   6.349   6.475 -0.2817 -0.5540 -0.4698
   13MOL    C20 4124   5.773   6.318   6.346  0.4446  1.1074  0.2261
   13MOL    C21 4125   5.646   6.253   6.346  1.1813  0.3862  0.8033
   13MOL    C22 4126   5.574   6.218   6.235  0.1979 -0.1015  0.1081
   13MOL    C23 4127   5.625   6.254   6.108  0.8036 -0.5486 -0.3097
   13MOL    O24 4128   5.559   6.240   5.993  0.3094 -0.1738 -0.0750
   13MOL    C25 4129   5.747   6.330   6.100  0.3003  0.3330  0.1163
   13MOL    C26 4130   5.828   6.339   6.218 -1.4607 -0.6704 -0.4721
   13MOL    C27 4131   5.872   6.214   6.541  0.1567 -0.9536  0.4421
   13MOL    H28 4132   5.931   6.409   6.459  0.8697 -1.6965  1.4286
   13MOL    H29 4133   5.611   6.218   6.442  1.9441 -0.3450  0.8186
   13MOL    H30 4134   5.472   6.182   6.242 -0.1540  0.6332 -1.0615
   13MOL    H31 4135   5.469   6.222   6.016  0.2072  1.4125  0.8407
   13MOL    H32 4136   5.794   6.371   6.012 -1.4112 -0.9729 -1.4359
   13MOL    H33 4137   5.925   6.384   6.213 -1.3718 -0.7871  0.2404
   13MOL    H34 4138   5.790   6.144   6.528  0.8374 -1.5079 -0.9074
   13MOL    H35 4139   5.876   6.229   6.649 -3.0225 -1.4954  0.6820
   13MOL    C36 4140   5.996   6.140   6.489 -0.0464 -0.2369 -0.1376
   13MOL    C37 4141   6.026   6.008   6.555  0.5271 -0.1396 -0.0957
   13MOL    C38 4142   6.049   6.011   6.698  0.0873 -0.1165  0.0649
   13MOL    C39 4143   6.075   5.895   6.773  0.4107  0.0748  0.4434
   13MOL    C40 4144   6.078   5.771   6.700 -1.1171 -0.4059 -0.3853
   13MOL    O41 4145   6.089   5.653   6.768 -0.3549  0.3178  0.9799
   13MOL    C42 4146   6.077   5.769   6.560  0.0351  0.5751  0.6653
   13MOL    C43 4147   6.039   5.888   6.487 -0.4789 -0.1350  1.1343
   13MOL    C44 4148   6.123   6.226   6.500  0.1620  0.4464  0.1145
   13MOL    H45 4149   5.982   6.121   6.383 -1.3469 -0.7760  0.1122
   13MOL    H46 4150   6.052   6.110   6.740 -0.6620  0.7564 -1.8890
   13MOL    H47 4151   6.083   5.894   6.880 -0.3848  1.0505  0.5223
   13MOL    H48 4152   6.095   5.567   6.729  1.9347  0.1225  1.6800
   13MOL    H49 4153   6.075   5.668   6.521 -0.0402 -0.1982  2.6173
   13MOL    H50 4154   6.031   5.883   6.380  0.9294 -0.8061  1.0527
   13MOL    H51 4155   6.112   6.328   6.463  1.5567  0.4666 -0.2801
   13MOL    H52 4156   6.148   6.238   6.605  1.1077 -0.6717  0.0217
   13MOL    C53 4157   6.256   6.182   6.434  0.4045 -0.4149  0.3725
   13MOL    C54 4158   6.237   6.136   6.289  0.0500 -0.6060 -0.6630
   13MOL    C55 4159   6.263   6.000   6.251 -0.1515 -0.4196  0.4881
   13MOL    C56 4160   6.247   5.966   6.115  0.3087 -0.1806 -0.1803
   13MOL    C57 4161   6.200   6.061   6.022  0.4617  0.4939  0.2854
   13MOL    O58 4162   6.205   6.026   5.893 -0.1158 -0.1463  0.3601
   13MOL    C59 4163   6.157   6.188   6.067 -0.7337 -0.2192  0.0939
   13MOL    C60 4164   6.181   6.225   6.199  0.0310  0.1407 -0.3896
   13MOL    C61 4165   6.359   6.294   6.442 -0.0428 -0.5614 -0.2200
   13MOL    H62 4166   6.288   6.096   6.493  0.8860  0.2990  1.1577
   13MOL    H63 4167   6.296   5.928   6.324 -1.9357  0.0306  1.7660
   13MOL    H64 4168   6.272   5.871   6.070 -1.5864 -0.5393 -0.5106
   13MOL    H65 4169   6.244   6.092   5.838  2.1157 -1.4025  0.3612
   13MOL    H66 4170   6.108   6.254   5.997  0.3954  0.7028  0.1547
   13MOL    H67 4171   6.154   6.321   6.240 -0.7165 -0.1184 -0.2684
   13MOL    H68 4172   6.321   6.386   6.398 -0.7900  0.0843  1.6901
   13MOL    H69 4173   6.438   6.258   6.376 -0.1192  1.4798 -1.4641
   13MOL    C70 4174   6.403   6.322   6.593  0.1191 -0.1529  0.7211
   13MOL    C71 4175   6.330   6.447   6.653  0.1309 -0.2655  0.7454
   13MOL    C72 4176   6.261   6.424   6.778 -0.1681 -0.3695  0.5674
   13MOL    C73 4177   6.190   6.527   6.839  0.3325 -0.2290  0.5331
   13MOL    C74 4178   6.179   6.649   6.778 -0.1728 -0.2249  0.4719
   13MOL    O75 4179   6.098   6.742   6.828 -0.0806 -0.7511 -0.4640
   13MOL    C76 4180   6.242   6.674   6.653 -0.3354  0.3472  0.2039
   13MOL    C77 4181   6.321   6.576   6.592 -0.1124 -0.1980  0.3232
   13MOL    C78 4182   6.558   6.328   6.606 -0.3754  0.3720  0.4670
   13MOL    H79 4183   6.361   6.241   6.652  0.7620 -0.9868  0.0492
   13MOL    H80 4184   6.255   6.322   6.812 -1.7023 -1.2555 -2.1457
   13MOL    H81 4185   6.121   6.517   6.921 -0.5826  0.7894 -0.0907
   13MOL    H82 4186   6.101   6.736   6.922  3.9089 -1.0920 -0.5431
   13MOL    H83 4187   6.218   6.765   6.601  1.2780  0.1714 -0.8874
   13MOL    H84 4188   6.362   6.600   6.495  0.8477 -0.5228  0.6353
   13MOL    H85 4189   6.575   6.380   6.700  0.4410  2.1172 -0.6225
   13MOL    H86 4190   6.602   6.399   6.536 -1.5533  1.7052  1.0603
   13MOL    C87 4191   6.626   6.188   6.606 -0.4652 -0.5932 -0.3511
   13MOL    C88 4192   6.584   6.123   6.740 -0.4216 -0.0044  0.3739
   13MOL    C89 4193   6.488   6.015   6.747  0.2316  0.0230  0.7368
   13MOL    C90 4194   6.464   5.947   6.867 -0.2805 -0.3958 -0.0936
   13MOL    C91 4195   6.537   5.993   6.982  0.0946  0.2068  0.4062
   13MOL    O92 4196   6.533   5.915   7.097  0.3317 -0.6638  0.0990
   13MOL    C93 4197   6.613   6.109   6.981 -0.3293  0.2669  0.1962
   13MOL    C94 4198   6.637   6.169   6.860  0.7303  0.0388  0.2804
   13MOL    C95 4199   6.778   6.176   6.574 -0.5760  0.2004 -0.5052
   13MOL    H96 4200   6.576   6.145   6.519 -1.1173  0.3310 -0.4444
   13MOL    H97 4201   6.434   5.976   6.661  2.2166 -2.0412  0.3738
   13MOL    H98 4202   6.395   5.864   6.859 -4.0184  2.5647  0.0825
   13MOL    H99 4203   6.459   5.856   7.096  0.2009 -0.4983 -0.0461
   13MOL   H100 4204   6.677   6.133   7.065 -0.4516  0.1885  0.3109
   13MOL   H101 4205   6.714   6.245   6.862  0.8048  0.0931 -2.7233
   13MOL   H102 4206   6.832   6.207   6.664 -1.7420 -2.4562  1.1571
   13MOL   H103 4207   6.791   6.072   6.543  0.9232 -0.0194  0.8083
   13MOL   C104 4208   6.831   6.261   6.456 -0.4557  0.3215 -0.5287
   13MOL   C105 4209   6.751   6.248   6.326  0.0404 -0.2003 -0.2740
   13MOL   C106 4210   6.732   6.124   6.261  0.0196 -0.2196 -0.0181
   13MOL   C107 4211   6.671   6.115   6.137 -0.3524  0.6297 -0.3446
   13MOL   C108 4212   6.604   6.225   6.085 -0.4648 -0.3950  0.2695
   13MOL   O109 4213   6.537   6.218   5.969  0.0239  0.0688 -0.6918
   13MOL   C110 4214   6.621   6.349   6.151 -0.4581  0.5999 -0.1897
   13MOL   C111 4215   6.705   6.366   6.264 -0.1120  0.1391 -0.4190
   13MOL   C112 4216   6.979   6.241   6.415  0.5249  0.0248  0.3576
   13MOL   H113 4217   6.810   6.363   6.487 -1.8589 -0.3554  0.7809
   13MOL   H114 4218   6.767   6.032   6.306 -0.0183 -0.1442  0.1636
   13MOL   H115 4219   6.658   6.020   6.086 -1.8370  1.5464 -1.7050
   13MOL   H116 4220   6.484   6.291   5.944 -1.7339 -0.8643  0.2418
   13MOL   H117 4221   6.575   6.436   6.108  0.3347  0.5194 -1.2264
   13MOL   H118 4222   6.711   6.461   6.314  0.7760 -1.5778  2.8870
   13MOL   H119 4223   7.004   6.275   6.315  1.0605 -1.0058  0.1336
   13MOL   H120 4224   6.996   6.133   6.422 -0.8879 -0.3763 -2.0820
   13MOL   C121 4225   7.074   6.303   6.515 -0.6404 -0.2072  0.3256
   13MOL   C122 4226   7.209   6.238   6.511 -0.2192  0.4332  0.5399
   13MOL   C123 4227   7.282   6.241   6.388 -0.5918 -0.4269 -0.4949
   13MOL   C124 4228   7.408   6.188   6.379 -0.8311 -0.1547  0.1815
   13MOL   C125 4229   7.461   6.123   6.494  0.0421  0.7170  0.5930
   13MOL   O126 4230   7.590   6.075   6.487  0.3417 -0.0070 -0.0199
   13MOL   C127 4231   7.393   6.118   6.616  0.0995 -0.0093  0.0129
   13MOL   C128 4232   7.267   6.171   6.626 -0.3722 -0.3431  0.4278
   13MOL   C129 4233   7.084   6.460   6.517  0.2037  0.4709  0.6165
   13MOL   H130 4234   7.035   6.270   6.611 -0.4993  1.4699  0.9694
   13MOL   H131 4235   7.234   6.295   6.308  1.7453  2.7123  0.1240
   13MOL   H132 4236   7.461   6.188   6.285  0.7523  1.4370  1.0480
   13MOL   H133 4237   7.631   6.027   6.558  0.3991  1.1276  0.7337
   13MOL   H134 4238   7.439   6.069   6.700 -1.3736  0.1425  0.9435
   13MOL   H135 4239   7.217   6.169   6.722 -0.9993 -1.7124  0.0859
   13MOL   H136 4240   6.983   6.494   6.493  0.2967  1.0015  0.9655
   13MOL   H137 4241   7.152   6.489   6.438 -0.6057  1.1157  0.1504
   13MOL   C138 4242   7.135   6.517   6.648 -0.1330  0.0310 -0.1485
   13MOL   C139 4243   7.025   6.485   6.753 -0.5623  0.0150  0.0181
   13MOL   C140 4244   7.066   6.428   6.880 -0.1780  0.3047 -0.2186
   13MOL   C141 4245   6.972   6.420   6.986 -0.2139  0.0905 -0.3485
   13MOL   C142 4246   6.839   6.455   6.962 -0.1603 -0.1382  1.1265
   13MOL   O143 4247   6.750   6.442   7.065 -0.5676  0.0826 -0.0973
   13MOL   C144 4248   6.796   6.509   6.840 -0.2105 -0.0641  0.3431
   13MOL   C145 4249   6.888   6.522   6.736 -0.1179 -0.2058  0.0943
   13MOL   C146 4250   7.169   6.665   6.650 -0.3051 -0.4533  0.4133
   13MOL   H147 4251   7.219   6.450   6.669 -0.0123  0.2341  0.0249
   13MOL   H148 4252   7.169   6.398   6.887 -0.5138 -0.6032  1.1195
   13MOL   H149 4253   7.004   6.398   7.087 -0.1740  0.0363 -0.3730
   13MOL   H150 4254   6.690   6.514   7.071  0.4954  1.0711 -0.9714
   13MOL   H151 4255   6.698   6.546   6.817 -0.1556 -0.3601 -0.3780
   13MOL   H152 4256   6.844   6.563   6.646  0.4173 -0.6246 -0.3646
   13MOL   H153 4257   7.086   6.712   6.598 -1.5760 -2.6397  0.4258
   13MOL   H154 4258   7.250   6.688   6.581 -0.3682  0.4931  0.6499
   13MOL   C155 4259   7.189   6.738   6.782  0.3762 -0.3059  0.2177
   13MOL   C156 4260   7.184   6.891   6.768  0.0213  1.6002 -0.1269
   13MOL   C157 4261   7.272   6.959   6.679 -0.2268 -0.3420 -0.7320
   13MOL   C158 4262   7.282   7.099   6.678  0.3516  0.8533  0.2655
   13MOL   C159 4263   7.189   7.170   6.763  0.7187  0.3275  0.0278
   13MOL   O160 4264   7.194   7.306   6.757 -0.3380  0.0177  0.3205
   13MOL   C161 4265   7.099   7.102   6.848 -0.4370  0.3115 -0.0197
   13MOL   C162 4266   7.101   6.962   6.854  0.4030  0.4893 -0.3121
   13MOL   C163 4267   7.312   6.690   6.856  0.2959 -0.1701 -0.0818
   13MOL   H164 4268   7.104   6.714   6.845 -1.2626 -1.0918 -2.2320
   13MOL   H165 4269   7.348   6.909   6.620 -0.6050 -0.8684 -0.7803
   13MOL   H166 4270   7.331   7.140   6.592  1.3860 -0.6651  0.1112
   13MOL   H167 4271   7.133   7.334   6.823 -0.5216  1.3383 -0.3914
   13MOL   H168 4272   7.033   7.147   6.921 -2.4379  0.2164 -1.7349
   13MOL   H169 4273   7.034   6.911   6.922 -0.7483 -1.1385 -2.5871
   13MOL   H170 4274   7.399   6.706   6.792  0.9973 -2.6016  0.1935
   13MOL   H171 4275   7.310   6.581   6.867  0.5866 -0.1854 -0.1825
   13MOL   C172 4276   7.347   6.753   6.995  0.3023  0.4546 -0.3888
   13MOL   C173 4277   7.492   6.735   7.027 -0.3165 -0.3537  0.3207
   13MOL   C174 4278   7.546   6.603   7.044  0.0041 -0.5746 -0.1086
   13MOL   C175 4279   7.684   6.583   7.085  0.4512  0.5061 -0.2010
   13MOL   C176 4280   7.767   6.693   7.103 -0.3181 -0.8348 -0.2895
   13MOL   O177 4281   7.894   6.672   7.154  0.0886  0.3103  0.1291
   13MOL   C178 4282   7.721   6.820   7.068  0.6899  0.7162 -1.0417
   13MOL   C179 4283   7.584   6.845   7.040  0.0242  0.5097 -0.4373
   13MOL   C180 4284   7.264   6.693   7.110  0.9484 -0.3046  0.6252
   13MOL   H181 4285   7.327   6.860   6.986 -0.2074  0.3686 -0.2857
   13MOL   H182 4286   7.493   6.510   7.026 -1.7485  0.8997 -2.9833
   13MOL   H183 4287   7.714   6.479   7.091 -0.5307  0.1090 -1.7742
   13MOL   H184 4288   7.939   6.741   7.200  1.7999 -0.9351  0.3821
   13MOL   H185 4289   7.775   6.910   7.092  3.1946 -1.3703  1.4983
   13MOL   H186 4290   7.558   6.949   7.053  0.1830  0.5164 -0.1754
   13MOL   H187 4291   7.294   6.589   7.120  0.6551 -0.2002  2.7075
   13MOL   H188 4292   7.161   6.677   7.080  0.6421  1.2551  0.7720
   13MOL   C189 4293   7.264   6.763   7.248  0.1518  0.6154 -0.6439
   13MOL   C190 4294   7.202   6.898   7.242  0.5681 -0.2030 -0.2617
   13MOL   C191 4295   7.058   6.914   7.242  0.3223 -0.6090 -0.5567
   13MOL   C192 4296   7.007   7.045   7.228  0.3311 -0.1213 -0.4626
   13MOL   C193 4297   7.092   7.157   7.217 -0.2679 -0.2292  0.1165
   13MOL   O194 4298   7.036   7.281   7.216  0.2845 -0.0473 -0.1124
   13MOL   C195 4299   7.231   7.144   7.215 -0.0376  0.0686 -0.0035
   13MOL   C196 4300   7.285   7.012   7.230 -0.0142  0.1796 -0.5258
   13MOL   C197 4301   7.207   6.667   7.364  0.3473 -0.7622  0.0209
   13MOL   H198 4302   7.369   6.777   7.274  0.0183 -0.4991  0.5788
   13MOL   H199 4303   6.987   6.833   7.247 -1.9509  1.4429  2.2680
   13MOL   H200 4304   6.900   7.059   7.220  0.1180 -0.1592  1.8832
   13MOL   H201 4305   6.957   7.279   7.269  1.0589 -1.2720  1.0328
   13MOL   H202 4306   7.294   7.231   7.203 -1.7810  1.5624  1.3264
   13MOL   H203 4307   7.392   7.001   7.222 -0.1154 -2.2672  0.8836
   13MOL   H204 4308   7.246   6.565   7.360  1.1950 -0.3978 -2.1628
   13MOL   H205 4309   7.105   6.647   7.330  0.8655 -1.3051 -1.2673
   13MOL   C206 4310   7.216   6.721   7.511 -0.2676 -0.7049  0.5164
   13MOL   C207 4311   7.362   6.748   7.544 -0.8953 -0.3087 -0.0771
   13MOL   C208 4312   7.412   6.882   7.563 -0.3821 -0.5748  0.1300
   13MOL   C209 4313   7.545   6.911   7.592 -0.3099  0.5592  0.9027
   13MOL   C210 4314   7.640   6.809   7.601  0.0725  0.3080  0.2751
   13MOL   O211 4315   7.767   6.848   7.632 -0.6133 -0.2173 -0.0212
   13MOL   C212 4316   7.596   6.676   7.578  0.2524  0.0706  0.9207
   13MOL   C213 4317   7.460   6.646   7.554 -0.0887 -0.0348  0.0567
   13MOL   C214 4318   7.149   6.634   7.619  0.0632  0.3346 -0.2745
   13MOL   H215 4319   7.168   6.818   7.523  0.4668 -0.4502  1.5188
   13MOL   H216 4320   7.345   6.966   7.571 -0.5161 -0.8095  1.6413
   13MOL   H217 4321   7.573   7.012   7.619 -0.7329  0.9446 -0.0940
   13MOL   H218 4322   7.775   6.896   7.713 -0.2098 -0.5013  0.1074
   13MOL   H219 4323   7.668   6.596   7.580  0.2553  0.0543  0.2233
   13MOL   H220 4324   7.421   6.546   7.544 -0.3120 -0.1488  1.9302
   13MOL   H221 4325   7.151   6.692   7.711  0.5700 -0.0369 -0.0499
   13MOL   H222 4326   7.211   6.546   7.638 -0.5698  0.4042  2.1649
   13MOL   C223 4327   7.012   6.581   7.590  0.4565 -0.4371  0.9213
   13MOL   C224 4328   6.911   6.690   7.544  0.1435  0.2234 -0.6572
   13MOL   C225 4329   6.895   6.808   7.612  0.1187 -0.3509 -0.4936
   13MOL   C226 4330   6.826   6.919   7.555 -0.4152 -0.1307  0.3534
   13MOL   C227 4331   6.738   6.899   7.444 -0.6237 -0.2365 -0.2640
   13MOL   O228 4332   6.658   7.002   7.394 -0.2425 -0.1128  0.6381
   13MOL   C229 4333   6.750   6.776   7.373  0.6783 -0.0195  0.4824
   13MOL   C230 4334   6.834   6.680   7.426  0.0285 -0.6357  0.2161
   13MOL   C231 4335   6.950   6.515   7.714  0.4130 -0.5534 -0.1014
   13MOL   H232 4336   7.019   6.497   7.521 -0.6675 -0.2004  0.4991
   13MOL   H233 4337   6.964   6.827   7.693  0.2717  0.3398 -0.7853
   13MOL   H234 4338   6.828   7.013   7.607 -0.0550 -0.5710  1.1394
   13MOL   H235 4339   6.602   6.979   7.321 -0.1455 -1.2721  0.9289
   13MOL   H236 4340   6.687   6.750   7.289  0.8461  0.2945  0.2574
   13MOL   H237 4341   6.830   6.585   7.375 -1.8066  0.0259 -0.9350
   13MOL   H238 4342   6.966   6.576   7.802 -0.4494  0.1948 -0.4558
   13MOL   H239 4343   6.844   6.518   7.685  1.0199 -2.5051 -2.7737
   13MOL   C240 4344   6.983   6.362   7.742  0.1974 -0.7611 -0.2689
   13MOL   C241 4345   7.132   6.344   7.778 -0.1444  0.3663  0.0832
   13MOL   C242 4346   7.215   6.268   7.692  0.1195  0.3333  0.1636
   13MOL   C243 4347   7.354   6.264   7.716  0.2348 -0.1908 -0.2967
   13MOL   C244 4348   7.411   6.325   7.826 -0.1772 -0.3945  0.1498
   13MOL   O245 4349   7.544   6.317   7.843 -0.1757 -0.1384  0.0201
   13MOL   C246 4350   7.330   6.400   7.909 -0.3833 -0.7761  0.0154
   13MOL   C247 4351   7.192   6.409   7.882 -0.3065 -0.3628  0.1188
   13MOL   C248 4352   6.880   6.308   7.845 -0.4025 -1.2818  0.5167
   13MOL   H249 4353   6.981   6.297   7.654  2.6054 -1.6184  0.2673
   13MOL   H250 4354   7.164   6.214   7.613 -0.6399  1.0828  0.1339
   13MOL   H251 4355   7.417   6.209   7.648  1.5661 -0.0805  0.8424
   13MOL   H252 4356   7.576   6.231   7.818 -1.0817 -0.6097  0.4494
   13MOL   H253 4357   7.365   6.440   8.003  1.1999  0.6730 -1.1702
   13MOL   H254 4358   7.124   6.462   7.948 -0.1311 -2.0950  1.7320
   13MOL   H255 4359   6.869   6.386   7.920 -3.2076 -0.0539 -1.0738
   13MOL   H256 4360   6.786   6.294   7.790 -0.2931  1.4560 -0.4312
   13MOL   C257 4361   6.917   6.183   7.918  0.1039 -0.0224 -0.4614
   13MOL   C258 4362   6.817   6.165   8.031 -0.3665  0.7526  0.2206
   13MOL   C259 4363   6.859   6.177   0.133  0.2589  0.0999 -0.0906
   13MOL   C260 4364   6.766   6.156   0.241 -0.0446 -0.1180 -0.8744
   13MOL   C261 4365   6.633   6.139   0.206 -0.1173  0.0130  0.4271
   13MOL   O262 4366   6.544   6.129   0.300  0.1450 -0.0926  0.2704
   13MOL   C263 4367   6.595   6.121   0.075 -0.4365  0.0071 -0.0547
   13MOL   C264 4368   6.685   6.130   8.005 -0.4350  0.1854 -0.3264
   13MOL   C265 4369   6.949   6.051   7.838 -0.7103  0.3859  0.0592
   13MOL   H266 4370   7.013   6.210   7.962 -1.5114  0.9619  2.5996
   13MOL   H267 4371   6.961   6.207   0.154  0.0792 -0.9923  2.5099
   13MOL   H268 4372   6.789   6.169   0.346 -1.4553 -1.7727 -0.3269
   13MOL   H269 4373   6.464   6.087   0.272  0.2187  1.2524 -2.0750
   13MOL   H270 4374   6.495   6.083   0.062 -0.3067  0.7292 -3.5968
   13MOL   H271 4375   6.652   6.137   7.903  1.0782  0.7943 -0.7982
   13MOL   H272 4376   7.022   6.074   7.760  0.9079 -0.3568  1.3130
   13MOL   H273 4377   6.856   6.018   7.792 -0.3356 -1.1674  0.3861
   13MOL   C274 4378   7.000   5.936   7.932  0.3484  0.2151  0.4115
   13MOL   C275 4379   7.141   5.973   7.973 -0.5139  0.0875  0.2765
   13MOL   C276 4380   7.170   5.983   0.073 -0.9816  0.0895 -0.5872
   13MOL   C277 4381   7.299   6.019   0.114  0.2121  0.0544 -0.0892
   13MOL   C278 4382   7.396   6.040   0.020 -1.2225 -0.3813  0.4042
   13MOL   O279 4383   7.524   6.083   0.057  0.2212  0.0585  0.1084
   13MOL   C280 4384   7.368   6.015   7.920  0.0766 -0.0414  0.4265
   13MOL   C281 4385   7.241   5.976   7.875  0.1944 -0.2285 -0.3032
   13MOL   C282 4386   6.994   5.795   7.863  0.5651 -0.7346 -0.0642
   13MOL   H283 4387   6.933   5.941   8.018 -1.5509  0.0175 -1.0164
   13MOL   H284 4388   7.097   5.967   0.152  0.8999 -2.5895  0.7095
   13MOL   H285 4389   7.322   6.028   0.219 -1.2005 -0.3065  0.2684
   13MOL   H286 4390   7.532   6.123   0.142 -1.9313 -1.3761  1.0475
   13MOL   H287 4391   7.443   6.014   7.843  0.5399 -0.9913  0.8790
   13MOL   H288 4392   7.222   5.942   7.774  1.2309 -2.4325  0.2119
   13MOL   H289 4393   7.010   5.801   7.756  1.6137  0.0161  0.1308
   13MOL   H290 4394   7.075   5.740   7.910  1.1517 -1.5553 -1.9850
   13MOL   C291 4395   6.873   5.715   7.903 -0.5385  0.3988  0.5802
   13MOL   C292 4396   6.827   5.718   0.012  0.1808 -0.3069  0.0913
   13MOL   C293 4397   6.921   5.713   0.117 -0.5175  0.3892 -0.4445
   13MOL   C294 4398   6.872   5.712   0.251  0.0925  0.5515  0.1408
   13MOL   C295 4399   6.732   5.704   0.279 -0.4218 -0.4895  0.2746
   13MOL   O296 4400   6.681   5.692   0.410  0.4172  0.8198  0.1515
   13MOL   C297 4401   6.643   5.715   0.175  0.3777  0.6314 -0.4989
   13MOL   C298 4402   6.689   5.722   0.044 -0.6565  0.0308  0.7150
   13MOL   C299 4403   6.877   5.573   7.858  0.3622  0.2122  0.2053
   13MOL   H300 4404   6.787   5.771   7.866  0.1932  1.3824  0.3375
   13MOL   H301 4405   7.024   5.709   0.087 -0.4598 -0.1050 -0.1883
   13MOL   H302 4406   6.943   5.714   0.332  0.0019  0.5471  0.2208
   13MOL   H303 4407   6.737   5.734   0.474  1.6373  1.4477 -1.3039
   13MOL   H304 4408   6.538   5.715   0.199  0.5625  0.8601  0.3015
   13MOL   H305 4409   6.617   5.713   8.002 -0.3601 -1.4810  0.6174
   13MOL   H306 4410   6.780   5.527   7.882  0.7656 -0.5113  0.4897
   13MOL   H307 4411   6.946   5.507   7.911  0.0556 -0.6295 -0.4324
   13MOL   C308 4412   6.899   5.540   7.711  0.7746  0.5866  0.0689
   13MOL   C309 4413   6.810   5.624   7.622 -0.8635  0.2147 -0.1557
   13MOL   C310 4414   6.671   5.624   7.638  0.3337 -0.2803  0.0992
   13MOL   C311 4415   6.595   5.696   7.552  0.1917 -0.6799 -0.2142
   13MOL   C312 4416   6.653   5.776   7.451 -0.2007  0.1217 -1.2174
   13MOL   O313 4417   6.568   5.858   7.377  0.3226  0.0138  0.7339
   13MOL   C314 4418   6.792   5.780   7.435 -0.5591 -0.4189 -0.4345
   13MOL   C315 4419   6.867   5.703   7.523 -0.0655 -0.4022  0.8440
   13MOL   C316 4420   6.908   5.389   7.669 -0.0746  0.4965 -0.2212
   13MOL   H317 4421   6.995   5.585   7.682 -0.2218  2.4331 -0.4647
   13MOL   H318 4422   6.628   5.552   7.706 -0.1506 -2.1278 -2.1051
   13MOL   H319 4423   6.488   5.697   7.562  0.1600  1.5799 -0.4677
   13MOL   H320 4424   6.625   5.905   7.317  0.7428  3.8993  3.9061
   13MOL   H321 4425   6.848   5.848   7.373  0.0460 -0.5087  0.0115
   13MOL   H322 4426   6.974   5.718   7.515  0.9290 -6.0491  0.9835
   13MOL   H323 4427   6.989   5.332   7.715  0.8496  0.5092 -1.8012
   13MOL   H324 4428   6.945   5.381   7.567 -1.1341  1.4600 -0.6998
   13MOL   C325 4429   6.783   5.297   7.692 -0.0728 -0.1245  0.4625
   13MOL   C326 4430   6.788   5.230   7.830  1.1222  0.3482 -0.3552
   13MOL   C327 4431   6.702   5.270   7.933  0.8706 -0.2230 -0.5632
   13MOL   C328 4432   6.704   5.203   0.020  0.3719 -0.4162 -0.6037
   13MOL   C329 4433   6.802   5.107   0.049  0.2928  0.6830  0.1427
   13MOL   O330 4434   6.807   5.052   0.170  0.5132  0.3099 -0.4708
   13MOL   C331 4435   6.899   5.076   7.986 -0.0520 -0.0673 -0.6208
   13MOL   C332 4436   6.879   5.121   7.855 -0.5098 -0.8013 -0.0956
   13MOL   C333 4437   6.775   5.205   7.571  0.4388 -0.4633 -0.4233
   13MOL   H334 4438   6.689   5.351   7.682 -0.2672 -0.3682  0.9615
   13MOL   H335 4439   6.614   5.329   7.912 -1.2972 -3.3093 -0.5552
   13MOL   H336 4440   6.634   5.242   0.092 -1.0539 -2.3205 -0.9266
   13MOL   H337 4441   6.793   5.121   0.233 -0.8709  0.0132 -0.4520
   13MOL   H338 4442   6.976   5.001   7.998  2.9490  2.8660 -1.2135
   13MOL   H339 4443   6.945   5.087   7.776  0.2575  1.3134 -0.4081
   13MOL   H340 4444   6.793   5.268   7.484 -1.6958  1.2480  0.3268
   13MOL   H341 4445   6.678   5.156   7.560 -0.3334  1.0494 -0.3543
   13MOL   H342 4446   6.850   5.126   7.557  1.4414  0.7610 -2.1930
   14MOL     C1 4447   7.018   5.795   6.530 -0.2928 -0.1426 -0.5523
   14MOL     C2 4448   7.013   5.848   6.387  0.6626  0.6178 -0.1963
   14MOL     C3 4449   7.120   5.916   6.327  1.1002 -0.1203 -0.3252
   14MOL     C4 4450   7.115   5.943   6.189  0.6001 -0.8520 -0.0704
   14MOL     C5 4451   7.006   5.902   6.113 -0.0503  0.3406  0.6803
   14MOL     O6 4452   7.009   5.917   5.978 -0.0264  0.1545 -0.1273
   14MOL     C7 4453   6.899   5.832   6.171  0.0764 -0.7394  0.1982
   14MOL     C8 4454   6.904   5.810   6.307 -0.0132  1.3208  0.1480
   14MOL     C9 4455   7.146   5.747   6.595 -0.8201  0.1206 -0.4921
   14MOL    H10 4456   6.983   5.884   6.583 -1.7948  0.5096 -2.5366
   14MOL    H11 4457   7.206   5.939   6.388  0.2303 -1.7234  1.5685
   14MOL    H12 4458   7.200   5.986   6.139 -0.0387 -1.8972 -2.1231
   14MOL    H13 4459   6.933   5.970   5.960  0.8559  1.5331  0.1617
   14MOL    H14 4460   6.819   5.795   6.109 -0.0213  3.4701 -2.4148
   14MOL    H15 4461   6.821   5.753   6.348  0.9600  0.6430  1.1980
   14MOL    H16 4462   7.219   5.823   6.622  0.6683 -2.1131  1.9792
   14MOL    H17 4463   7.190   5.678   6.523 -1.1153  0.2330 -0.7854
   14MOL    H18 4464   6.937   5.728   6.558 -0.0671  0.5280  1.7585
   14MOL    C19 4465   7.131   5.669   6.730 -0.2901 -0.3968  0.9410
   14MOL    C20 4466   7.044   5.740   6.828  0.1236  0.0339  0.2960
   14MOL    C21 4467   7.093   5.857   6.894  0.1432 -0.5864  0.7908
   14MOL    C22 4468   7.017   5.914   6.995 -0.6219  0.0694  1.2970
   14MOL    C23 4469   6.893   5.855   7.026 -0.4121 -0.6011  0.4113
   14MOL    O24 4470   6.811   5.917   7.115  0.2469  0.4295 -0.4832
   14MOL    C25 4471   6.845   5.746   6.952  0.4070  0.0003  0.7582
   14MOL    C26 4472   6.911   5.696   6.846 -0.2711  0.9294  0.1917
   14MOL    C27 4473   7.270   5.619   6.795 -0.2877  0.6421 -0.0538
   14MOL    H28 4474   7.084   5.576   6.700  0.4039 -0.0489 -1.3226
   14MOL    H29 4475   7.196   5.880   6.876 -0.5479  1.4017 -0.7668
   14MOL    H30 4476   7.053   5.996   7.055  0.0478  1.1773 -0.5734
   14MOL    H31 4477   6.717   5.908   7.105  0.2992 -0.7306 -0.0985
   14MOL    H32 4478   6.745   5.709   6.969 -0.8323  2.1051 -1.6037
   14MOL    H33 4479   6.873   5.605   6.804 -0.0574  1.1201 -0.4118
   14MOL    H34 4480   7.301   5.710   6.846  2.6382 -1.3677  1.9260
   14MOL    H35 4481   7.347   5.616   6.718  0.2741 -0.6711  0.5515
   14MOL    C36 4482   7.285   5.491   6.881 -0.3091  0.0033 -0.3035
   14MOL    C37 4483   7.182   5.492   6.993 -0.0524  0.0812  0.2748
   14MOL    C38 4484   7.213   5.560   7.111 -0.8340  1.2080  0.0222
   14MOL    C39 4485   7.129   5.552   7.223 -0.1728 -0.2397  0.0035
   14MOL    C40 4486   7.007   5.484   7.204  0.2447 -0.4087  0.0514
   14MOL    O41 4487   6.926   5.458   7.311  0.1725 -0.5183 -0.0728
   14MOL    C42 4488   6.974   5.421   7.080  0.0911 -0.2857  0.9425
   14MOL    C43 4489   7.064   5.427   6.973  0.3920 -0.4135  0.0169
   14MOL    C44 4490   7.430   5.467   6.935  0.1734 -0.0326  0.5140
   14MOL    H45 4491   7.267   5.402   6.821  0.2343  0.9683 -1.9355
   14MOL    H46 4492   7.306   5.614   7.114  0.3990 -0.7487 -1.5652
   14MOL    H47 4493   7.160   5.610   7.309  0.3495  1.4451 -1.2989
   14MOL    H48 4494   6.922   5.539   7.360 -2.5502 -0.8755  0.3789
   14MOL    H49 4495   6.883   5.363   7.073 -0.4108  0.6959 -1.1048
   14MOL    H50 4496   7.042   5.355   6.896 -0.4916 -1.3020  1.0701
   14MOL    H51 4497   7.477   5.546   6.994 -0.1910  1.2567 -0.8870
   14MOL    H52 4498   7.418   5.386   7.006  0.6658 -1.8066 -1.3701
   14MOL    C53 4499   7.539   5.425   6.833 -0.2504  0.2413  0.2736
   14MOL    C54 4500   7.682   5.452   6.897  0.0788  0.3354  0.5828
   14MOL    C55 4501   7.793   5.503   6.829  0.0084  0.4560  0.1778
   14MOL    C56 4502   7.919   5.510   6.890  0.5283  0.6352 -0.2083
   14MOL    C57 4503   7.944   5.461   7.019  0.4384 -0.5147  0.6048
   14MOL    O58 4504   0.032   5.450   7.072 -0.0183  0.3362  0.5089
   14MOL    C59 4505   7.832   5.415   7.092  0.3464  0.3680 -0.0389
   14MOL    C60 4506   7.705   5.407   7.029 -0.0942  0.1252  0.1646
   14MOL    C61 4507   7.527   5.283   6.792 -0.5605 -0.2451  0.5384
   14MOL    H62 4508   7.531   5.494   6.749  1.4293  0.7486  0.5085
   14MOL    H63 4509   7.779   5.549   6.732  1.3403 -0.8719 -0.6657
   14MOL    H64 4510   7.997   5.557   6.831  1.8994  2.2346  2.7634
   14MOL    H65 4511   0.108   5.452   7.017 -0.9292  2.5301 -0.7415
   14MOL    H66 4512   7.844   5.383   7.195 -0.4646 -1.4334 -0.4731
   14MOL    H67 4513   7.618   5.377   7.086 -0.6435  0.6526 -0.3856
   14MOL    H68 4514   7.429   5.245   6.821 -1.1229  1.4907  0.9972
   14MOL    H69 4515   7.593   5.214   6.844 -0.2409 -0.1417  0.2758
   14MOL    C70 4516   7.555   5.252   6.640  1.0085  0.5081 -0.1426
   14MOL    C71 4517   7.454   5.321   6.553 -0.2240 -0.7962  0.2894
   14MOL    C72 4518   7.316   5.296   6.568  0.3140 -0.0261  0.6762
   14MOL    C73 4519   7.224   5.374   6.486  0.4861  0.1964 -0.0405
   14MOL    C74 4520   7.276   5.474   6.401  0.9244 -0.1382  0.6040
   14MOL    O75 4521   7.191   5.552   6.333  0.1185 -0.1490  0.0158
   14MOL    C76 4522   7.408   5.497   6.394 -0.2356 -1.0270 -0.5954
   14MOL    C77 4523   7.504   5.426   6.471  0.0504 -0.8461 -0.0371
   14MOL    C78 4524   7.547   5.096   6.628  0.6947 -0.0570  0.1163
   14MOL    H79 4525   7.655   5.289   6.616  0.7519  0.2006 -1.8068
   14MOL    H80 4526   7.272   5.219   6.630  0.7331 -0.8012  0.0172
   14MOL    H81 4527   7.119   5.365   6.507  0.8703  1.3808  2.5711
   14MOL    H82 4528   7.236   5.623   6.289 -2.4141  1.4979 -0.0218
   14MOL    H83 4529   7.448   5.578   6.334 -0.6426  1.4573  2.3520
   14MOL    H84 4530   7.606   5.462   6.470 -0.2522 -0.0061 -1.1764
   14MOL    H85 4531   7.515   5.074   6.526  1.0128  1.8959 -0.4395
   14MOL    H86 4532   7.456   5.067   6.680  1.8628 -2.3408  0.9286
   14MOL    C87 4533   7.671   5.017   6.665  0.1293  0.7183 -0.3877
   14MOL    C88 4534   7.784   5.055   6.574 -1.1407  0.6131 -0.2671
   14MOL    C89 4535   7.895   5.132   6.619 -0.4411  0.4627  0.5198
   14MOL    C90 4536   8.012   5.152   6.536  0.4264  0.0756  0.1242
   14MOL    C91 4537   8.010   5.098   6.404 -0.6324  0.2505  0.0928
   14MOL    O92 4538   0.076   5.114   6.312 -0.0381 -0.2088 -0.0998
   14MOL    C93 4539   7.896   5.029   6.359  0.7508  0.1707 -0.1155
   14MOL    C94 4540   7.794   4.996   6.446  0.3289 -0.0835 -0.1314
   14MOL    C95 4541   7.638   4.871   6.673 -1.1444  0.2699  0.3716
   14MOL    H96 4542   7.699   5.054   6.764  1.1080  0.0043 -0.3845
   14MOL    H97 4543   7.903   5.178   6.716  0.9970  0.4638  0.4133
   14MOL    H98 4544   0.057   5.214   6.569 -0.8800  1.4010  0.9490
   14MOL    H99 4545   0.038   5.105   6.226  0.5579 -0.2010 -0.3663
   14MOL   H100 4546   7.904   5.000   6.255 -0.5475  2.0045 -0.7536
   14MOL   H101 4547   7.701   4.947   6.421 -0.1712  0.0598  1.3842
   14MOL   H102 4548   7.538   4.855   6.713 -1.1419 -0.7387 -0.0092
   14MOL   H103 4549   7.627   4.826   6.574 -0.6179 -1.4162  1.0618
   14MOL   C104 4550   7.732   4.782   6.755 -0.3141 -0.6972 -0.2003
   14MOL   C105 4551   7.856   4.750   6.681 -0.0021 -0.1371  0.0817
   14MOL   C106 4552   7.858   4.655   6.580 -0.0037  0.4239  0.2662
   14MOL   C107 4553   7.980   4.627   6.513  0.4619  0.2899 -0.5127
   14MOL   C108 4554   0.058   4.698   6.542 -0.1583 -0.3958  0.8043
   14MOL   O109 4555   0.159   4.695   6.452  0.1579 -0.1768 -0.2672
   14MOL   C110 4556   0.056   4.794   6.646  0.3298  0.0719  0.2596
   14MOL   C111 4557   7.975   4.819   6.714  0.3605 -0.2695 -0.1355
   14MOL   C112 4558   7.674   4.651   6.805  0.6812 -0.7087 -0.4884
   14MOL   H113 4559   7.770   4.842   6.838  0.1330  0.0198 -0.9067
   14MOL   H114 4560   7.761   4.617   6.554  0.7878 -2.7550  1.7841
   14MOL   H115 4561   7.986   4.559   6.429 -1.2746  0.1774 -0.5615
   14MOL   H116 4562   0.228   4.756   6.473 -1.3239  0.9547  1.6207
   14MOL   H117 4563   0.138   4.862   6.664 -1.0294  1.6810  0.5745
   14MOL   H118 4564   7.974   4.888   6.797  1.5932  1.3718 -1.4459
   14MOL   H119 4565   7.744   4.567   6.813  1.0759 -0.4175 -0.8683
   14MOL   H120 4566   7.600   4.618   6.733  0.1181  0.3892 -0.4231
   14MOL   C121 4567   7.602   4.669   6.943  0.3572 -0.5302 -0.0183
   14MOL   C122 4568   7.492   4.565   6.966 -0.2738  0.5260  0.4273
   14MOL   C123 4569   7.392   4.606   7.056  0.1367 -0.4733 -0.1443
   14MOL   C124 4570   7.273   4.530   7.080  0.2585 -0.8252  1.0680
   14MOL   C125 4571   7.260   4.402   7.014  0.1480 -0.7455  0.1775
   14MOL   O126 4572   7.150   4.335   7.027  0.4292 -0.0636 -0.1236
   14MOL   C127 4573   7.360   4.361   6.925 -0.8146 -0.0746  0.8459
   14MOL   C128 4574   7.477   4.441   6.893  0.2875 -0.2245  0.6857
   14MOL   C129 4575   7.688   4.685   7.071  0.8258 -0.1276  0.5619
   14MOL   H130 4576   7.563   4.770   6.933  0.3991 -0.6794 -1.8870
   14MOL   H131 4577   7.398   4.702   7.104  0.6908 -1.0259  0.9043
   14MOL   H132 4578   7.197   4.570   7.145 -0.5941 -1.2177  0.3262
   14MOL   H133 4579   7.172   4.252   6.986 -0.4178 -0.1104 -0.4879
   14MOL   H134 4580   7.365   4.261   6.883 -0.5771  1.2613 -2.4848
   14MOL   H135 4581   7.545   4.400   6.820 -1.0029 -0.8572 -0.1705
   14MOL   H136 4582   7.623   4.738   7.140  0.2002  0.5113 -0.5037
   14MOL   H137 4583   7.774   4.749   7.052  0.0555  0.0195 -2.6526
   14MOL   C138 4584   7.756   4.558   7.129 -0.6387  0.1179 -0.2565
   14MOL   C139 4585   7.663   4.468   7.212  0.8510 -0.2359  0.2264
   14MOL   C140 4586   7.601   4.514   7.331 -0.4519 -0.6412 -0.2064
   14MOL   C141 4587   7.502   4.438   7.395 -0.0225  0.0606 -0.0808
   14MOL   C142 4588   7.452   4.323   7.333  0.0167  0.1233 -0.1626
   14MOL   O143 4589   7.351   4.246   7.379 -0.3039  0.0799  0.3757
   14MOL   C144 4590   7.511   4.276   7.219  0.2321 -0.9068 -0.1651
   14MOL   C145 4591   7.623   4.343   7.163 -0.8279  0.5959 -0.4532
   14MOL   C146 4592   7.877   4.603   7.212  0.2405 -0.3202 -0.2638
   14MOL   H147 4593   7.797   4.492   7.052 -1.8418  1.1454 -1.7881
   14MOL   H148 4594   7.627   4.606   7.382  0.2534 -1.0665  0.2040
   14MOL   H149 4595   7.457   4.474   7.487  4.3363  2.4841  1.2633
   14MOL   H150 4596   7.322   4.184   7.314 -0.3560  0.6368 -0.1358
   14MOL   H151 4597   7.500   4.178   7.175  0.1691  0.2989 -2.9203
   14MOL   H152 4598   7.681   4.295   7.085  1.0626  1.2133  0.5398
   14MOL   H153 4599   7.908   4.534   7.290  1.1589  1.7039  1.1923
   14MOL   H154 4600   7.865   4.702   7.256  1.8210  0.1169 -0.7656
   14MOL   C155 4601   8.013   4.620   7.135  0.4145  0.3715  0.3411
   14MOL   C156 4602   0.010   4.493   7.049 -0.2439  0.1296  0.4510
   14MOL   C157 4603   0.041   4.371   7.115 -0.2965  0.3462  0.6943
   14MOL   C158 4604   0.071   4.264   7.036  0.2667 -0.0147 -0.4848
   14MOL   C159 4605   0.082   4.269   6.899 -0.0028 -0.3953 -0.2678
   14MOL   O160 4606   0.123   4.162   6.826  0.2728  0.5425 -0.5259
   14MOL   C161 4607   0.046   4.389   6.833 -0.2799  0.0211  0.0039
   14MOL   C162 4608   0.018   4.500   6.909  0.3871  0.0367  0.3081
   14MOL   C163 4609   0.083   4.659   7.236  0.4600  0.2521  0.4716
   14MOL   H164 4610   7.999   4.698   7.060 -1.9859 -1.7475 -1.5827
   14MOL   H165 4611   0.038   4.364   7.222  0.2431  1.4175  0.7908
   14MOL   H166 4612   0.102   4.176   7.091  1.4631  0.7057  0.0144
   14MOL   H167 4613   0.093   4.081   6.866  1.0014  1.1211  1.2612
   14MOL   H168 4614   0.050   4.403   6.726 -0.1001 -0.3913 -0.0466
   14MOL   H169 4615   0.005   4.592   6.856  2.1995  0.6136  0.8315
   14MOL   H170 4616   0.181   4.641   7.192  0.6307 -0.8205  1.2661
   14MOL   H171 4617   0.088   4.585   7.315  1.0976 -0.5698 -0.3182
   14MOL   C172 4618   0.085   4.799   7.296 -0.3543  0.2244  0.4310
   14MOL   C173 4619   0.092   4.896   7.176  0.3317  0.4241 -0.0227
   14MOL   C174 4620   8.012   4.970   7.149 -0.0177 -0.1439  0.4980
   14MOL   C175 4621   8.008   5.070   7.049 -0.5540  0.3464 -0.5154
   14MOL   C176 4622   0.087   5.085   6.971  0.8564  0.7345  0.1784
   14MOL   O177 4623   0.076   5.182   6.879  0.5063  0.4806  0.1853
   14MOL   C178 4624   0.202   5.011   6.996 -0.6958  0.0132  0.7188
   14MOL   C179 4625   0.205   4.916   7.103 -0.1701 -0.4477 -0.1267
   14MOL   C180 4626   0.202   4.819   7.397 -0.7023 -0.4630  0.3575
   14MOL   H181 4627   8.032   4.805   7.356 -0.3282 -3.5107  0.9666
   14MOL   H182 4628   7.926   4.958   7.213 -0.4726  3.2982  0.6290
   14MOL   H183 4629   7.930   5.141   7.028 -1.7237 -1.1943 -1.4992
   14MOL   H184 4630   8.030   5.224   6.885  0.4199  0.2662  0.4985
   14MOL   H185 4631   0.286   5.025   6.930 -1.3563 -2.3198 -0.6832
   14MOL   H186 4632   0.298   4.864   7.121  1.0300  0.5485 -3.1619
   14MOL   H187 4633   0.296   4.809   7.343 -0.8943  1.9549 -0.4707
   14MOL   H188 4634   0.201   4.727   7.455  2.2938 -1.1600 -0.5813
   14MOL   C189 4635   0.221   4.934   7.496  0.2080 -0.5025  0.1288
   14MOL   C190 4636   0.263   5.058   7.422  0.7459  0.4726 -0.4825
   14MOL   C191 4637   0.397   5.087   7.417  0.6936  0.2701 -0.2359
   14MOL   C192 4638   0.450   5.189   7.336 -0.4475 -0.5016 -0.3651
   14MOL   C193 4639   0.365   5.272   7.268  0.7205 -0.6951  0.2557
   14MOL   O194 4640   0.421   5.369   7.196 -0.3552 -0.1472 -0.0792
   14MOL   C195 4641   0.224   5.252   7.282  0.1196 -0.6135  0.4492
   14MOL   C196 4642   0.177   5.137   7.352 -0.6283 -0.1152 -0.5128
   14MOL   C197 4643   0.099   4.962   7.584  0.1481  0.4805 -0.2000
   14MOL   H198 4644   0.305   4.913   7.562 -0.0574  0.2739  0.7175
   14MOL   H199 4645   0.469   5.032   7.476  1.6509  1.9085  0.1633
   14MOL   H200 4646   0.557   5.204   7.338 -0.5222 -0.1209  0.8673
   14MOL   H201 4647   0.372   5.397   7.120 -0.2793 -0.7877 -0.3664
   14MOL   H202 4648   0.160   5.322   7.231 -1.2814 -0.4427  2.4006
   14MOL   H203 4649   0.071   5.118   7.347 -0.7787  0.9716 -1.8037
   14MOL   H204 4650   0.008   4.972   7.525 -0.8869 -1.1723  1.0778
   14MOL   H205 4651   0.118   5.057   7.634 -0.7794  1.3750 -1.5132
   14MOL   C206 4652   0.075   4.869   7.713 -0.2526  0.2284 -0.3956
   14MOL   C207 4653   0.047   4.728   7.673  0.0118  0.9639  0.2940
   14MOL   C208 4654   0.142   4.624   7.699 -0.1060  0.3163  0.0977
   14MOL   C209 4655   0.109   4.482   7.677 -0.2215  0.7041 -0.1602
   14MOL   C210 4656   8.019   4.459   7.628 -0.1371  0.2007 -0.2842
   14MOL   O211 4657   7.979   4.337   7.602 -0.3533  0.5685  0.4826
   14MOL   C212 4658   7.928   4.563   7.596 -0.1669 -0.4073 -0.2108
   14MOL   C213 4659   7.959   4.693   7.624  0.4394 -0.5297  0.1749
   14MOL   C214 4660   7.995   4.933   7.797  0.2788  0.1604 -0.3837
   14MOL   H215 4661   0.171   4.880   7.765 -0.6398 -0.6391  0.5008
   14MOL   H216 4662   0.239   4.653   7.735 -0.7777  0.3753  1.9073
   14MOL   H217 4663   0.164   4.392   7.700 -0.8184  0.6668  1.1195
   14MOL   H218 4664   7.886   4.336   7.585 -0.5805 -1.4893  1.6206
   14MOL   H219 4665   7.828   4.549   7.557 -0.5596  1.5838  0.0200
   14MOL   H220 4666   7.887   4.771   7.605  2.5346  1.3875 -0.1635
   14MOL   H221 4667   7.904   4.937   7.737 -0.2223 -0.7570  0.3076
   14MOL   H222 4668   8.020   5.038   7.813  2.4152 -0.2143 -1.0453
   14MOL   C223 4669   7.968   4.855   7.921 -0.5368 -0.0359  0.6505
   14MOL   C224 4670   7.831   4.887   7.975 -0.2432 -0.1751  0.3489
   14MOL   C225 4671   7.744   4.781   8.009 -0.0746 -0.5568  0.7537
   14MOL   C226 4672   7.605   4.801   8.023 -0.2406  0.7165 -0.2721
   14MOL   C227 4673   7.557   4.940   8.024  0.6276 -0.9042  0.9165
   14MOL   O228 4674   7.429   4.969   0.003  0.5878  0.1526 -0.0129
   14MOL   C229 4675   7.644   5.044   8.003  0.5999  0.0734 -0.0262
   14MOL   C230 4676   7.780   5.016   7.976 -0.4704  0.1491  0.1078
   14MOL   C231 4677   0.047   4.848   8.022 -0.4709  0.7471 -0.2997
   14MOL   H232 4678   7.964   4.753   7.883  0.3775  0.3867 -0.6181
   14MOL   H233 4679   7.787   4.683   8.013  1.2685 -0.0183 -0.2492
   14MOL   H234 4680   7.534   4.723   0.011  1.9683 -0.9113  1.1226
   14MOL   H235 4681   7.358   4.906   0.004  2.0535 -1.5315  0.9603
   14MOL   H236 4682   7.607   5.146   8.000 -1.8596 -0.8239 -2.7789
   14MOL   H237 4683   7.845   5.097   7.944  0.3047  0.4903  2.4704
   14MOL   H238 4684   0.131   4.796   7.975 -0.8346  0.0412 -0.1717
   14MOL   H239 4685   0.084   4.948   0.005  1.4476 -0.1443  0.7533
   14MOL   C240 4686   0.024   4.768   0.118 -0.3410 -0.2298 -0.2665
   14MOL   C241 4687   8.031   4.619   0.104 -0.8829 -0.7133 -0.2630
   14MOL   C242 4688   7.944   4.559   0.191 -0.1411  0.3893  0.0489
   14MOL   C243 4689   7.920   4.420   0.177 -0.0859  0.4634 -0.2641
   14MOL   C244 4690   7.990   4.346   0.080  0.2633  0.2658 -0.7486
   14MOL   O245 4691   7.972   4.212   0.079 -0.1783  0.1643  0.8387
   14MOL   C246 4692   0.046   4.404   8.029 -0.8665  0.2513 -0.5864
   14MOL   C247 4693   0.064   4.542   0.011 -0.4914  0.0562  0.2233
   14MOL   C248 4694   0.151   4.763   0.217  0.0883  0.1351 -0.1529
   14MOL   H249 4695   7.992   4.824   0.180 -0.1527 -1.5103  1.1180
   14MOL   H250 4696   7.892   4.612   0.270 -1.1268 -1.2772  0.5389
   14MOL   H251 4697   7.862   4.375   0.256 -0.1796 -0.1026 -0.6482
   14MOL   H252 4698   8.035   4.169   0.022 -1.0375 -0.2642  0.1878
   14MOL   H253 4699   0.116   4.359   7.959  0.3674  0.8420  0.2667
   14MOL   H254 4700   0.149   4.585   7.998  0.0458  0.6642  1.6090
   14MOL   H255 4701   0.108   4.738   0.314  0.8401 -0.2994  0.0788
   14MOL   H256 4702   0.223   4.685   0.192  2.3604  2.2096 -0.3728
   14MOL   C257 4703   0.242   4.894   0.234  0.6737 -0.3849  0.3806
   14MOL   C258 4704   0.293   4.908   0.378  0.2020 -0.4052  0.4208
   14MOL   C259 4705   0.319   4.796   0.460  0.1141  1.0257 -0.6062
   14MOL   C260 4706   0.354   4.805   0.592  0.2272 -0.3115 -0.3198
   14MOL   C261 4707   0.383   4.931   0.644  0.8145 -0.8280 -0.0292
   14MOL   O262 4708   0.430   4.940   0.773 -0.2841  0.0885 -0.6243
   14MOL   C263 4709   0.362   5.046   0.569  0.2964 -0.1089 -0.4542
   14MOL   C264 4710   0.309   5.037   0.435 -0.2195 -0.1660 -0.9787
   14MOL   C265 4711   0.357   4.909   0.128 -0.1359  0.1739  0.1157
   14MOL   H266 4712   0.174   4.978   0.225 -2.0568 -2.5618  0.0597
   14MOL   H267 4713   0.307   4.693   0.432  2.6142  1.0328 -1.9118
   14MOL   H268 4714   0.362   4.711   0.644  1.6651  0.7644  1.4483
   14MOL   H269 4715   0.440   5.028   0.806 -3.0083  0.1132  0.2709
   14MOL   H270 4716   0.384   5.143   0.613  1.0978 -0.0503 -0.9730
   14MOL   H271 4717   0.287   5.123   0.373  0.3306 -0.1383 -1.1362
   14MOL   H272 4718   0.398   5.008   0.149  0.3962 -0.3348  1.5380
   14MOL   H273 4719   0.310   4.911   0.030  1.1071  0.0795 -0.4948
   14MOL   C274 4720   0.480   4.810   0.127  0.0044 -0.2157  0.0913
   14MOL   C275 4721   0.450   4.673   0.077  0.1906 -0.1298  0.4323
   14MOL   C276 4722   0.426   4.638   7.978 -0.2913 -0.4529  0.4751
   14MOL   C277 4723   0.401   4.508   7.944 -0.4475  0.3008 -0.8003
   14MOL   C278 4724   0.399   4.402   0.002 -0.5609 -0.2189  0.1689
   14MOL   O279 4725   0.377   4.279   7.996  0.7247 -0.4597 -0.4856
   14MOL   C280 4726   0.426   4.432   0.138  0.0031 -0.0610 -0.3739
   14MOL   C281 4727   0.454   4.569   0.172  0.1462  0.5265  0.2976
   14MOL   C282 4728   0.591   4.828   0.237 -0.1830 -0.2539  0.6244
   14MOL   H283 4729   0.527   4.850   0.037  1.7766  0.8548  1.4441
   14MOL   H284 4730   0.426   4.712   7.899 -0.6890  0.0053  0.9016
   14MOL   H285 4731   0.369   4.488   7.843 -1.2857  1.7410 -0.8266
   14MOL   H286 4732   0.344   4.224   0.027 -1.7089  2.1255  0.4849
   14MOL   H287 4733   0.430   4.357   0.216 -1.5601  0.5578  0.3212
   14MOL   H288 4734   0.472   4.588   0.277  1.3493  1.9513 -0.1358
   14MOL   H289 4735   0.627   4.929   0.257 -1.2573  0.5745 -1.3979
   14MOL   H290 4736   0.534   4.797   0.324 -0.1510 -0.8646  0.4266
   14MOL   C291 4737   0.717   4.742   0.223 -0.3147  0.0079 -0.5089
   14MOL   C292 4738   0.742   4.661   0.349 -0.4832  0.0390  0.3779
   14MOL   C293 4739   0.758   4.731   0.474  0.1765  0.3647 -0.3402
   14MOL   C294 4740   0.788   4.651   0.584 -0.0939  0.4116 -0.7100
   14MOL   C295 4741   0.819   4.517   0.579  0.0399  0.7134  0.0809
   14MOL   O296 4742   0.847   4.444   0.694 -0.1381  0.4391  0.1903
   14MOL   C297 4743   0.806   4.454   0.452  0.6407  0.6381 -0.9450
   14MOL   C298 4744   0.767   4.523   0.335 -0.2873 -0.6834  0.0436
   14MOL   C299 4745   0.843   4.820   0.182 -0.6474  1.1398  0.6967
   14MOL   H300 4746   0.708   4.675   0.137 -1.4753  1.9305 -1.9190
   14MOL   H301 4747   0.732   4.835   0.480  1.4299  0.8057 -2.2600
   14MOL   H302 4748   0.792   4.702   0.679 -0.2255  1.0660 -1.0509
   14MOL   H303 4749   0.885   4.363   0.665 -0.7084  0.2484 -0.0167
   14MOL   H304 4750   0.824   4.348   0.444  1.3189  0.8365 -2.0258
   14MOL   H305 4751   0.756   4.469   0.243  0.9246  0.0131 -0.5190
   14MOL   H306 4752   0.935   4.772   0.214  0.0852  0.9165 -1.6347
   14MOL   H307 4753   0.851   4.910   0.243  0.3031  1.0617  0.6988
   14MOL   C308 4754   0.845   4.851   0.031  0.2760  0.4267  0.4733
   14MOL   C309 4755   0.879   4.715   7.993 -0.6558 -0.1415 -0.5386
   14MOL   C310 4756   1.009   4.664   7.998  0.3259  0.5202  0.2272
   14MOL   C311 4757   1.049   4.550   7.929 -0.0502  0.1805  0.3821
   14MOL   C312 4758   0.947   4.481   7.858  0.2961  0.6004  0.1742
   14MOL   O313 4759   0.976   4.365   7.779 -0.5883 -0.1564 -0.4292
   14MOL   C314 4760   0.810   4.524   7.853 -0.2297 -1.3046  0.4016
   14MOL   C315 4761   0.779   4.652   7.916 -0.1123  0.3272  0.1599
   14MOL   C316 4762   0.941   4.964   8.029 -1.1539 -0.7120 -0.9387
   14MOL   H317 4763   0.747   4.881   8.030 -0.2748 -2.9447 -0.9499
   14MOL   H318 4764   1.078   4.713   0.027 -1.8616  0.3587  2.6876
   14MOL   H319 4765   1.149   4.511   7.943 -0.7010 -0.9804  2.1180
   14MOL   H320 4766   0.889   4.332   7.759 -0.7189 -1.0857  1.5430
   14MOL   H321 4767   0.737   4.455   7.812 -1.4204 -1.2441  2.3489
   14MOL   H322 4768   0.678   4.689   7.923 -0.0293  0.8802 -1.4905
   14MOL   H323 4769   0.915   4.993   7.927  0.4774 -0.4101 -1.2812
   14MOL   H324 4770   1.042   4.922   8.027 -1.4058 -1.3234 -0.7365
   14MOL   C325 4771   0.945   5.100   0.074 -1.0023 -0.1777  0.0667
   14MOL   C326 4772   0.805   5.154   0.109  0.1603 -0.1900 -0.6258
   14MOL   C327 4773   0.771   5.183   0.241 -0.5112 -0.3650 -0.1307
   14MOL   C328 4774   0.646   5.230   0.271 -0.1815 -0.0405  0.2875
   14MOL   C329 4775   0.542   5.236   0.172  0.4017  0.4208  0.4218
   14MOL   O330 4776   0.419   5.266   0.215 -0.1012  0.2548  0.0513
   14MOL   C331 4777   0.579   5.209   0.040  0.8367 -0.2383 -0.0354
   14MOL   C332 4778   0.715   5.178   0.007  0.5324 -0.3818 -0.8292
   14MOL   C333 4779   1.017   5.210   0.011 -0.3967  0.3852  0.0336
   14MOL   H334 4780   0.997   5.077   0.167  0.5890  2.0442 -0.2407
   14MOL   H335 4781   0.845   5.175   0.320 -1.2289  1.3573  0.7437
   14MOL   H336 4782   0.631   5.257   0.374  0.0102  2.2083 -0.2433
   14MOL   H337 4783   0.362   5.278   0.141  1.2593 -1.9687 -1.3990
   14MOL   H338 4784   0.517   5.219   7.990 -1.0866 -1.7347  1.1108
   14MOL   H339 4785   0.744   5.154   7.944  1.7203  0.7990 -0.7849
   14MOL   H340 4786   1.017   5.288   0.088 -1.5553  0.8995 -0.4700
   14MOL   H341 4787   0.968   5.250   7.960 -2.1829 -0.4660  0.6122
   14MOL   H342 4788   1.122   5.184   0.001  0.1068  2.2381  0.1805
   15MOL     C1 4789   3.907   4.996   5.762  0.5239 -0.2825 -0.1440
   15MOL     C2 4790   3.925   4.857   5.698 -0.3063  0.1622 -0.7604
   15MOL     C3 4791   3.918   4.741   5.784  1.1260 -0.5583 -0.7937
   15MOL     C4 4792   3.949   4.607   5.743  1.3890 -0.8885 -0.6489
   15MOL     C5 4793   3.967   4.585   5.606 -0.3327 -0.5132 -0.6639
   15MOL     O6 4794   3.974   4.453   5.566 -0.6523 -0.4246  0.2703
   15MOL     C7 4795   3.965   4.691   5.517 -0.0053 -0.3385  0.3427
   15MOL     C8 4796   3.954   4.830   5.564  0.0855 -0.1846  0.4085
   15MOL     C9 4797   3.761   5.041   5.786  0.3814 -0.3377 -0.4072
   15MOL    H10 4798   3.963   5.014   5.854  1.9033  1.7616 -1.3417
   15MOL    H11 4799   3.915   4.758   5.891  0.5320 -0.5996 -0.8044
   15MOL    H12 4800   3.941   4.539   5.825 -0.6836 -0.0715 -0.1470
   15MOL    H13 4801   3.963   4.384   5.629 -2.9072  1.4589  2.0354
   15MOL    H14 4802   3.992   4.665   5.416  1.3688 -0.7133  0.7895
   15MOL    H15 4803   3.957   4.913   5.496 -1.1892 -0.4486  0.0268
   15MOL    H16 4804   3.715   4.994   5.873  2.9470 -0.3806  0.9758
   15MOL    H17 4805   3.703   5.014   5.698 -0.7543  0.0968  0.2018
   15MOL    H18 4806   3.954   5.064   5.690 -0.8627  0.5797 -0.2520
   15MOL    C19 4807   3.733   5.193   5.820 -0.3969  0.2311 -0.2262
   15MOL    C20 4808   3.608   5.218   5.901  0.5583 -0.4740 -0.3141
   15MOL    C21 4809   3.481   5.179   5.865 -0.0142 -0.2791 -0.4991
   15MOL    C22 4810   3.366   5.218   5.946 -0.2651 -0.5402  0.4508
   15MOL    C23 4811   3.383   5.289   6.065 -0.3472  0.1629  0.0030
   15MOL    O24 4812   3.282   5.319   6.148  0.5706 -0.7203 -0.1041
   15MOL    C25 4813   3.506   5.325   6.108 -0.8546 -0.2428  0.0936
   15MOL    C26 4814   3.615   5.299   6.016 -0.0459  0.0090 -0.9137
   15MOL    C27 4815   3.742   5.285   5.695  0.0790  0.1109 -0.7212
   15MOL    H28 4816   3.816   5.221   5.885 -0.9692  0.5238  0.3794
   15MOL    H29 4817   3.450   5.119   5.781 -1.3088 -2.4321  1.4773
   15MOL    H30 4818   3.268   5.194   5.907 -1.2518  3.7052  0.0886
   15MOL    H31 4819   3.300   5.409   6.170  0.6627 -1.0742  1.3457
   15MOL    H32 4820   3.528   5.377   6.201  0.3562  1.4585 -1.1140
   15MOL    H33 4821   3.710   5.338   6.048 -1.1700  2.0955 -0.0326
   15MOL    H34 4822   3.684   5.230   5.622 -0.5042 -0.2621  0.0180
   15MOL    H35 4823   3.848   5.293   5.670  0.1300 -0.2344 -0.6066
   15MOL    C36 4824   3.703   5.439   5.711 -0.4042 -0.5105  0.7026
   15MOL    C37 4825   3.706   5.518   5.580  0.3942  0.0288  0.1577
   15MOL    C38 4826   3.596   5.597   5.547 -0.7233  0.7602  0.2525
   15MOL    C39 4827   3.601   5.689   5.444  0.1870 -0.2545 -0.3864
   15MOL    C40 4828   3.715   5.680   5.352  0.4591  0.5131  0.3294
   15MOL    O41 4829   3.716   5.759   5.243  0.0311 -0.6176  0.0512
   15MOL    C42 4830   3.817   5.587   5.374 -0.7439  0.1589  0.2522
   15MOL    C43 4831   3.813   5.506   5.491  0.5133 -0.5534  0.0124
   15MOL    C44 4832   3.798   5.517   5.809 -0.0422  0.7376 -0.5974
   15MOL    H45 4833   3.605   5.447   5.758 -0.8130 -2.0402  0.1619
   15MOL    H46 4834   3.510   5.594   5.613  0.5144  1.4159  1.9296
   15MOL    H47 4835   3.518   5.755   5.427 -0.0996 -0.5078  0.0327
   15MOL    H48 4836   3.797   5.736   5.201  0.3907  1.8515 -0.7126
   15MOL    H49 4837   3.896   5.583   5.300 -1.0718  2.4939 -0.2548
   15MOL    H50 4838   3.900   5.444   5.505  0.6946 -0.7536 -1.7996
   15MOL    H51 4839   3.834   5.454   5.890 -0.0238  1.7901  0.2088
   15MOL    H52 4840   3.893   5.534   5.759  0.5610 -2.4560 -0.6695
   15MOL    C53 4841   3.732   5.642   5.875  0.0039  0.4136 -0.4335
   15MOL    C54 4842   3.796   5.671   6.009 -0.2187  0.1156 -0.2864
   15MOL    C55 4843   3.937   5.691   6.023  0.5769 -0.0377 -0.1123
   15MOL    C56 4844   3.993   5.709   6.152 -0.1757  0.2783  0.0882
   15MOL    C57 4845   3.913   5.698   6.263  0.7041  1.2716  0.3449
   15MOL    O58 4846   3.962   5.677   6.390  0.3367  0.0945  0.0584
   15MOL    C59 4847   3.773   5.678   6.249  0.0294 -0.6092  0.2799
   15MOL    C60 4848   3.715   5.679   6.121 -1.2538 -0.5607 -0.3658
   15MOL    C61 4849   3.749   5.773   5.790 -0.2097  0.0494  0.0297
   15MOL    H62 4850   3.626   5.630   5.896  0.4712 -1.1022  1.1010
   15MOL    H63 4851   4.001   5.694   5.935 -0.1032 -0.3116 -0.6198
   15MOL    H64 4852   4.100   5.722   6.162  0.2801 -2.3036 -1.0840
   15MOL    H65 4853   3.997   5.760   6.420  0.1488  0.7352 -1.4437
   15MOL    H66 4854   3.704   5.670   6.331  3.1877 -0.8217  3.0615
   15MOL    H67 4855   3.610   5.666   6.104 -1.7266  0.1943  1.7801
   15MOL    H68 4856   3.668   5.787   5.719 -0.4154  2.5951  0.7242
   15MOL    H69 4857   3.834   5.739   5.731 -0.4612  1.8360 -1.4011
   15MOL    C70 4858   3.780   5.915   5.854 -0.6963 -0.0565 -0.3428
   15MOL    C71 4859   3.674   5.951   5.961 -0.5736 -0.0573  0.3531
   15MOL    C72 4860   3.714   6.017   6.079  0.9330 -0.4932 -1.1772
   15MOL    C73 4861   3.612   6.071   6.167  0.1151  0.1753  0.1090
   15MOL    C74 4862   3.477   6.049   6.139 -0.1709  0.7050 -0.9171
   15MOL    O75 4863   3.380   6.088   6.229 -0.0915  0.1400  0.3007
   15MOL    C76 4864   3.441   5.978   6.027 -0.6347  0.3976  0.3808
   15MOL    C77 4865   3.535   5.932   5.934  0.4204  0.5360  0.2617
   15MOL    C78 4866   3.798   6.033   5.745  0.3469  0.1718 -0.6367
   15MOL    H79 4867   3.877   5.894   5.900  0.2734 -1.2303 -2.8610
   15MOL    H80 4868   3.821   6.024   6.096  0.8549 -0.3969 -0.7278
   15MOL    H81 4869   3.654   6.118   6.255 -0.4447  0.4689  0.2214
   15MOL    H82 4870   3.416   6.120   6.310  1.4312 -0.4353 -0.1310
   15MOL    H83 4871   3.342   5.941   6.005  0.0761 -1.7402  0.7135
   15MOL    H84 4872   3.481   5.891   5.851 -2.1678  0.2182  2.0616
   15MOL    H85 4873   3.843   6.113   5.805 -1.1981 -0.9430  2.0918
   15MOL    H86 4874   3.701   6.064   5.708 -0.5599 -0.3584  1.2169
   15MOL    C87 4875   3.890   5.999   5.621 -0.2090  0.3179 -0.3133
   15MOL    C88 4876   4.027   5.953   5.672  0.3712 -0.1784  0.1098
   15MOL    C89 4877   4.077   5.822   5.641 -0.1013 -0.5232 -0.6490
   15MOL    C90 4878   4.189   5.782   5.706  0.0033  0.2217  0.1938
   15MOL    C91 4879   4.261   5.862   5.800 -0.2658  0.1555 -0.1610
   15MOL    O92 4880   4.392   5.830   5.842 -0.3967  0.5747 -0.3753
   15MOL    C93 4881   4.224   5.992   5.823  0.1905 -0.5356  0.8521
   15MOL    C94 4882   4.105   6.038   5.763 -0.1902  0.0913 -0.1315
   15MOL    C95 4883   3.904   6.122   5.530  0.3137  1.0202 -0.6863
   15MOL    H96 4884   3.834   5.918   5.576  0.2823 -0.5900  0.6918
   15MOL    H97 4885   4.021   5.749   5.583  1.2270 -1.6817 -0.4903
   15MOL    H98 4886   4.227   5.681   5.694 -2.3972 -0.7507  0.4440
   15MOL    H99 4887   4.460   5.831   5.776  0.7914  0.9981  0.8440
   15MOL   H100 4888   4.281   6.056   5.889  2.1480 -1.4533  0.0996
   15MOL   H101 4889   4.060   6.128   5.802 -0.7849 -0.4411  0.4234
   15MOL   H102 4890   3.804   6.142   5.491 -0.2670  1.1463  0.8461
   15MOL   H103 4891   3.933   6.206   5.594 -1.5389  0.9609  0.2782
   15MOL   C104 4892   4.016   6.115   5.415 -0.5337  0.1969 -0.5162
   15MOL   C105 4893   4.058   6.249   5.379  0.4995  0.6385 -0.2477
   15MOL   C106 4894   3.965   6.341   5.315 -0.6814 -0.3512  0.0542
   15MOL   C107 4895   4.013   6.460   5.263 -0.4320 -0.1774 -0.1969
   15MOL   C108 4896   4.151   6.490   5.268 -0.2093 -0.2738 -0.2724
   15MOL   O109 4897   4.197   6.610   5.225 -0.1932  0.0873 -0.1520
   15MOL   C110 4898   4.239   6.404   5.331 -0.0210 -0.1522 -0.2920
   15MOL   C111 4899   4.194   6.283   5.384 -0.0517  0.1861 -0.8929
   15MOL   C112 4900   3.957   6.020   5.307  0.6343 -0.3659 -0.4132
   15MOL   H113 4901   4.102   6.071   5.464  0.7272  0.9793 -1.9696
   15MOL   H114 4902   3.860   6.319   5.303 -1.2792  0.9938  2.3659
   15MOL   H115 4903   3.937   6.527   5.227  1.5106  2.8392  1.0732
   15MOL   H116 4904   4.130   6.646   5.168  0.4681 -1.6122 -2.0530
   15MOL   H117 4905   4.343   6.430   5.340 -0.7405  2.8635 -0.3518
   15MOL   H118 4906   4.261   6.209   5.426  0.4649  0.0341 -1.9427
   15MOL   H119 4907   3.857   6.048   5.273  1.1611  0.1138 -1.5948
   15MOL   H120 4908   3.943   5.924   5.357 -0.2949 -0.9717 -1.8160
   15MOL   C121 4909   4.045   5.987   5.188  0.0559 -0.5060  0.0424
   15MOL   C122 4910   4.177   5.935   5.239 -1.3130  0.6054  0.6833
   15MOL   C123 4911   4.292   6.012   5.234 -0.3162  0.2906  0.2835
   15MOL   C124 4912   4.418   5.972   5.288 -0.9701 -0.4271  0.6375
   15MOL   C125 4913   4.424   5.844   5.352 -0.3941 -0.4424 -0.0524
   15MOL   O126 4914   4.541   5.795   5.397  0.2178 -0.5094 -0.1082
   15MOL   C127 4915   4.305   5.762   5.356 -0.1957 -0.2973 -0.0477
   15MOL   C128 4916   4.184   5.812   5.303  0.0403  0.1438 -0.3761
   15MOL   C129 4917   3.964   5.896   5.094  0.2269  0.7911  0.4087
   15MOL   H130 4918   4.048   6.080   5.132 -1.3195 -0.4822  0.0050
   15MOL   H131 4919   4.276   6.103   5.179  1.7095  2.4057  3.0113
   15MOL   H132 4920   4.500   6.041   5.272 -1.2000 -0.1568  0.6229
   15MOL   H133 4921   4.617   5.810   5.342  0.2184  1.5329  0.4196
   15MOL   H134 4922   4.307   5.667   5.408  0.4780  0.8787  2.1534
   15MOL   H135 4923   4.086   5.768   5.312 -0.1251  0.6241  0.2077
   15MOL   H136 4924   3.866   5.937   5.068 -1.1629 -0.7623  3.0079
   15MOL   H137 4925   3.949   5.802   5.147  3.1204  0.6648  1.0783
   15MOL   C138 4926   4.034   5.868   4.958 -0.0419 -0.2489  0.0656
   15MOL   C139 4927   4.051   6.002   4.879  0.3263 -0.7389 -0.1133
   15MOL   C140 4928   3.943   6.077   4.832  0.2828 -0.3501 -0.3830
   15MOL   C141 4929   3.964   6.193   4.760  0.0363 -0.1250 -0.4754
   15MOL   C142 4930   4.093   6.250   4.754  0.4634  0.5466 -0.4503
   15MOL   O143 4931   4.105   6.372   4.694 -0.2096  0.1550  0.2589
   15MOL   C144 4932   4.199   6.186   4.812  0.0596 -0.1545 -0.4729
   15MOL   C145 4933   4.179   6.056   4.864 -0.9981  0.1679 -1.1802
   15MOL   C146 4934   3.956   5.764   4.884  0.4866 -0.3724  0.9383
   15MOL   H147 4935   4.132   5.826   4.981  0.7989 -0.0773 -2.9949
   15MOL   H148 4936   3.840   6.050   4.846 -0.5242  3.2488  1.1817
   15MOL   H149 4937   3.880   6.246   4.719  0.6927  0.4960 -1.0422
   15MOL   H150 4938   4.157   6.432   4.746 -0.0626 -0.6392  1.0553
   15MOL   H151 4939   4.299   6.225   4.804  0.2801 -0.1545  1.9058
   15MOL   H152 4940   4.271   6.012   4.899 -1.6904  0.2409  0.7510
   15MOL   H153 4941   3.896   5.818   4.811 -0.7164 -0.7968  1.5953
   15MOL   H154 4942   3.879   5.709   4.939  0.1643 -0.6731  0.2095
   15MOL   C155 4943   4.044   5.659   4.805 -0.6325  0.4991  0.7568
   15MOL   C156 4944   4.095   5.550   4.901 -0.0107  0.1887 -0.3937
   15MOL   C157 4945   4.012   5.439   4.912  0.3639  0.3274 -0.5895
   15MOL   C158 4946   4.050   5.338   5.008 -0.1874  0.7771  0.1823
   15MOL   C159 4947   4.161   5.359   5.095 -0.2343  0.1182  0.3783
   15MOL   O160 4948   4.204   5.269   5.184  0.3423  0.6230 -0.9808
   15MOL   C161 4949   4.243   5.472   5.079 -0.7831 -0.9706  0.1915
   15MOL   C162 4950   4.212   5.562   4.976 -0.3032  0.5726 -0.6361
   15MOL   C163 4951   4.158   5.731   4.725  0.5393  0.0871  0.1207
   15MOL   H164 4952   3.979   5.621   4.726 -1.7622 -0.4308  2.1309
   15MOL   H165 4953   3.929   5.413   4.848 -0.7034  0.0726  0.8621
   15MOL   H166 4954   3.990   5.248   5.010  0.9777  0.0113  0.8373
   15MOL   H167 4955   4.282   5.294   5.231  0.8703  0.2002 -1.6230
   15MOL   H168 4956   4.331   5.493   5.138 -0.6941 -2.3966  0.6052
   15MOL   H169 4957   4.283   5.640   4.956  1.9744 -1.2942 -0.1399
   15MOL   H170 4958   4.226   5.776   4.797  2.4819 -0.8693 -1.0702
   15MOL   H171 4959   4.118   5.809   4.659  0.3790  0.2013  0.3541
   15MOL   C172 4960   4.255   5.635   4.644 -0.4194 -1.0532 -0.8094
   15MOL   C173 4961   4.396   5.641   4.700  0.6446 -0.1232 -0.7343
   15MOL   C174 4962   4.473   5.756   4.705 -0.0974  0.2669 -0.1591
   15MOL   C175 4963   4.605   5.749   4.753  0.4411  1.2419  0.1618
   15MOL   C176 4964   4.663   5.626   4.790  0.3089  0.0248  0.4443
   15MOL   O177 4965   4.798   5.619   4.823 -0.2264  0.1811 -0.4243
   15MOL   C178 4966   4.588   5.512   4.792  0.0560 -0.3682  0.2455
   15MOL   C179 4967   4.452   5.520   4.758 -0.0016  0.0483 -0.7668
   15MOL   C180 4968   4.258   5.683   4.493  0.3169 -0.4119  0.5290
   15MOL   H181 4969   4.216   5.533   4.644 -0.2789 -1.1102 -1.3394
   15MOL   H182 4970   4.441   5.854   4.673  0.3194  0.9836  1.5273
   15MOL   H183 4971   4.663   5.839   4.765  1.3320  0.4340  2.1630
   15MOL   H184 4972   4.849   5.554   4.776 -0.4581  0.0264 -0.4579
   15MOL   H185 4973   4.616   5.412   4.819  0.1794 -0.8528 -1.6656
   15MOL   H186 4974   4.396   5.429   4.746 -1.2569  0.8944 -1.4567
   15MOL   H187 4975   4.264   5.792   4.494 -0.7308 -0.3410 -0.3127
   15MOL   H188 4976   4.162   5.665   4.446  1.0553 -2.1139 -0.3940
   15MOL   C189 4977   4.367   5.623   4.413  0.4317 -0.2357 -0.4343
   15MOL   C190 4978   4.339   5.473   4.375 -0.2683 -0.1462  0.7597
   15MOL   C191 4979   4.255   5.451   4.262 -0.1688 -0.4357  0.0926
   15MOL   C192 4980   4.235   5.324   4.215  0.9395  0.5047  0.8998
   15MOL   C193 4981   4.293   5.212   4.275  0.1857 -0.7622 -0.2585
   15MOL   O194 4982   4.277   5.089   4.221 -0.3276  0.8026  0.0561
   15MOL   C195 4983   4.374   5.236   4.381  0.0345  1.1057  0.1695
   15MOL   C196 4984   4.410   5.363   4.425  0.6753 -0.3275  0.2181
   15MOL   C197 4985   4.409   5.704   4.291 -0.5844 -0.2009 -0.1171
   15MOL   H198 4986   4.455   5.619   4.478  1.4626 -0.1696 -1.8142
   15MOL   H199 4987   4.208   5.530   4.205  0.3993 -0.9478 -1.1156
   15MOL   H200 4988   4.168   5.306   4.133  0.6281  0.3212  1.1973
   15MOL   H201 4989   4.298   5.023   4.286  0.4319  0.5541 -0.4425
   15MOL   H202 4990   4.424   5.149   4.421 -0.8254 -1.1295 -3.3844
   15MOL   H203 4991   4.488   5.367   4.500 -0.4664 -1.3174  1.4785
   15MOL   H204 4992   4.325   5.739   4.232 -0.9786 -1.7234 -0.4818
   15MOL   H205 4993   4.479   5.645   4.233  0.7484  0.2607  0.9892
   15MOL   C206 4994   4.501   5.827   4.326  0.7179 -0.2509 -0.0537
   15MOL   C207 4995   4.426   5.960   4.341 -0.2296 -0.2407 -0.8280
   15MOL   C208 4996   4.447   6.040   4.460 -0.1561 -0.1506  0.2834
   15MOL   C209 4997   4.364   6.148   4.490 -0.5666  0.0992 -0.0222
   15MOL   C210 4998   4.270   6.185   4.392  0.3033 -0.8407  0.3680
   15MOL   O211 4999   4.178   6.281   4.430 -0.1290  0.3884  0.1973
   15MOL   C212 5000   4.262   6.123   4.265 -0.0493  0.3331 -0.1525
   15MOL   C213 5001   4.344   6.008   4.240  0.9889 -0.2855  0.5059
   15MOL   C214 5002   4.624   5.841   4.229  0.4841 -0.0462  0.5553
   15MOL   H215 5003   4.543   5.804   4.423  0.9558 -1.5233 -0.4553
   15MOL   H216 5004   4.519   6.009   4.535  0.3501 -2.1279 -0.9874
   15MOL   H217 5005   4.374   6.199   4.584 -0.4856  1.0088 -0.5229
   15MOL   H218 5006   4.129   6.243   4.501  1.5778  1.9655  2.2973
   15MOL   H219 5007   4.187   6.133   4.188 -0.5685  1.0861  0.4407
   15MOL   H220 5008   4.337   5.958   4.144 -0.6019 -0.5733  0.7652
   15MOL   H221 5009   4.659   5.941   4.250  1.7850 -0.7599  1.8865
   15MOL   H222 5010   4.585   5.839   4.127  1.3614 -1.9951  0.2235
   15MOL   C223 5011   4.741   5.738   4.242  0.1693  0.2948  0.0156
   15MOL   C224 5012   4.858   5.797   4.330  0.3071 -0.1274  0.0135
   15MOL   C225 5013   4.964   5.869   4.266 -0.0874 -0.6447  0.0608
   15MOL   C226 5014   5.069   5.929   4.342  0.4287 -0.5417  0.1357
   15MOL   C227 5015   5.046   5.933   4.478 -0.5227  0.1092 -0.1969
   15MOL   O228 5016   5.133   6.002   4.553 -0.2368 -0.0238  0.0005
   15MOL   C229 5017   4.952   5.852   4.543 -0.6153  0.1645  0.1028
   15MOL   C230 5018   4.856   5.785   4.473  0.2534  1.3608 -0.3489
   15MOL   C231 5019   4.783   5.689   4.097  0.3312  0.1071  0.1557
   15MOL   H232 5020   4.713   5.652   4.303 -0.0150  0.9977  0.9332
   15MOL   H233 5021   4.966   5.877   4.158 -0.0853  1.4646  0.1952
   15MOL   H234 5022   5.154   5.971   4.291 -1.0152  0.9300 -1.1210
   15MOL   H235 5023   5.150   5.966   4.639 -0.3786  0.0612  0.0628
   15MOL   H236 5024   4.952   5.846   4.651 -0.9711  0.3591  0.1146
   15MOL   H237 5025   4.770   5.737   4.517 -0.3531  1.0981 -1.8149
   15MOL   H238 5026   4.692   5.665   4.041  0.5708  0.0038 -0.1908
   15MOL   H239 5027   4.833   5.763   4.034  2.5278 -1.7789 -0.4100
   15MOL   C240 5028   4.871   5.558   4.083 -0.2374 -0.4421 -0.6145
   15MOL   C241 5029   4.778   5.436   4.105 -0.0411 -0.1368  0.0789
   15MOL   C242 5030   4.816   5.338   4.196  0.3296  0.1870  0.0586
   15MOL   C243 5031   4.745   5.217   4.215  0.1417  0.1259 -0.1078
   15MOL   C244 5032   4.628   5.203   4.144  0.7832  0.7275 -0.1419
   15MOL   O245 5033   4.557   5.092   4.169 -0.1387 -0.1897  0.2007
   15MOL   C246 5034   4.576   5.300   4.056  0.0084 -0.2422  0.4658
   15MOL   C247 5035   4.658   5.411   4.033  0.1421 -0.0851 -0.3776
   15MOL   C248 5036   4.950   5.545   3.953 -0.6785 -0.3458  0.4587
   15MOL   H249 5037   4.951   5.559   4.157 -1.3807 -1.0982  0.6309
   15MOL   H250 5038   4.910   5.349   4.247 -0.5362  2.0874  1.3186
   15MOL   H251 5039   4.785   5.134   4.272  1.0472  0.4916 -0.1974
   15MOL   H252 5040   4.472   5.081   4.131  0.7600 -1.0485 -1.6221
   15MOL   H253 5041   4.482   5.292   4.003 -0.0191  0.6161  0.3843
   15MOL   H254 5042   4.623   5.482   3.959  1.8090  1.3087  0.1316
   15MOL   H255 5043   5.010   5.455   3.945  2.3871  1.4878  1.7888
   15MOL   H256 5044   4.874   5.537   3.876  0.4580  0.7772 -0.7877
   15MOL   C257 5045   5.050   5.658   3.930  0.6372 -0.1125  0.3779
   15MOL   C258 5046   5.197   5.615   3.918 -0.1985  0.4166  0.1660
   15MOL   C259 5047   5.291   5.641   4.017 -0.1376  0.1391 -0.3430
   15MOL   C260 5048   5.427   5.601   4.005  0.6434 -0.0779 -0.5480
   15MOL   C261 5049   5.458   5.513   3.906 -0.4181  0.1952 -0.5646
   15MOL   O262 5050   5.587   5.461   3.906  0.1075  0.0941  0.0620
   15MOL   C263 5051   5.364   5.471   3.813  0.6607 -0.2147  0.2408
   15MOL   C264 5052   5.231   5.519   3.821 -0.6268 -0.1752  0.1895
   15MOL   C265 5053   5.013   5.736   3.811  0.0241 -0.9551 -0.3846
   15MOL   H266 5054   5.052   5.727   4.014 -0.4424 -0.1985  0.4677
   15MOL   H267 5055   5.277   5.699   4.107  2.6938 -2.6247  2.0190
   15MOL   H268 5056   5.502   5.623   4.080  1.5047 -0.6347 -1.2384
   15MOL   H269 5057   5.649   5.532   3.917 -2.1517  2.2851 -0.8372
   15MOL   H270 5058   5.408   5.410   3.736 -0.2166 -0.5225 -0.0243
   15MOL   H271 5059   5.157   5.494   3.746  0.3076 -1.1718 -0.4123
   15MOL   H272 5060   4.905   5.745   3.801 -0.0039 -1.6894 -0.7649
   15MOL   H273 5061   5.046   5.677   3.726  1.5186 -0.7728  0.0459
   15MOL   C274 5062   5.080   5.876   3.799 -0.1370 -0.1447  0.2249
   15MOL   C275 5063   5.028   5.977   3.901  0.4082 -0.0530 -0.0665
   15MOL   C276 5064   4.890   5.993   3.916 -0.5391  0.0333 -0.2221
   15MOL   C277 5065   4.848   6.088   4.009  0.7395  0.4713 -0.0630
   15MOL   C278 5066   4.937   6.168   4.082  0.1678 -0.1371  0.6252
   15MOL   O279 5067   4.889   6.254   4.171 -0.1109  0.7213  0.2309
   15MOL   C280 5068   5.073   6.163   4.053  1.1144 -0.1382  0.0453
   15MOL   C281 5069   5.123   6.065   3.967  0.4003 -0.0613 -0.7450
   15MOL   C282 5070   5.073   5.927   3.657  0.7330 -0.5205  0.2132
   15MOL   H283 5071   5.187   5.861   3.816  0.6515  1.7180 -2.6085
   15MOL   H284 5072   4.822   5.946   3.846 -0.1048 -0.0360 -0.6026
   15MOL   H285 5073   4.741   6.093   4.024  0.9792 -1.3823  2.6109
   15MOL   H286 5074   4.804   6.244   4.211 -0.0053  0.0326  0.2920
   15MOL   H287 5075   5.135   6.239   4.098 -0.0713 -0.2419  1.9095
   15MOL   H288 5076   5.226   6.062   3.933  0.0160 -1.6269 -1.8365
   15MOL   H289 5077   5.100   5.854   3.581  0.3041  1.2789 -1.6950
   15MOL   H290 5078   4.970   5.950   3.632  1.1518  1.2600  0.1157
   15MOL   C291 5079   5.145   6.059   3.628  0.1353 -0.2608 -0.1602
   15MOL   C292 5080   5.058   6.137   3.527 -0.1698  0.4342 -0.1115
   15MOL   C293 5081   5.054   6.081   3.394  1.0584 -0.2330 -0.2461
   15MOL   C294 5082   4.996   6.152   3.288  0.3876 -0.2093  0.1452
   15MOL   C295 5083   4.938   6.279   3.314 -0.3656  0.3705  0.9419
   15MOL   O296 5084   4.886   6.354   3.217  0.0771  0.0390 -0.1013
   15MOL   C297 5085   4.921   6.323   3.445  0.3437  0.3599 -0.0014
   15MOL   C298 5086   4.982   6.255   3.551  0.0812 -0.3549  0.0490
   15MOL   C299 5087   5.296   6.045   3.600 -0.1755 -0.3138 -0.1588
   15MOL   H300 5088   5.150   6.128   3.713 -0.0800 -2.1328  1.4129
   15MOL   H301 5089   5.103   5.988   3.373  2.6049  0.3766  0.5514
   15MOL   H302 5090   4.999   6.111   3.189  0.4851 -0.1251  0.1139
   15MOL   H303 5091   4.921   6.442   3.225 -0.6318  0.6331 -3.0492
   15MOL   H304 5092   4.873   6.418   3.464 -2.3011 -0.5645 -1.8151
   15MOL   H305 5093   4.984   6.294   3.652  0.8290 -0.4594  0.0765
   15MOL   H306 5094   5.311   6.040   3.493  0.9695  0.9653 -0.0738
   15MOL   H307 5095   5.331   5.957   3.655  0.7347  0.1336 -0.0211
   15MOL   C308 5096   5.382   6.155   3.653 -0.4382  0.5715  0.6119
   15MOL   C309 5097   5.323   6.294   3.612  0.1519 -0.5512  0.0136
   15MOL   C310 5098   5.324   6.322   3.475  0.1224  0.3824  0.0034
   15MOL   C311 5099   5.275   6.445   3.435  0.2691  0.8025 -0.1557
   15MOL   C312 5100   5.233   6.544   3.524  0.0079  1.1299 -0.2826
   15MOL   O313 5101   5.203   6.673   3.489 -0.6666  0.1531  0.3433
   15MOL   C314 5102   5.234   6.512   3.659  0.1945 -0.0057 -0.5490
   15MOL   C315 5103   5.278   6.387   3.711  0.5955  0.0465  0.5829
   15MOL   C316 5104   5.538   6.136   3.622 -0.1575 -0.0518  0.2410
   15MOL   H317 5105   5.366   6.143   3.760 -1.4365  0.9163  0.5100
   15MOL   H318 5106   5.370   6.249   3.411 -0.2467 -1.5471  1.8692
   15MOL   H319 5107   5.297   6.472   3.333  0.2203 -0.2834 -0.4559
   15MOL   H320 5108   5.254   6.744   3.526  0.7603 -1.3056  1.2279
   15MOL   H321 5109   5.183   6.579   3.726  0.8303  1.0635 -1.1309
   15MOL   H322 5110   5.270   6.365   3.816 -1.6190 -1.8672  0.0484
   15MOL   H323 5111   5.545   6.138   3.513 -0.1636 -0.9163  0.2206
   15MOL   H324 5112   5.556   6.030   3.640 -1.4625 -0.9401 -3.3121
   15MOL   C325 5113   5.638   6.242   3.661  0.4411 -0.3390  0.1969
   15MOL   C326 5114   5.764   6.237   3.574  0.5223 -0.1084 -0.2433
   15MOL   C327 5115   5.853   6.125   3.579  0.3292  0.3632  0.3091
   15MOL   C328 5116   5.969   6.120   3.496 -0.1133  0.5293  0.0480
   15MOL   C329 5117   5.999   6.225   3.415  0.0354  0.1083  1.0103
   15MOL   O330 5118   6.111   6.240   3.333  0.6330 -0.0718 -0.0658
   15MOL   C331 5119   5.908   6.335   3.412  0.2424  0.2854 -0.0324
   15MOL   C332 5120   5.792   6.343   3.485 -0.6482 -0.0707  0.6550
   15MOL   C333 5121   5.675   6.253   3.808 -0.1109  0.3461 -0.0721
   15MOL   H334 5122   5.594   6.340   3.647 -0.1688 -0.5919  0.3619
   15MOL   H335 5123   5.827   6.050   3.652 -3.5595  1.0847 -0.1921
   15MOL   H336 5124   6.041   6.039   3.499  0.4920  1.0975  1.0710
   15MOL   H337 5125   6.181   6.190   3.371  0.6616  0.4254  0.5498
   15MOL   H338 5126   5.937   6.411   3.340  3.2135 -1.6630 -0.9671
   15MOL   H339 5127   5.731   6.431   3.476  0.4571  0.5602 -0.8029
   15MOL   H340 5128   5.591   6.281   3.872  0.4863  0.7428  0.5362
   15MOL   H341 5129   5.747   6.334   3.816 -2.2789  2.2843  0.6600
   15MOL   H342 5130   5.708   6.152   3.833  1.9401  0.7526 -1.1231
   16MOL     C1 5131   4.055   1.876   7.145 -0.3860  0.3066  0.0551
   16MOL     C2 5132   4.008   2.019   7.111  0.5399 -0.1634  0.0350
   16MOL     C3 5133   4.087   2.115   7.039 -0.1473 -0.4073  0.4381
   16MOL     C4 5134   4.050   2.253   7.038  0.3904 -0.1824  0.7314
   16MOL     C5 5135   3.921   2.284   7.076  0.4656 -0.1096 -0.2792
   16MOL     O6 5136   3.875   2.408   7.049  0.1638 -0.5512 -0.1036
   16MOL     C7 5137   3.836   2.194   7.133 -0.2270  0.5748  0.3120
   16MOL     C8 5138   3.881   2.062   7.163  0.0342 -0.2219  0.0056
   16MOL     C9 5139   4.017   1.774   7.039 -0.5179 -0.1015 -0.5501
   16MOL    H10 5140   4.164   1.881   7.141 -0.4183 -0.4733 -2.3061
   16MOL    H11 5141   4.184   2.086   7.000 -1.3427 -1.3894 -1.8828
   16MOL    H12 5142   4.118   2.328   7.001  1.7982 -2.4347 -1.3933
   16MOL    H13 5143   3.937   2.476   7.026  1.3786 -1.3706  0.6937
   16MOL    H14 5144   3.740   2.230   7.167  0.4364  1.3697  1.3792
   16MOL    H15 5145   3.816   1.992   7.214  0.9555 -0.6748  0.5562
   16MOL    H16 5146   4.029   1.824   6.943  0.1049 -1.0865 -0.9954
   16MOL    H17 5147   3.910   1.755   7.041 -0.7441  1.1876 -0.1617
   16MOL    H18 5148   4.018   1.851   7.244 -0.7572  1.0404  0.1037
   16MOL    C19 5149   4.082   1.644   7.062 -0.3757 -0.0600  0.3439
   16MOL    C20 5150   4.229   1.634   7.022  0.5173 -0.2305  0.7847
   16MOL    C21 5151   4.278   1.723   6.919  0.4313  0.4602  0.0551
   16MOL    C22 5152   4.410   1.717   6.881  1.0044 -0.1608  0.2021
   16MOL    C23 5153   4.496   1.621   6.933 -0.7497  0.2038 -0.8060
   16MOL    O24 5154   4.626   1.628   6.906  0.2293 -0.5899  0.3733
   16MOL    C25 5155   4.444   1.528   7.032 -0.1428 -0.4313  0.4349
   16MOL    C26 5156   4.310   1.532   7.071 -0.3583 -0.4318 -0.4114
   16MOL    C27 5157   3.999   1.518   7.016 -0.0379  0.2169  0.5075
   16MOL    H28 5158   4.074   1.642   7.171  1.2450  2.2530  0.5376
   16MOL    H29 5159   4.220   1.803   6.878  0.3510 -1.4068 -3.7046
   16MOL    H30 5160   4.447   1.786   6.806  0.0784 -0.2225 -0.3290
   16MOL    H31 5161   4.685   1.613   6.978 -1.1282  1.1820  1.8975
   16MOL    H32 5162   4.493   1.445   7.080 -0.7641 -1.1637 -0.1741
   16MOL    H33 5163   4.267   1.465   7.144  1.0674 -0.0642  0.8027
   16MOL    H34 5164   4.062   1.432   7.037  0.1234  0.1108 -0.3871
   16MOL    H35 5165   3.993   1.530   6.908 -2.1775 -0.8966  0.4869
   16MOL    C36 5166   3.866   1.480   7.087  0.1044  0.3788 -0.4348
   16MOL    C37 5167   3.889   1.475   7.242  1.1376 -0.6882 -0.0405
   16MOL    C38 5168   3.990   1.397   7.302 -0.6625  0.1094  0.2286
   16MOL    C39 5169   4.012   1.400   7.439  0.1404 -0.0975 -0.1899
   16MOL    C40 5170   3.933   1.474   7.519 -0.0620  0.3482 -0.2706
   16MOL    O41 5171   3.944   1.459   7.658 -0.3166  0.2759 -0.2012
   16MOL    C42 5172   3.838   1.564   7.464 -0.7077  0.0990 -0.0465
   16MOL    C43 5173   3.816   1.558   7.326 -0.5457  0.2640  0.1910
   16MOL    C44 5174   3.809   1.348   7.026  0.0236  1.1058 -0.3375
   16MOL    H45 5175   3.799   1.565   7.072  0.2258  0.4007 -0.8460
   16MOL    H46 5176   4.052   1.337   7.236  0.4939 -0.5168  1.8466
   16MOL    H47 5177   4.085   1.328   7.473  0.0409  0.0093  0.2556
   16MOL    H48 5178   4.012   1.394   7.669 -2.8723 -2.3931  0.5622
   16MOL    H49 5179   3.779   1.625   7.530 -1.1940  0.0659 -0.4478
   16MOL    H50 5180   3.732   1.614   7.289  0.1679  1.5913  0.5430
   16MOL    H51 5181   3.748   1.368   6.937  0.5314 -0.7382 -1.1179
   16MOL    H52 5182   3.900   1.296   6.995 -0.1882 -0.0459  0.9570
   16MOL    C53 5183   3.731   1.255   7.127  0.1868 -1.0573  0.6282
   16MOL    C54 5184   3.597   1.312   7.175 -0.3837 -0.4389  0.3399
   16MOL    C55 5185   3.581   1.347   7.311 -0.1364  0.2988 -0.0992
   16MOL    C56 5186   3.470   1.410   7.365  0.2429 -0.3413  0.2821
   16MOL    C57 5187   3.364   1.429   7.275  0.0773 -0.6822  0.0341
   16MOL    O58 5188   3.246   1.486   7.316 -0.4277  0.3703  0.3744
   16MOL    C59 5189   3.364   1.371   7.145  0.6157  0.2401  0.0785
   16MOL    C60 5190   3.482   1.329   7.095 -0.1419  0.0283 -0.0772
   16MOL    C61 5191   3.716   1.111   7.077  0.1497 -0.4115 -0.1909
   16MOL    H62 5192   3.805   1.243   7.207 -0.6318 -2.1427  1.2312
   16MOL    H63 5193   3.666   1.355   7.378 -0.5213 -2.5621  0.7675
   16MOL    H64 5194   3.469   1.444   7.468  3.2846 -2.5133  1.0797
   16MOL    H65 5195   3.181   1.490   7.247  0.5988  0.4124 -0.6025
   16MOL    H66 5196   3.281   1.391   7.078 -0.4072 -2.3918  0.4666
   16MOL    H67 5197   3.496   1.296   6.993 -0.4180 -1.1694  0.2652
   16MOL    H68 5198   3.804   1.077   7.024 -0.8639  1.7413 -3.4006
   16MOL    H69 5199   3.625   1.112   7.017 -0.4551 -1.9377  0.6699
   16MOL    C70 5200   3.683   1.009   7.196 -0.2729 -0.1112  0.1691
   16MOL    C71 5201   3.805   0.990   7.287 -0.4074 -0.2843 -0.1170
   16MOL    C72 5202   3.811   1.040   7.421  0.6040 -0.2787 -0.7070
   16MOL    C73 5203   3.925   1.045   7.495 -0.1333  0.4062 -0.3445
   16MOL    C74 5204   4.042   1.006   7.428 -0.4904  0.1723 -0.1739
   16MOL    O75 5205   4.153   1.005   7.510  0.1490  0.2317 -0.1684
   16MOL    C76 5206   4.047   0.970   7.296  0.3200 -0.5143 -0.0449
   16MOL    C77 5207   3.928   0.949   7.230 -0.0429  0.4449  0.0605
   16MOL    C78 5208   3.641   0.870   7.145  0.6912  0.3221  0.0906
   16MOL    H79 5209   3.604   1.036   7.266  0.2088  0.9453  0.3138
   16MOL    H80 5210   3.720   1.069   7.473  1.5349 -0.4819  1.0987
   16MOL    H81 5211   3.931   1.085   7.595  1.3659 -2.3798  0.7340
   16MOL    H82 5212   4.214   0.944   7.470 -1.0061 -1.4558  0.5735
   16MOL    H83 5213   4.136   0.941   7.242  1.6520  1.0341  1.2800
   16MOL    H84 5214   3.935   0.906   7.131 -1.3043  0.8228 -0.1960
   16MOL    H85 5215   3.606   0.809   7.229  0.0026  1.1489  0.4099
   16MOL    H86 5216   3.725   0.815   7.102  0.1464 -0.9945  0.6766
   16MOL    C87 5217   3.530   0.869   7.039 -0.5556  0.1684  0.3186
   16MOL    C88 5218   3.412   0.964   7.076  0.3758  0.0381 -0.7728
   16MOL    C89 5219   3.346   0.964   7.200 -0.1813  0.5335  0.0968
   16MOL    C90 5220   3.242   1.063   7.224  0.1227 -0.6393 -0.0770
   16MOL    C91 5221   3.190   1.137   7.116  0.8163 -0.1017  0.2059
   16MOL    O92 5222   3.084   1.216   7.145 -0.4269 -0.7572  0.4374
   16MOL    C93 5223   3.251   1.129   6.988 -0.1417 -0.3174  1.0935
   16MOL    C94 5224   3.358   1.044   6.968  0.1994  0.1713 -0.3221
   16MOL    C95 5225   3.487   0.726   7.024  0.1106 -0.3594 -0.3982
   16MOL    H96 5226   3.574   0.914   6.949 -2.9647  2.4243  0.2033
   16MOL    H97 5227   3.378   0.894   7.276  0.3869  0.2573 -0.3946
   16MOL    H98 5228   3.192   1.072   7.319  1.8449  0.3160  0.7516
   16MOL    H99 5229   3.085   1.225   7.239 -1.0319 -4.8965  0.9463
   16MOL   H100 5230   3.215   1.203   6.918  3.9958  1.3943  0.6133
   16MOL   H101 5231   3.405   1.050   6.871 -0.5742 -0.4210 -0.7280
   16MOL   H102 5232   3.574   0.670   6.992 -0.1814 -0.8438 -0.3612
   16MOL   H103 5233   3.463   0.695   7.126  0.3367 -0.3507 -0.3430
   16MOL   C104 5234   3.358   0.689   6.939  0.4194 -0.2248  0.0600
   16MOL   C105 5235   3.321   0.547   6.963 -0.0912 -0.0658  0.2356
   16MOL   C106 5236   3.215   0.516   7.051 -0.3236  0.4333  0.2824
   16MOL   C107 5237   3.184   0.382   7.086 -0.6934  0.3097  0.7280
   16MOL   C108 5238   3.257   0.276   7.025 -0.5357  0.4447 -0.1488
   16MOL   O109 5239   3.215   0.153   7.053  0.0207  0.3012 -0.4541
   16MOL   C110 5240   3.367   0.306   6.940 -0.0569 -0.1995  0.7514
   16MOL   C111 5241   3.395   0.440   6.912 -0.0143 -0.1050  0.5151
   16MOL   C112 5242   3.367   0.712   6.782 -0.9834  0.9986 -0.7269
   16MOL   H113 5243   3.274   0.751   6.970 -0.2794  1.0481 -4.0454
   16MOL   H114 5244   3.153   0.592   7.097  1.4236 -0.3164  4.0951
   16MOL   H115 5245   3.100   0.366   7.152 -1.9891 -0.6083 -1.1045
   16MOL   H116 5246   3.257   0.091   6.995  2.3034  0.3470  1.0605
   16MOL   H117 5247   3.420   0.227   6.888 -0.5659 -3.0957  4.4293
   16MOL   H118 5248   3.483   0.468   6.855 -1.3819  2.3233 -0.4871
   16MOL   H119 5249   3.454   0.656   6.748 -2.0395 -0.0356 -1.7755
   16MOL   H120 5250   3.391   0.813   6.750  1.1793  0.7319 -0.0110
   16MOL   C121 5251   3.240   0.678   6.711 -0.3387  0.4830  0.8794
   16MOL   C122 5252   3.118   0.759   6.742 -0.6742 -0.0815 -0.1209
   16MOL   C123 5253   3.130   0.896   6.726  0.7093  0.3012  0.0188
   16MOL   C124 5254   3.017   0.981   6.753 -1.3253  0.4882 -1.0906
   16MOL   C125 5255   2.897   0.922   6.785 -0.4279  0.1436 -0.6978
   16MOL   O126 5256   2.789   0.992   6.820 -0.1041  0.8085  0.1607
   16MOL   C127 5257   2.884   0.783   6.764 -0.7960 -0.2395 -0.3038
   16MOL   C128 5258   2.993   0.700   6.755  0.1933 -0.2700  0.1175
   16MOL   C129 5259   3.255   0.676   6.554 -0.5731  0.6878  1.2663
   16MOL   H130 5260   3.217   0.574   6.737  1.1161 -0.6852 -2.2161
   16MOL   H131 5261   3.226   0.944   6.708 -0.4955  2.0025 -2.1382
   16MOL   H132 5262   3.030   1.088   6.761 -1.1123  0.4478 -0.8829
   16MOL   H133 5263   2.821   1.081   6.821  4.2960 -0.6157  4.5276
   16MOL   H134 5264   2.790   0.731   6.777 -1.0858  0.6859  1.4532
   16MOL   H135 5265   2.982   0.593   6.757  2.3126 -0.5079  0.4135
   16MOL   H136 5266   3.315   0.758   6.515 -0.4886 -0.0121 -0.1097
   16MOL   H137 5267   3.153   0.695   6.520 -0.1245  0.6653 -0.1057
   16MOL   C138 5268   3.298   0.543   6.496 -0.2095  0.1413 -0.2460
   16MOL   C139 5269   3.442   0.507   6.537 -0.4568 -0.2774 -0.9699
   16MOL   C140 5270   3.476   0.369   6.560  0.9380 -0.8671 -0.0532
   16MOL   C141 5271   3.599   0.338   6.613 -0.4636 -0.0612 -0.7893
   16MOL   C142 5272   3.706   0.426   6.617  0.8339 -0.0741 -0.4912
   16MOL   O143 5273   3.825   0.396   6.682 -0.5085 -0.1930  0.4683
   16MOL   C144 5274   3.688   0.556   6.568 -0.4008 -0.7818 -0.1412
   16MOL   C145 5275   3.559   0.594   6.525  0.0540  0.2251 -0.0268
   16MOL   C146 5276   3.287   0.526   6.343 -0.0250 -0.1254  0.2170
   16MOL   H147 5277   3.238   0.463   6.538  1.0850 -1.5325 -1.5171
   16MOL   H148 5278   3.398   0.296   6.549  0.7159 -0.7421  0.6899
   16MOL   H149 5279   3.618   0.238   6.652 -1.9260 -0.3445 -0.7729
   16MOL   H150 5280   3.815   0.402   6.776  1.4091 -1.2815  0.7818
   16MOL   H151 5281   3.771   0.626   6.569  0.4409 -1.7645  1.5000
   16MOL   H152 5282   3.546   0.694   6.487  0.7558  0.4938  0.4470
   16MOL   H153 5283   3.356   0.451   6.305  0.2691 -0.9161  2.2690
   16MOL   H154 5284   3.320   0.623   6.304 -3.6303  0.3938 -1.7702
   16MOL   C155 5285   3.140   0.497   6.289 -0.2226 -0.2428 -0.1672
   16MOL   C156 5286   3.086   0.365   6.351  0.0307 -0.0768 -0.7152
   16MOL   C157 5287   3.158   0.246   6.344  0.4367  0.2647  0.8507
   16MOL   C158 5288   3.103   0.124   6.389  0.8444  0.4763  0.6120
   16MOL   C159 5289   2.980   0.129   6.459 -0.1107 -0.3626  0.0321
   16MOL   O160 5290   2.934   0.022   6.522 -0.2790  0.8477  0.0937
   16MOL   C161 5291   2.911   0.247   6.475 -0.4675  0.4126  0.5810
   16MOL   C162 5292   2.960   0.365   6.413  0.2574  0.0403  0.0982
   16MOL   C163 5293   3.131   0.505   6.137  0.3332 -0.4545  0.5144
   16MOL   H164 5294   3.085   0.583   6.326  0.0782 -0.2741  0.3644
   16MOL   H165 5295   3.258   0.250   6.303  0.5600  0.9602  1.2166
   16MOL   H166 5296   3.166   0.039   6.371 -0.1715 -0.0522 -0.5142
   16MOL   H167 5297   2.865   0.046   6.582 -1.5836  1.7251 -1.7132
   16MOL   H168 5298   2.823   0.258   6.536  1.4033  1.6735  3.2035
   16MOL   H169 5299   2.906   0.458   6.419  1.5559  0.8094 -0.0386
   16MOL   H170 5300   3.145   0.404   6.097  0.6460 -1.1617  2.3450
   16MOL   H171 5301   3.228   0.546   6.107  0.1042  0.0413  0.4450
   16MOL   C172 5302   3.018   0.596   6.094 -0.2615  0.6754  0.5336
   16MOL   C173 5303   2.876   0.554   6.125  0.9223  0.7330  0.5623
   16MOL   C174 5304   2.835   0.421   6.109 -0.0536  0.5668 -0.0113
   16MOL   C175 5305   2.699   0.372   6.125  0.4324 -0.0266 -0.7404
   16MOL   C176 5306   2.598   0.466   6.151 -0.1622  0.0967 -0.6258
   16MOL   O177 5307   2.467   0.424   6.164 -0.1135  0.4660  0.3313
   16MOL   C178 5308   2.637   0.601   6.172 -0.3290  0.3892  0.2734
   16MOL   C179 5309   2.769   0.647   6.148 -0.0190  0.5900  1.1102
   16MOL   C180 5310   3.027   0.639   5.938 -0.7657 -1.1837  0.0331
   16MOL   H181 5311   3.033   0.692   6.143 -0.2543  0.5209  0.8308
   16MOL   H182 5312   2.904   0.347   6.071 -0.6287  1.0520 -2.0081
   16MOL   H183 5313   2.666   0.273   6.096 -0.9829 -0.2470  1.5192
   16MOL   H184 5314   2.398   0.489   6.158 -0.0469  0.7298  2.1038
   16MOL   H185 5315   2.562   0.674   6.198 -1.5077 -1.4384  2.1702
   16MOL   H186 5316   2.799   0.750   6.158  2.3238  0.0619 -0.1112
   16MOL   H187 5317   2.938   0.610   5.883 -3.6513  1.4869  3.0282
   16MOL   H188 5318   3.100   0.573   5.892  0.3345 -0.8163  1.2195
   16MOL   C189 5319   3.059   0.786   5.903  0.1431 -0.3325 -0.0202
   16MOL   C190 5320   3.176   0.840   5.987 -0.1689  0.0435 -0.4163
   16MOL   C191 5321   3.306   0.779   5.976  0.8186  0.1111 -0.9918
   16MOL   C192 5322   3.407   0.827   6.063  0.3334 -0.1060 -0.0707
   16MOL   C193 5323   3.382   0.926   6.158  0.5306  0.4876  0.2926
   16MOL   O194 5324   3.483   0.965   6.244  0.2651  0.3632  0.1899
   16MOL   C195 5325   3.251   0.975   6.174  0.3656  0.9885  0.1440
   16MOL   C196 5326   3.147   0.935   6.084 -0.0513  0.2052  0.3661
   16MOL   C197 5327   3.083   0.803   5.757  0.3480  0.0882  0.2453
   16MOL   H198 5328   2.968   0.837   5.934 -0.8636 -2.5058  0.7641
   16MOL   H199 5329   3.327   0.701   5.904 -0.2939  1.0553 -2.3774
   16MOL   H200 5330   3.507   0.787   6.052  0.8693  0.1331  3.5236
   16MOL   H201 5331   3.569   0.925   6.243  1.1564  2.2581 -0.4519
   16MOL   H202 5332   3.232   1.041   6.258 -0.5173 -1.6770  2.1050
   16MOL   H203 5333   3.047   0.976   6.093 -1.4204 -2.8192 -0.5422
   16MOL   H204 5334   3.010   0.736   5.710  0.0284  0.5251  0.1159
   16MOL   H205 5335   3.184   0.768   5.734  0.9615  1.3299  0.9995
   16MOL   C206 5336   3.072   0.946   5.691 -0.1430  0.0612 -0.1450
   16MOL   C207 5337   2.927   1.000   5.710  0.2880 -0.5617  0.0574
   16MOL   C208 5338   2.813   0.947   5.644 -0.1620 -0.5133  0.0438
   16MOL   C209 5339   2.688   1.006   5.654  0.2395  0.5407 -0.0435
   16MOL   C210 5340   2.676   1.133   5.716 -0.0504  0.4148 -0.2699
   16MOL   O211 5341   2.551   1.193   5.728  0.2981 -0.8604  0.0246
   16MOL   C212 5342   2.786   1.189   5.785  0.0719  0.3103 -0.2549
   16MOL   C213 5343   2.910   1.119   5.775 -0.3117 -0.5316  1.0586
   16MOL   C214 5344   3.123   0.951   5.550 -0.2079  0.2785  1.1556
   16MOL   H215 5345   3.131   1.021   5.744  0.9886 -0.3010 -0.8814
   16MOL   H216 5346   2.822   0.858   5.584  1.8872  0.4987 -1.2335
   16MOL   H217 5347   2.602   0.967   5.603 -0.4997 -0.2281  1.7210
   16MOL   H218 5348   2.561   1.286   5.716 -0.0026 -1.0441 -1.8929
   16MOL   H219 5349   2.762   1.271   5.851 -0.1506  1.0250 -1.2170
   16MOL   H220 5350   2.988   1.162   5.837  0.5451  0.3110 -0.5625
   16MOL   H221 5351   3.054   1.009   5.488  0.0270 -2.0355 -1.3679
   16MOL   H222 5352   3.126   0.848   5.513  2.0320  0.6993  0.0808
   16MOL   C223 5353   3.257   1.027   5.532  0.5410 -0.3634  0.1389
   16MOL   C224 5354   3.284   1.036   5.386 -0.3018 -0.3192  0.2928
   16MOL   C225 5355   3.312   1.166   5.331  0.4743 -0.1109 -0.4789
   16MOL   C226 5356   3.350   1.186   5.197 -0.1513 -0.4614 -0.2540
   16MOL   C227 5357   3.346   1.075   5.115 -1.1294  0.1027 -0.2103
   16MOL   O228 5358   3.365   1.093   4.981 -0.0258  0.2074  0.3507
   16MOL   C229 5359   3.310   0.945   5.164  0.0285 -0.0888 -0.6063
   16MOL   C230 5360   3.284   0.925   5.298 -0.2206 -0.6399 -0.0001
   16MOL   C231 5361   3.373   0.964   5.620  0.0944  0.2015  0.0317
   16MOL   H232 5362   3.234   1.129   5.563  0.3240  1.0452 -4.2211
   16MOL   H233 5363   3.309   1.247   5.403 -1.5415 -1.5347  1.0892
   16MOL   H234 5364   3.387   1.282   5.165  1.1286 -0.9970 -0.3837
   16MOL   H235 5365   3.395   1.181   4.963 -1.2622  0.6532  0.4246
   16MOL   H236 5366   3.285   0.865   5.096  1.1398 -0.0696 -1.0563
   16MOL   H237 5367   3.263   0.823   5.329  1.7271 -1.1938 -0.4727
   16MOL   H238 5368   3.361   0.977   5.727 -1.2458 -0.3663 -0.0415
   16MOL   H239 5369   3.390   0.859   5.596  0.8395  0.6374 -1.4326
   16MOL   C240 5370   3.511   1.037   5.600  0.1791 -0.0321 -0.3464
   16MOL   C241 5371   3.517   1.170   5.663  0.0650 -0.1871 -0.0131
   16MOL   C242 5372   3.522   1.290   5.584 -0.4644 -0.5166 -0.0858
   16MOL   C243 5373   3.522   1.417   5.643  0.1712  0.3301  0.2120
   16MOL   C244 5374   3.514   1.430   5.782  0.6014 -0.2630  0.7714
   16MOL   O245 5375   3.493   1.554   5.841 -0.0412  0.1387  0.2701
   16MOL   C246 5376   3.512   1.315   5.859  0.0554  0.5676  0.1744
   16MOL   C247 5377   3.509   1.189   5.804 -0.0422 -0.0250 -0.2816
   16MOL   C248 5378   3.632   0.947   5.629 -0.0232  0.6205  0.1914
   16MOL   H249 5379   3.509   1.063   5.494 -0.2868  2.3903  0.2097
   16MOL   H250 5380   3.524   1.283   5.476  1.0059  0.9330 -0.1725
   16MOL   H251 5381   3.550   1.502   5.582  2.2793 -0.4512  0.0377
   16MOL   H252 5382   3.477   1.612   5.768 -0.2909 -1.3117 -0.8452
   16MOL   H253 5383   3.493   1.316   5.965 -2.2759 -1.8790 -0.1550
   16MOL   H254 5384   3.498   1.095   5.856  1.4800 -0.1951 -0.2695
   16MOL   H255 5385   3.701   0.998   5.696 -1.0203 -0.2752  1.9482
   16MOL   H256 5386   3.592   0.885   5.710 -0.5722  0.6385 -0.0650
   16MOL   C257 5387   3.685   0.863   5.508 -0.0525 -0.1744 -0.1535
   16MOL   C258 5388   3.733   0.958   5.399 -0.2619  0.1162  0.2721
   16MOL   C259 5389   3.834   1.047   5.437  0.7230  0.2260  0.0261
   16MOL   C260 5390   3.882   1.136   5.340  0.2503 -0.2771 -0.0870
   16MOL   C261 5391   3.832   1.141   5.207  0.6695 -0.7339  0.2458
   16MOL   O262 5392   3.886   1.225   5.110 -0.0216  0.5443 -0.5011
   16MOL   C263 5393   3.733   1.050   5.174  0.7746  0.8464  0.1862
   16MOL   C264 5394   3.685   0.957   5.270  1.1215  0.4879 -0.2794
   16MOL   C265 5395   3.784   0.755   5.542  0.4320 -1.1964 -0.5316
   16MOL   H266 5396   3.598   0.821   5.458  0.4604 -1.9727  0.4049
   16MOL   H267 5397   3.875   1.048   5.537  0.5552  1.2747  0.0877
   16MOL   H268 5398   3.965   1.200   5.367  0.6264 -0.6433 -0.3800
   16MOL   H269 5399   3.871   1.183   5.027 -1.5592  0.4936 -0.2032
   16MOL   H270 5400   3.697   1.048   5.072  1.5166 -0.7203 -0.0562
   16MOL   H271 5401   3.616   0.879   5.242 -0.1985  1.6755 -0.3675
   16MOL   H272 5402   3.764   0.721   5.643  0.6233 -0.5213 -0.2602
   16MOL   H273 5403   3.883   0.800   5.541 -0.0066 -0.1887 -2.0683
   16MOL   C274 5404   3.781   0.630   5.454  0.3170  0.0513 -0.2466
   16MOL   C275 5405   3.635   0.576   5.432 -0.3098  0.2640  0.2970
   16MOL   C276 5406   3.589   0.576   5.298  0.1048 -0.7655  0.0829
   16MOL   C277 5407   3.458   0.539   5.273 -0.3608 -0.8557  0.3875
   16MOL   C278 5408   3.369   0.513   5.376 -0.2395 -0.2066  0.4025
   16MOL   O279 5409   3.235   0.484   5.355  0.4501 -0.1546  0.5948
   16MOL   C280 5410   3.415   0.504   5.509 -0.7636  0.4240  0.0861
   16MOL   C281 5411   3.549   0.536   5.536  0.1462 -0.4280 -0.3382
   16MOL   C282 5412   3.881   0.515   5.499  0.6601  0.1377 -0.3324
   16MOL   H283 5413   3.810   0.667   5.355 -1.0053  0.1101 -0.6234
   16MOL   H284 5414   3.649   0.605   5.213 -0.0927 -0.7378 -0.0466
   16MOL   H285 5415   3.416   0.546   5.174 -0.1261  0.7421  0.3847
   16MOL   H286 5416   3.214   0.480   5.263  0.5155 -0.7482  0.6071
   16MOL   H287 5417   3.354   0.465   5.589  0.7568 -1.4622  0.3819
   16MOL   H288 5418   3.582   0.530   5.638 -0.1022  0.6785 -0.1814
   16MOL   H289 5419   3.850   0.488   5.600  0.0318 -0.9127 -0.7978
   16MOL   H290 5420   3.851   0.431   5.437  1.5227  0.3315 -1.0071
   16MOL   C291 5421   4.027   0.559   5.474 -0.0435  0.7623  0.2295
   16MOL   C292 5422   4.067   0.577   5.326  0.4059 -0.0038  0.9131
   16MOL   C293 5423   3.987   0.532   5.221 -0.0961  0.8046 -0.0495
   16MOL   C294 5424   4.021   0.529   5.084 -0.2882 -0.4605 -0.1559
   16MOL   C295 5425   4.153   0.572   5.052  0.3406  0.6302 -0.3584
   16MOL   O296 5426   4.191   0.572   4.925 -0.0539 -0.1379  0.2017
   16MOL   C297 5427   4.234   0.623   5.155 -0.7053 -0.1262  0.9944
   16MOL   C298 5428   4.195   0.628   5.287  0.0265  0.0648  0.2335
   16MOL   C299 5429   4.125   0.457   5.547 -0.6291  0.5320 -0.1806
   16MOL   H300 5430   4.042   0.657   5.518 -0.4033  0.6096  0.7049
   16MOL   H301 5431   3.893   0.483   5.240 -0.4342  1.4551 -0.0355
   16MOL   H302 5432   3.955   0.490   5.009 -0.6742  1.6653 -0.9489
   16MOL   H303 5433   4.121   0.571   4.861 -0.8567  0.9079  1.0487
   16MOL   H304 5434   4.327   0.663   5.118 -0.1731 -2.4137 -0.3049
   16MOL   H305 5435   4.252   0.661   5.373 -1.3820  3.3715 -0.0292
   16MOL   H306 5436   4.231   0.472   5.529 -0.0784 -2.3536  0.3038
   16MOL   H307 5437   4.121   0.357   5.504  0.7268  1.3490 -2.2916
   16MOL   C308 5438   4.114   0.445   5.702 -0.2687  0.7725  0.2983
   16MOL   C309 5439   4.108   0.583   5.774 -0.5031 -0.1669 -0.0650
   16MOL   C310 5440   4.003   0.614   5.856  0.8241  0.4022  0.3728
   16MOL   C311 5441   3.976   0.736   5.912  0.0819 -0.2129  0.3615
   16MOL   C312 5442   4.081   0.836   5.904  0.4728 -0.0346 -0.5386
   16MOL   O313 5443   4.055   0.959   5.947  0.3437 -0.8103 -0.4890
   16MOL   C314 5444   4.195   0.809   5.825  0.0998  0.0006  0.3867
   16MOL   C315 5445   4.205   0.684   5.759 -0.6277  0.2685 -0.0079
   16MOL   C316 5446   4.208   0.340   5.759  0.1765  0.2155 -0.5309
   16MOL   H317 5447   4.014   0.401   5.709  1.0229 -2.6238 -1.5296
   16MOL   H318 5448   3.927   0.538   5.868 -0.0721  1.7712  3.6574
   16MOL   H319 5449   3.886   0.749   5.971 -0.5959 -0.0052 -0.6996
   16MOL   H320 5450   4.002   0.963   6.025  0.7317 -1.0260 -0.2116
   16MOL   H321 5451   4.252   0.896   5.796 -1.5946  1.3854  1.0967
   16MOL   H322 5452   4.289   0.670   5.693  0.7220  0.3698  1.6498
   16MOL   H323 5453   4.306   0.386   5.766  0.0321  0.3983  0.4196
   16MOL   H324 5454   4.222   0.261   5.685 -0.4809  1.3274 -1.8494
   16MOL   C325 5455   4.177   0.291   5.900  0.4008 -0.0166  0.8954
   16MOL   C326 5456   4.294   0.207   5.958  1.2172 -0.5919  0.4168
   16MOL   C327 5457   4.360   0.246   6.075  0.4230  0.3638 -0.3248
   16MOL   C328 5458   4.479   0.183   6.110  0.1664 -0.8337 -0.4488
   16MOL   C329 5459   4.519   0.068   6.040  0.1835 -0.5236 -0.2818
   16MOL   O330 5460   4.622   8.024   6.080 -0.2337 -0.1684 -0.1145
   16MOL   C331 5461   4.449   0.022   5.925  0.6353  0.1987 -0.1606
   16MOL   C332 5462   4.333   0.091   5.885 -0.4884 -0.1539 -0.1231
   16MOL   C333 5463   4.048   0.204   5.892  0.2868  0.3051 -0.5784
   16MOL   H334 5464   4.149   0.381   5.954 -0.9546 -1.3162  2.4123
   16MOL   H335 5465   4.335   0.337   6.129 -0.5589 -0.2821  0.3144
   16MOL   H336 5466   4.530   0.222   6.197  1.3538 -1.4344 -0.8632
   16MOL   H337 5467   4.609   7.935   6.050  0.4753  0.0020 -0.9572
   16MOL   H338 5468   4.481   7.973   5.870  0.0998  0.5352 -1.0133
   16MOL   H339 5469   4.293   0.055   5.791 -0.2106  1.5109 -0.8889
   16MOL   H340 5470   4.014   0.186   5.994  2.1060  0.3719  0.0607
   16MOL   H341 5471   4.059   0.110   5.837 -0.4926  0.4133 -0.9305
   16MOL   H342 5472   3.956   0.253   5.860  0.0704 -0.2184 -0.7790
   17MOL     C1 5473   2.634   4.458   4.120 -0.5359 -0.1499  0.7321
   17MOL     C2 5474   2.655   4.380   4.246 -0.2985  0.4552  0.0865
   17MOL     C3 5475   2.738   4.439   4.351  0.0665  0.6783 -0.3357
   17MOL     C4 5476   2.771   4.366   4.465 -0.3479  0.2168 -0.3014
   17MOL     C5 5477   2.719   4.233   4.478 -0.0620  0.0729  0.2060
   17MOL     O6 5478   2.740   4.165   4.592 -0.8006 -0.6276 -0.5554
   17MOL     C7 5479   2.632   4.179   4.382  0.0635  0.5700 -0.3216
   17MOL     C8 5480   2.598   4.247   4.264 -0.3652 -1.6138 -0.9336
   17MOL     C9 5481   2.527   4.565   4.142  0.1589  0.6189  0.1965
   17MOL    H10 5482   2.724   4.499   4.073 -0.3405 -2.0194 -0.5913
   17MOL    H11 5483   2.764   4.543   4.344  0.3752  0.6315  0.1448
   17MOL    H12 5484   2.847   4.411   4.527 -0.6053  1.4900 -0.8960
   17MOL    H13 5485   2.765   4.212   4.669  0.4624 -0.0824 -1.2913
   17MOL    H14 5486   2.583   4.085   4.403 -2.0337  1.2463 -2.0126
   17MOL    H15 5487   2.534   4.199   4.192 -0.3572 -0.8317 -1.4706
   17MOL    H16 5488   2.536   4.594   4.246 -0.6089  1.6437 -0.0214
   17MOL    H17 5489   2.429   4.520   4.130 -0.5371  2.1409  0.0964
   17MOL    H18 5490   2.600   4.395   4.038  0.0980  0.0011  0.3510
   17MOL    C19 5491   2.544   4.685   4.036  0.3616  0.1921 -0.2407
   17MOL    C20 5492   2.441   4.793   4.053 -0.3179  0.0241 -0.1135
   17MOL    C21 5493   2.482   4.927   4.073  0.4640 -1.0737 -0.5158
   17MOL    C22 5494   2.395   5.035   4.077  0.5167  0.2164  0.1600
   17MOL    C23 5495   2.260   5.009   4.050  0.3782  0.3178 -0.0448
   17MOL    O24 5496   2.167   5.106   4.048  0.3987 -0.4382  0.2896
   17MOL    C25 5497   2.217   4.878   4.019  0.0792 -0.0283  0.8186
   17MOL    C26 5498   2.304   4.768   4.027  0.6744  0.1752 -0.6725
   17MOL    C27 5499   2.551   4.636   3.893  0.3786 -0.6509  0.6359
   17MOL    H28 5500   2.642   4.726   4.061  1.0201 -0.4554 -1.6879
   17MOL    H29 5501   2.586   4.952   4.080 -0.1005  0.8680  1.3389
   17MOL    H30 5502   2.450   5.127   4.096  0.6711  0.1783 -0.1015
   17MOL    H31 5503   2.185   5.163   3.975 -2.0303 -0.6827 -0.5574
   17MOL    H32 5504   2.113   4.867   3.995  0.4047 -0.3517 -0.4558
   17MOL    H33 5505   2.274   4.666   4.006  0.0485  0.0190  0.8679
   17MOL    H34 5506   2.451   4.605   3.864 -0.3874  3.3218 -1.2758
   17MOL    H35 5507   2.614   4.550   3.871 -1.2692 -1.0992 -2.6049
   17MOL    C36 5508   2.602   4.738   3.793  0.4188 -0.0313 -0.3390
   17MOL    C37 5509   2.541   4.714   3.657 -0.3975 -0.0545  0.4814
   17MOL    C38 5510   2.605   4.633   3.561 -0.1024  0.1308  0.5370
   17MOL    C39 5511   2.536   4.606   3.438 -0.2350  0.0612 -0.0377
   17MOL    C40 5512   2.395   4.635   3.430  0.7791 -0.1158  1.1717
   17MOL    O41 5513   2.330   4.592   3.318  0.5335  0.1300  0.6413
   17MOL    C42 5514   2.330   4.709   3.530  0.3544 -0.4848 -0.1816
   17MOL    C43 5515   2.405   4.751   3.637 -0.0729  0.0547 -0.0219
   17MOL    C44 5516   2.756   4.772   3.789  0.7487  0.3513 -0.3368
   17MOL    H45 5517   2.561   4.837   3.814  2.5303  0.4736  1.6076
   17MOL    H46 5518   2.709   4.603   3.570  0.6076  2.0019 -1.0966
   17MOL    H47 5519   2.568   4.537   3.362 -1.1341 -1.8274  1.2680
   17MOL    H48 5520   2.240   4.619   3.309  1.2195  2.1725 -0.5944
   17MOL    H49 5521   2.228   4.744   3.517 -0.0269 -1.3875  0.3066
   17MOL    H50 5522   2.357   4.819   3.705  0.9228  0.4440  0.2908
   17MOL    H51 5523   2.801   4.775   3.889  1.0130 -0.2575 -0.4303
   17MOL    H52 5524   2.819   4.693   3.746 -0.1508 -0.9020  0.5895
   17MOL    C53 5525   2.794   4.896   3.708  0.5515  0.5322 -0.7874
   17MOL    C54 5526   2.705   5.015   3.752 -0.7486  1.1149  0.1641
   17MOL    C55 5527   2.736   5.094   3.868  0.1494 -0.1169 -0.0595
   17MOL    C56 5528   2.659   5.210   3.893 -0.2190 -0.5867 -0.0528
   17MOL    C57 5529   2.564   5.256   3.801  0.3728 -0.6112  0.2880
   17MOL    O58 5530   2.491   5.367   3.825 -0.4262  0.1031 -0.5845
   17MOL    C59 5531   2.539   5.181   3.685 -0.2264  0.2637 -0.2484
   17MOL    C60 5532   2.606   5.059   3.660 -0.3491  0.2597  0.2243
   17MOL    C61 5533   2.950   4.934   3.716 -0.0124 -0.7203  0.2405
   17MOL    H62 5534   2.764   4.870   3.606 -0.8553  0.0822 -0.2692
   17MOL    H63 5535   2.807   5.076   3.947 -1.0904 -1.9277  0.6885
   17MOL    H64 5536   2.696   5.267   3.976  1.0176 -2.1546  0.4874
   17MOL    H65 5537   2.504   5.429   3.755  1.2104  0.1075 -0.3109
   17MOL    H66 5538   2.458   5.210   3.620 -0.5431 -0.4719 -0.1888
   17MOL    H67 5539   2.580   4.999   3.574 -1.0698 -0.8643  1.2086
   17MOL    H68 5540   3.014   4.849   3.740  1.3091  0.3733  0.5836
   17MOL    H69 5541   2.972   5.004   3.796  0.5268  0.3845 -0.8669
   17MOL    C70 5542   3.009   5.016   3.597  0.2381  0.3817  0.0458
   17MOL    C71 5543   2.954   4.958   3.462 -0.2192 -0.0873 -0.6461
   17MOL    C72 5544   2.844   5.014   3.397  0.1908 -0.5071  0.3175
   17MOL    C73 5545   2.793   4.952   3.280 -0.2413  0.0337 -0.2175
   17MOL    C74 5546   2.846   4.826   3.242 -0.2023  0.7194  0.0203
   17MOL    O75 5547   2.800   4.759   3.132 -0.3163 -0.0909  0.0239
   17MOL    C76 5548   2.953   4.767   3.315  0.1465  0.5314  0.2829
   17MOL    C77 5549   3.016   4.838   3.418  0.1384 -0.0309 -0.5297
   17MOL    C78 5550   3.165   5.035   3.590 -0.3632 -0.2487  0.1787
   17MOL    H79 5551   2.971   5.117   3.610 -0.8778 -0.1961  1.4195
   17MOL    H80 5552   2.806   5.110   3.431  1.2001 -0.1209  0.3732
   17MOL    H81 5553   2.709   4.992   3.224 -0.4084  2.5654  1.7522
   17MOL    H82 5554   2.724   4.795   3.089  0.1864 -2.2008 -2.7238
   17MOL    H83 5555   2.991   4.668   3.294  0.0067  0.7627 -1.0760
   17MOL    H84 5556   3.104   4.794   3.463  0.7236  1.7765  0.1599
   17MOL    H85 5557   3.188   5.095   3.502  1.2418 -1.8233 -0.5047
   17MOL    H86 5558   3.218   4.942   3.569 -0.7868 -0.3442 -0.5033
   17MOL    C87 5559   3.231   5.104   3.718  0.4531 -0.2544  0.1317
   17MOL    C88 5560   3.168   5.239   3.739  0.1019 -0.0912 -0.4015
   17MOL    C89 5561   3.084   5.251   3.851  0.4159 -0.2085 -0.6493
   17MOL    C90 5562   3.024   5.373   3.887  0.2378 -0.4040  0.8633
   17MOL    C91 5563   3.050   5.487   3.810  0.5346 -0.2962  0.6356
   17MOL    O92 5564   2.999   5.615   3.841 -0.4498  0.3858  0.2410
   17MOL    C93 5565   3.129   5.471   3.689  0.7612 -0.4772  0.1830
   17MOL    C94 5566   3.183   5.348   3.655  0.2588 -0.1761 -0.6650
   17MOL    C95 5567   3.389   5.125   3.707  0.9905  0.0778  0.1058
   17MOL    H96 5568   3.212   5.035   3.800 -1.0356  0.3555  0.3065
   17MOL    H97 5569   3.076   5.168   3.920 -0.2479 -1.2271 -1.9239
   17MOL    H98 5570   2.963   5.377   3.976 -2.0180 -1.5203 -0.5751
   17MOL    H99 5571   3.007   5.674   3.767 -2.3870  1.9614  1.2305
   17MOL   H100 5572   3.133   5.556   3.624  1.1336 -2.1192 -1.9953
   17MOL   H101 5573   3.249   5.343   3.571 -0.4376  1.1239 -1.3065
   17MOL   H102 5574   3.408   5.190   3.622 -0.7376  0.1808 -0.2291
   17MOL   H103 5575   3.426   5.178   3.795  1.7822  1.9811 -1.3567
   17MOL   C104 5576   3.484   5.004   3.705 -0.4685  0.4465 -0.5471
   17MOL   C105 5577   3.470   4.922   3.837  0.2998  0.4966  0.0850
   17MOL   C106 5578   3.388   4.808   3.840 -0.0880  0.1756  0.0101
   17MOL   C107 5579   3.354   4.746   3.959  0.3733  0.2700  0.5768
   17MOL   C108 5580   3.412   4.791   4.076  0.1189 -0.5524 -0.0200
   17MOL   O109 5581   3.382   4.733   4.200  0.3895 -0.7089 -0.2473
   17MOL   C110 5582   3.503   4.903   4.072 -0.4073 -0.0966  0.1245
   17MOL   C111 5583   3.537   4.969   3.952 -0.1636 -0.0276  0.2487
   17MOL   C112 5584   3.633   5.040   3.670 -1.0400 -0.1438 -0.1368
   17MOL   H113 5585   3.444   4.942   3.625  2.0177 -1.4325 -0.4033
   17MOL   H114 5586   3.338   4.767   3.754 -0.2183 -0.4202  0.3682
   17MOL   H115 5587   3.294   4.656   3.955 -0.7746  1.0922 -1.8025
   17MOL   H116 5588   3.321   4.660   4.205 -0.0774 -0.1393  3.4681
   17MOL   H117 5589   3.546   4.944   4.163  1.6670  0.9027 -1.2498
   17MOL   H118 5590   3.610   5.049   3.949 -0.2853  0.1580  1.7919
   17MOL   H119 5591   3.692   4.967   3.724 -0.1963  1.1907  0.7876
   17MOL   H120 5592   3.653   5.128   3.731 -0.5721 -0.1972 -0.2112
   17MOL   C121 5593   3.662   5.045   3.522 -0.4235  1.9486  0.4881
   17MOL   C122 5594   3.585   5.146   3.448  0.0697  0.5434 -0.1817
   17MOL   C123 5595   3.477   5.107   3.365 -0.3730  0.6273 -0.5139
   17MOL   C124 5596   3.409   5.209   3.283 -0.3607 -0.9727  0.2291
   17MOL   C125 5597   3.449   5.342   3.297  0.2426  1.0862 -0.7025
   17MOL   O126 5598   3.386   5.437   3.223  0.8665  0.0275 -0.2896
   17MOL   C127 5599   3.561   5.382   3.377 -0.7962  0.1766  0.3087
   17MOL   C128 5600   3.621   5.281   3.459  0.8902 -0.0364 -0.2354
   17MOL   C129 5601   3.813   5.048   3.499  0.2330  1.3088 -0.8007
   17MOL   H130 5602   3.631   4.951   3.477 -0.4414  1.8885  0.6251
   17MOL   H131 5603   3.455   5.002   3.349  2.5833 -0.3499  1.2867
   17MOL   H132 5604   3.320   5.188   3.226 -1.1558 -2.5749  1.9962
   17MOL   H133 5605   3.419   5.524   3.242  0.2273  1.1379 -3.9200
   17MOL   H134 5606   3.579   5.487   3.395 -0.9938  0.0702  1.1718
   17MOL   H135 5607   3.699   5.318   3.524 -0.2155  0.4338  0.8556
   17MOL   H136 5608   3.864   4.979   3.567 -2.2169  1.4863  1.2696
   17MOL   H137 5609   3.847   5.147   3.529  0.2231  1.0193  0.1928
   17MOL   C138 5610   3.863   5.022   3.355 -0.0307 -0.7698 -0.4535
   17MOL   C139 5611   3.855   4.874   3.313 -0.0896 -0.1613  0.6482
   17MOL   C140 5612   3.779   4.841   3.196  0.3051 -0.3739 -0.2600
   17MOL   C141 5613   3.778   4.707   3.153  0.6221 -0.1569 -0.3529
   17MOL   C142 5614   3.864   4.612   3.207  0.5404 -0.1006 -0.1602
   17MOL   O143 5615   3.863   4.488   3.163  0.1695  0.2585 -0.1004
   17MOL   C144 5616   3.944   4.644   3.319 -0.4722  0.4960 -0.1027
   17MOL   C145 5617   3.943   4.777   3.371 -0.3529  0.2117 -0.4243
   17MOL   C146 5618   4.008   5.064   3.341 -0.3393 -0.3341 -0.0589
   17MOL   H147 5619   3.797   5.075   3.286  0.9638 -0.4379 -1.1551
   17MOL   H148 5620   3.707   4.909   3.152 -0.1331 -0.9942 -0.5151
   17MOL   H149 5621   3.709   4.667   3.080  0.9672 -1.6245  0.1032
   17MOL   H150 5622   3.893   4.431   3.232  1.6923  1.1538 -0.0062
   17MOL   H151 5623   3.996   4.566   3.372  0.7200 -0.1148 -2.0988
   17MOL   H152 5624   4.013   4.792   3.452  1.1561 -0.8034 -1.5232
   17MOL   H153 5625   4.062   4.999   3.272 -1.8403 -1.8449  0.1501
   17MOL   H154 5626   4.072   5.052   3.429  0.3351 -2.2956 -0.7827
   17MOL   C155 5627   4.044   5.201   3.266  0.7373 -0.4161  0.0360
   17MOL   C156 5628   4.194   5.219   3.262 -0.1400 -0.0757 -0.0402
   17MOL   C157 5629   4.260   5.276   3.373 -0.0787 -0.4506 -0.1255
   17MOL   C158 5630   4.400   5.289   3.374 -0.3970 -0.4389 -0.0068
   17MOL   C159 5631   4.483   5.242   3.266 -0.4612 -0.1701 -0.5220
   17MOL   O160 5632   4.622   5.262   3.263  0.0883  0.3814 -0.1394
   17MOL   C161 5633   4.412   5.189   3.156 -0.2503  0.3205  0.5436
   17MOL   C162 5634   4.272   5.185   3.149 -0.2410  0.4168 -0.4960
   17MOL   C163 5635   3.973   5.320   3.321  0.0958  0.4699  0.0258
   17MOL   H164 5636   4.009   5.186   3.164 -1.1729 -0.1177  0.6417
   17MOL   H165 5637   4.196   5.300   3.456 -1.4524 -0.3115 -1.2081
   17MOL   H166 5638   4.432   5.326   3.471  0.6479 -0.3274 -0.3804
   17MOL   H167 5639   4.647   5.299   3.180 -1.3606 -2.2881 -1.8484
   17MOL   H168 5640   4.472   5.137   3.084 -1.7933 -0.4885 -0.1892
   17MOL   H169 5641   4.234   5.146   3.056 -0.2482  1.3371 -0.8844
   17MOL   H170 5642   3.975   5.326   3.430 -1.7541  0.0674  0.0918
   17MOL   H171 5643   3.866   5.304   3.306 -0.1751  0.3708  1.9418
   17MOL   C172 5644   4.015   5.464   3.265 -0.2141 -0.4631 -0.4351
   17MOL   C173 5645   3.981   5.574   3.366 -0.0311 -0.1130 -0.5326
   17MOL   C174 5646   4.080   5.630   3.451 -0.1101  0.2062 -0.0398
   17MOL   C175 5647   4.054   5.737   3.538 -0.0777  0.1394  0.5951
   17MOL   C176 5648   3.924   5.788   3.547  0.3844  0.4224  0.1982
   17MOL   O177 5649   3.893   5.888   3.634 -0.0827 -0.3385  0.4028
   17MOL   C178 5650   3.823   5.736   3.461  0.5043  1.1401 -0.9783
   17MOL   C179 5651   3.846   5.628   3.372 -0.4835  0.0532 -0.0177
   17MOL   C180 5652   3.955   5.494   3.128 -0.2836  0.2596  0.2869
   17MOL   H181 5653   4.124   5.457   3.266 -0.1717  0.1746 -0.3920
   17MOL   H182 5654   4.181   5.589   3.452 -1.1096 -2.3651  0.3130
   17MOL   H183 5655   4.131   5.766   3.608  3.3756  0.1503 -3.0149
   17MOL   H184 5656   3.967   5.941   3.658 -0.1765 -0.4357  0.9303
   17MOL   H185 5657   3.723   5.776   3.468 -0.5694 -1.5419 -0.4125
   17MOL   H186 5658   3.763   5.581   3.323 -0.5460  0.3924 -0.2345
   17MOL   H187 5659   3.848   5.515   3.138 -0.7784  1.6673 -5.9560
   17MOL   H188 5660   3.961   5.401   3.072  2.4596 -1.3970  3.1455
   17MOL   C189 5661   4.021   5.600   3.035 -0.1310  0.0982  0.4464
   17MOL   C190 5662   3.967   5.739   3.061  0.1821  0.2578 -0.4651
   17MOL   C191 5663   4.025   5.822   3.160 -0.1453 -0.9887  0.1405
   17MOL   C192 5664   3.960   5.945   3.182  0.5728 -0.2572 -0.5142
   17MOL   C193 5665   3.856   5.990   3.104 -0.2460  0.3554 -0.2559
   17MOL   O194 5666   3.786   6.108   3.114 -0.6300 -0.0836 -0.3415
   17MOL   C195 5667   3.806   5.901   3.005 -0.1359  0.2215 -0.5584
   17MOL   C196 5668   3.862   5.777   2.984 -0.1663  0.0323  1.2472
   17MOL   C197 5669   4.171   5.587   3.048  0.1139 -0.6005  0.5540
   17MOL   H198 5670   3.986   5.569   2.936 -1.9124 -0.0996  1.1239
   17MOL   H199 5671   4.108   5.788   3.220 -0.1320 -0.5368  0.3851
   17MOL   H200 5672   3.998   6.005   3.264  2.1209  0.1214 -1.4734
   17MOL   H201 5673   3.729   6.118   3.039  2.0140  1.0590 -2.2675
   17MOL   H202 5674   3.727   5.937   2.941 -1.0966  0.4716  0.7427
   17MOL   H203 5675   3.824   5.712   2.907  1.2666 -0.5443  1.0073
   17MOL   H204 5676   4.203   5.483   3.040  0.7032 -0.3133 -0.9144
   17MOL   H205 5677   4.199   5.617   3.149  1.1645 -1.2172  0.4531
   17MOL   C206 5678   4.266   5.662   2.939  0.3074 -0.0313  0.6057
   17MOL   C207 5679   4.358   5.565   2.860  0.0668  0.9358 -0.0870
   17MOL   C208 5680   4.437   5.473   2.933 -0.0359 -0.8602 -0.5065
   17MOL   C209 5681   4.534   5.390   2.866 -0.2954  0.5783  0.4024
   17MOL   C210 5682   4.554   5.405   2.725  0.4242 -0.1602  1.0146
   17MOL   O211 5683   4.654   5.328   2.670 -0.0785  0.1631 -0.3618
   17MOL   C212 5684   4.467   5.495   2.650 -0.4157  0.2009 -0.0626
   17MOL   C213 5685   4.372   5.575   2.718 -0.7128  0.1060  0.1753
   17MOL   C214 5686   4.347   5.786   2.994 -0.0056  0.1816  0.3105
   17MOL   H215 5687   4.192   5.682   2.861  0.4456  1.8357  0.9210
   17MOL   H216 5688   4.431   5.476   3.041 -2.5686 -0.6462 -0.6138
   17MOL   H217 5689   4.592   5.321   2.924  2.4758  2.9309  0.5620
   17MOL   H218 5690   4.662   5.316   2.576  2.9564  1.6068 -0.3660
   17MOL   H219 5691   4.467   5.503   2.542 -1.4201 -0.6753 -0.1371
   17MOL   H220 5692   4.304   5.644   2.670 -0.1986  2.0685  2.1674
   17MOL   H221 5693   4.439   5.749   3.040 -0.2274 -1.4423 -0.5107
   17MOL   H222 5694   4.295   5.837   3.075 -0.3209  0.7126 -0.2160
   17MOL   C223 5695   4.390   5.885   2.878  0.4541  0.5858  0.0029
   17MOL   C224 5696   4.514   5.964   2.908  0.0121  0.7228  0.7124
   17MOL   C225 5697   4.499   6.066   3.006  0.2219 -0.8579  0.5504
   17MOL   C226 5698   4.603   6.152   3.045 -0.2907 -0.1188  0.3811
   17MOL   C227 5699   4.728   6.132   2.969  0.1184  0.2601 -0.7923
   17MOL   O228 5700   4.841   6.211   2.987  0.3122 -0.1254 -0.5114
   17MOL   C229 5701   4.744   6.031   2.873  0.3321  0.1163 -0.5540
   17MOL   C230 5702   4.632   5.946   2.839  0.5955  0.2244  0.9842
   17MOL   C231 5703   4.275   5.977   2.839  0.2485 -0.0357  0.2304
   17MOL   H232 5704   4.425   5.824   2.795  2.7635  0.2713  1.1668
   17MOL   H233 5705   4.403   6.089   3.051 -0.0599  2.0406 -1.3907
   17MOL   H234 5706   4.594   6.225   3.123 -0.5620 -0.0162  0.2547
   17MOL   H235 5707   4.858   6.256   3.068 -1.1006 -0.0757 -0.2308
   17MOL   H236 5708   4.834   6.020   2.814 -1.0813 -0.6857 -2.6267
   17MOL   H237 5709   4.645   5.870   2.764  1.5036 -0.2909  1.6466
   17MOL   H238 5710   4.190   5.961   2.906  0.9262 -0.5061  0.9847
   17MOL   H239 5711   4.301   6.081   2.860 -1.2446  0.3178  0.3723
   17MOL   C240 5712   4.218   5.967   2.697 -0.2974  0.1583 -0.7416
   17MOL   C241 5713   4.088   6.050   2.678 -0.1488 -0.1444  0.5435
   17MOL   C242 5714   4.098   6.188   2.697  0.8519  0.0889  1.0104
   17MOL   C243 5715   3.979   6.266   2.692 -0.4647 -0.4258 -0.0898
   17MOL   C244 5716   3.854   6.212   2.666  0.3879 -0.6390 -0.1966
   17MOL   O245 5717   3.753   6.296   2.629  0.1649  0.2117  0.0763
   17MOL   C246 5718   3.844   6.072   2.663  0.2730 -0.3955  1.4159
   17MOL   C247 5719   3.960   5.991   2.668  0.1829 -0.0326 -0.1901
   17MOL   C248 5720   4.325   5.987   2.592 -0.1931 -0.4170  0.0666
   17MOL   H249 5721   4.186   5.864   2.682  1.3961 -0.4935 -0.0549
   17MOL   H250 5722   4.190   6.242   2.714  0.9376  0.2450  0.0757
   17MOL   H251 5723   3.992   6.374   2.696 -0.6358 -0.3835 -0.6394
   17MOL   H252 5724   3.784   6.384   2.613  0.1204 -0.0803 -1.6734
   17MOL   H253 5725   3.751   6.027   2.630  0.3656 -0.2793  0.9963
   17MOL   H254 5726   3.960   5.883   2.663  1.6322 -0.0568  0.0846
   17MOL   H255 5727   4.377   6.080   2.618  1.2361 -1.3151  0.4581
   17MOL   H256 5728   4.400   5.908   2.598 -0.3840 -0.5850  0.2205
   17MOL   C257 5729   4.276   5.997   2.444  0.1377  0.6850 -0.3503
   17MOL   C258 5730   4.198   5.868   2.399 -0.7161 -0.6974  0.4799
   17MOL   C259 5731   4.059   5.855   2.393 -0.4860 -0.0713  0.2405
   17MOL   C260 5732   4.007   5.737   2.338  0.1658  0.6031 -0.0781
   17MOL   C261 5733   4.085   5.624   2.318  0.2980 -0.3395 -0.0998
   17MOL   O262 5734   4.025   5.510   2.276  0.2749 -0.2414 -0.5336
   17MOL   C263 5735   4.217   5.628   2.347  0.1940  0.3158 -0.5294
   17MOL   C264 5736   4.275   5.753   2.371 -0.4248  0.4562  0.5615
   17MOL   C265 5737   4.207   6.125   2.387  0.5387 -0.2005 -0.4050
   17MOL   H266 5738   4.369   5.995   2.388 -0.2598 -0.2504 -0.9862
   17MOL   H267 5739   3.995   5.940   2.410  0.7098  0.8539  0.1782
   17MOL   H268 5740   3.901   5.722   2.326 -0.2578  3.4909 -0.2581
   17MOL   H269 5741   4.073   5.428   2.278 -0.1969 -0.5329 -0.9237
   17MOL   H270 5742   4.283   5.543   2.337  0.2628  0.1549  1.1631
   17MOL   H271 5743   4.383   5.746   2.377 -0.5123 -0.7568  0.7453
   17MOL   H272 5744   4.106   6.145   2.423  0.5674 -1.0320  0.1588
   17MOL   H273 5745   4.198   6.101   2.281 -1.2514  0.2723 -0.3774
   17MOL   C274 5746   4.280   6.261   2.402 -0.0365  0.0602  0.1465
   17MOL   C275 5747   4.187   6.382   2.371 -0.3493 -0.6306 -0.7504
   17MOL   C276 5748   4.088   6.373   2.272  0.3214  0.4108  0.4879
   17MOL   C277 5749   3.998   6.480   2.242  0.1495  0.3200  0.4833
   17MOL   C278 5750   4.003   6.597   2.319  0.4050 -0.0825 -0.3955
   17MOL   O279 5751   3.904   6.695   2.308  0.4709 -0.4947 -0.0406
   17MOL   C280 5752   4.111   6.611   2.413  0.1242 -0.6057 -0.4546
   17MOL   C281 5753   4.204   6.506   2.439  0.5345 -0.3932  0.0023
   17MOL   C282 5754   4.412   6.263   2.314  0.9104 -0.0252 -0.2600
   17MOL   H283 5755   4.311   6.256   2.506 -2.1473 -2.4262  0.7139
   17MOL   H284 5756   4.077   6.282   2.215  1.4341 -0.2698  1.3649
   17MOL   H285 5757   3.928   6.459   2.162  1.4505  0.1596 -0.6447
   17MOL   H286 5758   3.939   6.780   2.331  1.4953 -1.3191  1.4976
   17MOL   H287 5759   4.116   6.701   2.472  0.5116 -1.1441  0.3487
   17MOL   H288 5760   4.278   6.536   2.511 -1.1484  0.5962  1.3538
   17MOL   H289 5761   4.402   6.190   2.234 -1.2229  0.1998 -0.2284
   17MOL   H290 5762   4.408   6.352   2.251  1.6866 -0.8214 -1.4345
   17MOL   C291 5763   4.539   6.230   2.398 -0.4767 -0.8782 -0.2949
   17MOL   C292 5764   4.552   6.332   2.508 -0.4065 -0.7261 -0.3687
   17MOL   C293 5765   4.558   6.470   2.482  0.5560 -0.3996 -0.2756
   17MOL   C294 5766   4.555   6.563   2.587  0.4733 -0.0796  0.1255
   17MOL   C295 5767   4.567   6.511   2.716 -0.0432 -0.1368  0.3249
   17MOL   O296 5768   4.573   6.606   2.812  0.1747  0.3519  0.3057
   17MOL   C297 5769   4.569   6.374   2.743  0.4457 -0.2327  0.2993
   17MOL   C298 5770   4.557   6.282   2.642 -0.6575  0.4345  0.7344
   17MOL   C299 5771   4.665   6.233   2.308 -0.5642  0.4769 -1.0941
   17MOL   H300 5772   4.530   6.128   2.435 -0.2545 -0.4949  0.8231
   17MOL   H301 5773   4.540   6.498   2.380  0.7075  0.7366  0.0013
   17MOL   H302 5774   4.549   6.669   2.566  0.1172 -0.2034 -0.4420
   17MOL   H303 5775   4.523   6.583   2.889  0.0886  0.2739  0.2254
   17MOL   H304 5776   4.575   6.332   2.842  1.8651 -1.6860 -0.3837
   17MOL   H305 5777   4.555   6.174   2.653 -1.3647  0.3947  0.2554
   17MOL   H306 5778   4.755   6.253   2.366 -0.1468 -2.7209 -0.5669
   17MOL   H307 5779   4.662   6.331   2.258  0.3223  0.4451 -1.2128
   17MOL   C308 5780   4.692   6.123   2.204 -0.4691 -0.5442 -0.4179
   17MOL   C309 5781   4.677   5.982   2.253 -0.0340  0.1132 -0.1600
   17MOL   C310 5782   4.756   5.947   2.361 -0.2543  0.1768 -0.1743
   17MOL   C311 5783   4.760   5.809   2.406  0.3389 -0.1126 -0.2370
   17MOL   C312 5784   4.680   5.711   2.348  0.2644  0.4100  0.2449
   17MOL   O313 5785   4.687   5.582   2.387 -0.3472 -0.2170  0.0301
   17MOL   C314 5786   4.590   5.749   2.249  0.0819  0.8791  0.1226
   17MOL   C315 5787   4.586   5.886   2.197 -0.1298  0.2042 -0.2459
   17MOL   C316 5788   4.832   6.148   2.136 -0.1601  0.7548 -0.0232
   17MOL   H317 5789   4.612   6.130   2.130 -1.3329 -1.5362  0.3925
   17MOL   H318 5790   4.821   6.015   2.414 -0.7679  1.4652 -1.1913
   17MOL   H319 5791   4.821   5.781   2.490 -1.5137 -1.4951  0.6882
   17MOL   H320 5792   4.734   5.550   2.463  0.4255 -0.8156 -0.6742
   17MOL   H321 5793   4.517   5.681   2.207  2.0287 -0.1299 -1.7604
   17MOL   H322 5794   4.524   5.915   2.113 -1.0195  0.2409  0.4241
   17MOL   H323 5795   4.840   6.064   2.067  3.7431 -0.0804  1.3263
   17MOL   H324 5796   4.913   6.133   2.207  0.4458  0.3801 -0.8011
   17MOL   C325 5797   4.845   6.278   2.040 -0.1558  1.5363 -0.7477
   17MOL   C326 5798   4.718   6.320   1.969 -0.5510 -0.3662 -0.2916
   17MOL   C327 5799   4.663   6.446   1.997  0.3705 -0.5679  0.4006
   17MOL   C328 5800   4.551   6.490   1.925  0.0869 -0.1299  0.6815
   17MOL   C329 5801   4.497   6.410   1.824  0.7058  0.0539  0.3389
   17MOL   O330 5802   4.396   6.461   1.743 -0.5098  0.1810  0.0815
   17MOL   C331 5803   4.552   6.279   1.798  0.0484 -0.3342 -0.2261
   17MOL   C332 5804   4.662   6.237   1.874 -0.3761 -0.1135 -0.6178
   17MOL   C333 5805   4.959   6.277   1.942  0.0233  0.4752 -0.2659
   17MOL   H334 5806   4.869   6.365   2.101  0.2264  0.3949  0.7628
   17MOL   H335 5807   4.686   6.515   2.078 -2.8446  3.6459 -2.0829
   17MOL   H336 5808   4.511   6.588   1.945 -0.0205 -0.0981  0.3194
   17MOL   H337 5809   4.381   6.553   1.756 -0.7152  0.1091  0.3636
   17MOL   H338 5810   4.512   6.217   1.719  2.1816  0.8043 -2.2665
   17MOL   H339 5811   4.700   6.136   1.868 -0.2228 -0.1178  0.4077
   17MOL   H340 5812   5.036   6.213   1.985 -0.3328 -1.1633 -1.9569
   17MOL   H341 5813   4.999   6.375   1.916  0.0210  0.4678 -0.2954
   17MOL   H342 5814   4.939   6.221   1.850  0.4659 -0.3076  0.1090
   18MOL     C1 5815   3.915   1.805   5.159 -0.1576 -0.8616  0.6987
   18MOL     C2 5816   3.795   1.718   5.195  0.2791  0.1007 -0.1802
   18MOL     C3 5817   3.671   1.777   5.214 -0.3420  0.2745  0.0889
   18MOL     C4 5818   3.560   1.702   5.259 -0.3317 -0.2097  0.0867
   18MOL     C5 5819   3.568   1.566   5.269  0.1344 -0.7894 -0.0397
   18MOL     O6 5820   3.458   1.485   5.309  0.0447 -0.1535 -0.1226
   18MOL     C7 5821   3.691   1.501   5.248  0.3244 -0.5776 -0.3203
   18MOL     C8 5822   3.802   1.577   5.212 -0.1724 -0.0078 -0.3729
   18MOL     C9 5823   3.954   1.800   5.013  0.0691 -0.3642  0.0995
   18MOL    H10 5824   3.901   1.911   5.180 -0.9931 -1.0219  0.9720
   18MOL    H11 5825   3.665   1.884   5.220 -0.7439  0.2153  0.8899
   18MOL    H12 5826   3.467   1.751   5.286  0.2051  0.9254 -0.1019
   18MOL    H13 5827   3.389   1.545   5.334  1.0250 -0.3621  3.3339
   18MOL    H14 5828   3.694   1.393   5.250 -0.4864 -0.5883  1.4512
   18MOL    H15 5829   3.896   1.528   5.188 -1.6451 -3.0376 -0.2439
   18MOL    H16 5830   3.874   1.842   4.952  0.2414 -0.3882 -0.1449
   18MOL    H17 5831   3.969   1.698   4.979  3.0105 -0.2288  0.9039
   18MOL    H18 5832   3.988   1.775   5.233  0.0730  1.4278  1.4449
   18MOL    C19 5833   4.088   1.866   4.971 -0.1592  0.1220  0.2285
   18MOL    C20 5834   4.102   1.915   4.824 -0.4753 -0.4477 -0.5012
   18MOL    C21 5835   4.046   1.833   4.723  0.0122 -0.0048 -0.5008
   18MOL    C22 5836   4.061   1.868   4.586 -0.8430 -0.2553  0.1419
   18MOL    C23 5837   4.125   1.989   4.552  0.4112  0.4219  0.1154
   18MOL    O24 5838   4.122   2.033   4.426  0.4846  0.2247  0.3640
   18MOL    C25 5839   4.178   2.068   4.655  0.8500 -0.2575  0.7669
   18MOL    C26 5840   4.165   2.037   4.790 -0.3222  0.6315 -0.6477
   18MOL    C27 5841   4.222   1.805   5.020  0.3756  0.5833 -0.5141
   18MOL    H28 5842   4.092   1.963   5.021  2.5725  0.3653 -0.3737
   18MOL    H29 5843   3.988   1.747   4.753  0.1566  0.5999  1.6188
   18MOL    H30 5844   4.021   1.800   4.512 -1.8331  1.2483 -0.7274
   18MOL    H31 5845   4.131   1.964   4.362 -1.2151  1.7437 -1.6034
   18MOL    H32 5846   4.229   2.161   4.636  0.2527 -0.0812 -0.0047
   18MOL    H33 5847   4.208   2.104   4.863 -1.0734 -1.7406  2.0507
   18MOL    H34 5848   4.296   1.810   4.940 -0.5040  3.1938 -1.2007
   18MOL    H35 5849   4.208   1.699   5.042 -1.0337  0.6231 -1.1604
   18MOL    C36 5850   4.283   1.888   5.144 -0.2843 -0.0445  0.1684
   18MOL    C37 5851   4.350   2.024   5.103  0.0616 -0.1028 -0.2208
   18MOL    C38 5852   4.466   2.042   5.027 -0.0910  0.0737 -0.2113
   18MOL    C39 5853   4.510   2.169   4.995  0.7568 -0.2279 -0.1941
   18MOL    C40 5854   4.434   2.280   5.039 -0.0660 -1.1003  0.0124
   18MOL    O41 5855   4.476   2.404   5.018  0.1400  0.3061  0.0607
   18MOL    C42 5856   4.323   2.264   5.122 -0.1566 -0.6709  0.8156
   18MOL    C43 5857   4.279   2.136   5.153  0.5669  0.0978  0.0752
   18MOL    C44 5858   4.371   1.798   5.232  0.0527  0.2788 -0.0724
   18MOL    H45 5859   4.201   1.909   5.212  1.1930  2.4229  1.2542
   18MOL    H46 5860   4.512   1.950   4.992 -0.5078  0.0887 -0.8211
   18MOL    H47 5861   4.599   2.191   4.938 -0.7804 -0.4940 -2.7522
   18MOL    H48 5862   4.422   2.471   5.055  0.5378  0.1068  1.0301
   18MOL    H49 5863   4.270   2.349   5.163 -1.7595 -0.8237 -0.9231
   18MOL    H50 5864   4.184   2.132   5.204 -0.0676 -1.0797 -1.1368
   18MOL    H51 5865   4.373   1.694   5.200  0.2215  1.3794 -3.9514
   18MOL    H52 5866   4.472   1.832   5.211  0.7005 -2.8423 -2.3724
   18MOL    C53 5867   4.350   1.809   5.389  0.0105 -0.0313 -0.2165
   18MOL    C54 5868   4.230   1.739   5.441  0.7800 -0.5037 -0.0044
   18MOL    C55 5869   4.166   1.784   5.555 -0.3414  0.3381 -0.0762
   18MOL    C56 5870   4.048   1.727   5.604 -0.0277 -0.6241 -1.0707
   18MOL    C57 5871   3.998   1.621   5.537 -0.7860  0.2788  0.5115
   18MOL    O58 5872   3.884   1.565   5.583  0.1436  0.3571 -0.1470
   18MOL    C59 5873   4.058   1.571   5.421 -0.0199  0.8481 -0.2963
   18MOL    C60 5874   4.177   1.626   5.377 -0.2648  0.1299 -0.3413
   18MOL    C61 5875   4.472   1.770   5.472  0.2215 -0.4363  0.0569
   18MOL    H62 5876   4.328   1.912   5.416  0.8578 -0.4012  1.9438
   18MOL    H63 5877   4.200   1.877   5.600 -0.1274  0.0057  0.4497
   18MOL    H64 5878   3.997   1.758   5.694  1.3725 -2.9528  0.5834
   18MOL    H65 5879   3.852   1.511   5.512  2.1181  1.0024 -1.5684
   18MOL    H66 5880   4.015   1.480   5.382 -1.6755  0.7274  1.7346
   18MOL    H67 5881   4.215   1.577   5.288 -0.2102  0.4650 -0.5001
   18MOL    H68 5882   4.526   1.682   5.437  1.0001 -0.4113  1.1418
   18MOL    H69 5883   4.430   1.743   5.569 -0.7563 -0.0366 -0.2495
   18MOL    C70 5884   4.578   1.880   5.493  0.6627  0.2034 -0.5838
   18MOL    C71 5885   4.704   1.814   5.540  0.0875 -0.3856  0.6500
   18MOL    C72 5886   4.724   1.754   5.663  0.1060  0.4038  0.2071
   18MOL    C73 5887   4.852   1.698   5.700 -0.2223 -0.0959  0.2603
   18MOL    C74 5888   4.948   1.680   5.596  0.7292 -0.2219 -0.4278
   18MOL    O75 5889   5.066   1.618   5.631 -0.4531 -0.1760 -0.0533
   18MOL    C76 5890   4.928   1.738   5.467  0.0398 -1.5719  0.1679
   18MOL    C77 5891   4.808   1.808   5.442 -0.1440 -0.2535  0.1723
   18MOL    C78 5892   4.517   1.991   5.584 -0.0165 -0.9583 -0.2639
   18MOL    H79 5893   4.591   1.917   5.392  1.9927  0.1178 -0.4622
   18MOL    H80 5894   4.642   1.751   5.733 -0.5604 -0.4970 -0.6096
   18MOL    H81 5895   4.873   1.651   5.796 -0.9865 -0.9347  0.0172
   18MOL    H82 5896   5.125   1.607   5.558 -0.6982  3.7377 -0.9594
   18MOL    H83 5897   5.009   1.729   5.396  0.7299 -1.2502  0.9039
   18MOL    H84 5898   4.788   1.851   5.344  1.2441  0.4859  0.1858
   18MOL    H85 5899   4.567   1.981   5.681  0.8485 -0.2345 -0.6196
   18MOL    H86 5900   4.418   1.966   5.621 -0.3156  0.2320 -0.2249
   18MOL    C87 5901   4.492   2.134   5.528  0.0407  0.7596 -0.1284
   18MOL    C88 5902   4.619   2.199   5.465 -0.1338  0.3775 -1.3447
   18MOL    C89 5903   4.633   2.198   5.326  0.7791 -0.4888  0.1425
   18MOL    C90 5904   4.754   2.241   5.273  0.1899  0.7758 -0.5876
   18MOL    C91 5905   4.859   2.279   5.358  0.5134  0.5150 -0.3851
   18MOL    O92 5906   4.975   2.316   5.305  0.0993 -0.3045  0.0805
   18MOL    C93 5907   4.844   2.275   5.495  0.6829  0.2926  0.6043
   18MOL    C94 5908   4.722   2.234   5.556  0.5654  0.4007 -0.2297
   18MOL    C95 5909   4.432   2.232   5.633  0.2032  0.4605 -0.1149
   18MOL    H96 5910   4.420   2.117   5.447 -0.3216 -0.1255  0.3782
   18MOL    H97 5911   4.556   2.169   5.255  1.0241  2.2024 -1.3118
   18MOL    H98 5912   4.775   2.241   5.168 -0.9786  2.8877 -0.8538
   18MOL    H99 5913   5.047   2.299   5.363  0.7377  0.9213 -0.3181
   18MOL   H100 5914   4.926   2.293   5.563  0.1447  0.4629  1.2073
   18MOL   H101 5915   4.709   2.240   5.663 -1.0806 -1.9758 -0.2512
   18MOL   H102 5916   4.488   2.232   5.726 -0.8269  2.5469  0.5365
   18MOL   H103 5917   4.446   2.333   5.595  2.8680 -1.1394 -3.7548
   18MOL   C104 5918   4.278   2.205   5.659 -0.7519  0.2714  0.0460
   18MOL   C105 5919   4.190   2.249   5.538 -0.8678 -0.4141 -0.6437
   18MOL   C106 5920   4.092   2.159   5.487 -0.8358  0.1178 -1.1101
   18MOL   C107 5921   4.000   2.201   5.392  0.2656 -0.3954  0.6840
   18MOL   C108 5922   4.009   2.335   5.333  0.1057 -0.0432  0.2660
   18MOL   O109 5923   3.943   2.370   5.215  0.0683 -0.1405  0.3346
   18MOL   C110 5924   4.101   2.426   5.393 -0.2239  0.0850  0.1414
   18MOL   C111 5925   4.185   2.387   5.495  0.0371 -0.9908  0.1730
   18MOL   C112 5926   4.227   2.282   5.784 -0.5391  0.1170 -0.1148
   18MOL   H113 5927   4.255   2.099   5.672  1.4823 -0.7256 -3.5178
   18MOL   H114 5928   4.082   2.057   5.523  0.0573 -0.3958 -2.2733
   18MOL   H115 5929   3.925   2.135   5.351 -1.0636  0.4152  1.7469
   18MOL   H116 5930   3.941   2.465   5.209  0.2284 -0.0484  1.6428
   18MOL   H117 5931   4.118   2.527   5.358  1.8158 -0.1520  0.3967
   18MOL   H118 5932   4.257   2.458   5.533 -0.0023  0.0965 -1.7280
   18MOL   H119 5933   4.224   2.388   5.760  0.9315  0.1361 -0.2368
   18MOL   H120 5934   4.310   2.284   5.854  0.0639 -0.1105 -0.8271
   18MOL   C121 5935   4.095   2.210   5.845  0.6178  0.3364 -0.0099
   18MOL   C122 5936   4.107   2.184   5.996 -1.0009  0.1006 -1.6138
   18MOL   C123 5937   4.143   2.060   6.047  0.2919  0.0784  0.0706
   18MOL   C124 5938   4.159   2.045   6.184  0.0587 -0.1243  0.1907
   18MOL   C125 5939   4.142   2.159   6.270 -0.3303 -0.5944 -0.4303
   18MOL   O126 5940   4.156   2.144   6.406 -0.4598 -0.1362 -0.1447
   18MOL   C127 5941   4.108   2.284   6.217  0.1570 -0.0365  0.4974
   18MOL   C128 5942   4.095   2.295   6.078  0.5317 -0.3076  0.4852
   18MOL   C129 5943   3.962   2.294   5.808  0.0631 -0.2342  0.4727
   18MOL   H130 5944   4.092   2.114   5.794 -0.2407  0.9866 -1.2082
   18MOL   H131 5945   4.136   1.984   5.971 -1.2876 -0.4259  0.7104
   18MOL   H132 5946   4.184   1.947   6.220 -0.9304 -0.7180 -0.7057
   18MOL   H133 5947   4.168   2.223   6.456 -2.4827 -1.2789  2.2946
   18MOL   H134 5948   4.076   2.367   6.277 -1.2715 -0.1206 -0.1125
   18MOL   H135 5949   4.082   2.395   6.038  1.8745  0.4063  1.7803
   18MOL   H136 5950   3.951   2.320   5.703 -0.6511  0.9479  0.8242
   18MOL   H137 5951   3.952   2.388   5.862  1.4138 -0.2370  0.7381
   18MOL   C138 5952   3.830   2.229   5.863 -0.0803 -0.3112 -0.6863
   18MOL   C139 5953   3.798   2.100   5.784 -0.6618 -0.1601  0.5549
   18MOL   C140 5954   3.774   1.978   5.853  0.1602 -0.4892  0.8424
   18MOL   C141 5955   3.736   1.863   5.778  0.6722  0.1299 -0.0124
   18MOL   C142 5956   3.708   1.869   5.643 -0.8586 -0.1016 -0.1292
   18MOL   O143 5957   3.648   1.763   5.574 -0.6636 -1.1761 -0.5358
   18MOL   C144 5958   3.717   1.992   5.574 -0.3219  0.4940 -0.4267
   18MOL   C145 5959   3.773   2.099   5.641 -0.4040 -0.4726 -0.3328
   18MOL   C146 5960   3.710   2.326   5.856  0.1080  0.1937  0.7464
   18MOL   H147 5961   3.851   2.192   5.963 -0.7919  0.5517 -0.2151
   18MOL   H148 5962   3.789   1.983   5.960 -0.3126  0.6793  0.8615
   18MOL   H149 5963   3.729   1.774   5.840 -1.3926 -0.6111 -1.2710
   18MOL   H150 5964   3.711   1.692   5.578  0.2631 -0.3799 -0.7713
   18MOL   H151 5965   3.687   1.997   5.470  1.4711  0.1296 -0.9913
   18MOL   H152 5966   3.790   2.193   5.589  3.3785 -1.2109 -0.6181
   18MOL   H153 5967   3.615   2.273   5.862  1.3037 -2.0506  0.3141
   18MOL   H154 5968   3.711   2.371   5.757  2.8132 -4.5534 -1.5391
   18MOL   C155 5969   3.707   2.453   5.949  0.3827 -0.1996  0.1007
   18MOL   C156 5970   3.738   2.426   6.095 -0.8604 -0.4698  0.1887
   18MOL   C157 5971   3.718   2.303   6.165  1.2499 -0.8115 -0.0636
   18MOL   C158 5972   3.749   2.296   6.300 -0.0681  0.3004 -0.1309
   18MOL   C159 5973   3.797   2.412   6.363  0.5724  0.1228 -0.3165
   18MOL   O160 5974   3.827   2.410   6.492  0.3658 -0.5543 -0.2256
   18MOL   C161 5975   3.807   2.533   6.295  0.8445 -0.6676  0.1227
   18MOL   C162 5976   3.776   2.542   6.163 -0.2499 -0.1405 -0.4278
   18MOL   C163 5977   3.565   2.520   5.930 -1.0357 -1.0265  0.1199
   18MOL   H164 5978   3.779   2.528   5.914  0.8760 -0.4557  0.5628
   18MOL   H165 5979   3.678   2.216   6.116 -1.9516  0.4385  0.2118
   18MOL   H166 5980   3.744   2.202   6.352 -0.8502 -0.9226 -2.3767
   18MOL   H167 5981   3.795   2.339   6.546  0.4108  0.5233  1.2571
   18MOL   H168 5982   3.835   2.625   6.345 -0.9665 -0.3227  0.5714
   18MOL   H169 5983   3.789   2.634   6.109  3.1125 -0.4030 -0.1231
   18MOL   H170 5984   3.552   2.600   6.003 -2.1195  0.9193 -2.1149
   18MOL   H171 5985   3.491   2.445   5.957 -2.1019  0.4313  1.2879
   18MOL   C172 5986   3.532   2.566   5.784 -0.1860  0.2757 -0.2907
   18MOL   C173 5987   3.636   2.660   5.732 -0.3243  0.0814 -0.1380
   18MOL   C174 5988   3.641   2.793   5.774 -0.7755  0.1440  0.0711
   18MOL   C175 5989   3.743   2.883   5.739  0.8069 -0.3369 -0.0259
   18MOL   C176 5990   3.843   2.832   5.654  0.3763  0.5908 -0.5891
   18MOL   O177 5991   3.940   2.929   5.624 -0.0030 -0.0988  0.5686
   18MOL   C178 5992   3.847   2.701   5.608 -0.2997  0.2371  0.0246
   18MOL   C179 5993   3.744   2.616   5.648  0.5383  0.3665  0.6694
   18MOL   C180 5994   3.396   2.631   5.797  0.5404 -0.3516  0.5809
   18MOL   H181 5995   3.529   2.472   5.729 -0.5406  0.7727 -1.1118
   18MOL   H182 5996   3.570   2.833   5.846  0.0094  0.0444  0.9016
   18MOL   H183 5997   3.745   2.987   5.766  3.5101  0.1294 -1.8681
   18MOL   H184 5998   3.932   3.001   5.684  1.4327  0.9658 -0.4976
   18MOL   H185 5999   3.927   2.662   5.546 -1.6381 -0.3561 -1.3672
   18MOL   H186 6000   3.742   2.519   5.600  2.2202 -0.5268  2.3591
   18MOL   H187 6001   3.376   2.712   5.726 -0.7209 -1.4383 -0.3351
   18MOL   H188 6002   3.402   2.693   5.887  0.5477  1.4038 -0.6052
   18MOL   C189 6003   3.272   2.540   5.795 -0.5798 -0.3107 -0.0722
   18MOL   C190 6004   3.163   2.588   5.897  0.0880  0.9017 -0.1299
   18MOL   C191 6005   3.201   2.577   6.034  1.3197  0.3253  0.1753
   18MOL   C192 6006   3.105   2.618   6.133  0.0792  0.4443  0.5711
   18MOL   C193 6007   2.980   2.674   6.094 -0.3186  0.2085  0.6134
   18MOL   O194 6008   2.903   2.730   6.193  0.4857  0.6788  0.3308
   18MOL   C195 6009   2.939   2.677   5.958  0.2054 -0.0904  0.6724
   18MOL   C196 6010   3.035   2.633   5.863 -0.1087  0.3958  0.3912
   18MOL   C197 6011   3.226   2.512   5.656 -0.4638  0.3580 -0.5399
   18MOL   H198 6012   3.296   2.441   5.834  2.3195  0.1195 -0.6463
   18MOL   H199 6013   3.299   2.540   6.060  1.5395 -1.3713 -2.8359
   18MOL   H200 6014   3.138   2.619   6.236  3.6674  0.2455 -0.4936
   18MOL   H201 6015   2.901   2.685   6.276  1.1958 -1.5914 -0.8326
   18MOL   H202 6016   2.839   2.709   5.931  1.6532  3.0801 -1.1345
   18MOL   H203 6017   3.006   2.641   5.759 -0.6007  0.6680  0.5441
   18MOL   H204 6018   3.316   2.502   5.595  0.5145  0.0937  0.9182
   18MOL   H205 6019   3.181   2.600   5.610  1.4221  1.2568 -0.7319
   18MOL   C206 6020   3.141   2.387   5.642  0.1792 -0.4972  0.3692
   18MOL   C207 6021   3.217   2.263   5.689  0.6512  0.3894  0.3572
   18MOL   C208 6022   3.334   2.220   5.629  0.8634 -0.5981  0.1133
   18MOL   C209 6023   3.405   2.105   5.681  0.4318  0.4630 -0.0322
   18MOL   C210 6024   3.357   2.045   5.801  0.2738 -0.0513 -0.4470
   18MOL   O211 6025   3.436   1.952   5.866  0.3356  0.3151 -0.0636
   18MOL   C212 6026   3.232   2.073   5.852 -0.3565  0.1431  0.0122
   18MOL   C213 6027   3.168   2.189   5.800  0.0762  0.6429 -0.7718
   18MOL   C214 6028   3.100   2.374   5.501 -0.3788  0.6817 -0.6268
   18MOL   H215 6029   3.052   2.400   5.704 -0.2065 -1.7906  0.0863
   18MOL   H216 6030   3.384   2.263   5.543 -1.2406 -0.3406 -1.0170
   18MOL   H217 6031   3.496   2.067   5.635 -0.5667 -0.8458 -0.9463
   18MOL   H218 6032   3.520   1.945   5.824 -0.0972 -5.2322 -0.3633
   18MOL   H219 6033   3.195   2.028   5.943  0.4354  0.3462  0.4453
   18MOL   H220 6034   3.072   2.217   5.840 -0.9275  0.9336 -3.2986
   18MOL   H221 6035   3.061   2.272   5.495 -1.2798  1.0636 -1.4482
   18MOL   H222 6036   3.186   2.387   5.434 -0.4171  0.3930 -0.7312
   18MOL   C223 6037   2.986   2.472   5.452 -0.1284  0.2134 -0.4994
   18MOL   C224 6038   2.856   2.456   5.531  0.4808  0.1779 -0.6288
   18MOL   C225 6039   2.789   2.332   5.537 -0.1179  0.6694 -0.2901
   18MOL   C226 6040   2.666   2.326   5.604 -0.3318 -0.3626 -0.2784
   18MOL   C227 6041   2.610   2.443   5.661 -0.1367 -0.2718 -0.1525
   18MOL   O228 6042   2.493   2.430   5.737  0.1431 -1.0418  0.0108
   18MOL   C229 6043   2.680   2.567   5.669 -0.6639 -1.1895 -0.1283
   18MOL   C230 6044   2.800   2.572   5.590 -0.3389 -0.2228  0.3390
   18MOL   C231 6045   2.962   2.450   5.302  0.1131 -0.0647  0.3763
   18MOL   H232 6046   3.015   2.577   5.456  0.2464  0.0430  1.5383
   18MOL   H233 6047   2.824   2.242   5.491  0.7663 -0.1480  1.9182
   18MOL   H234 6048   2.604   2.238   5.602 -0.7179 -0.0601 -2.0356
   18MOL   H235 6049   2.449   2.507   5.769  0.7700 -1.1908  1.2357
   18MOL   H236 6050   2.633   2.654   5.713  0.0707 -0.1984 -1.2822
   18MOL   H237 6051   2.847   2.667   5.571  1.0681 -1.1299 -0.8620
   18MOL   H238 6052   2.955   2.342   5.289 -0.7623  0.0192  0.1350
   18MOL   H239 6053   2.868   2.491   5.267 -0.0721 -0.1526  0.7666
   18MOL   C240 6054   3.073   2.500   5.206  0.1478  0.1867 -0.0589
   18MOL   C241 6055   3.110   2.384   5.107  0.5474 -0.2184 -0.5211
   18MOL   C242 6056   3.053   2.379   4.980 -0.2929  0.0264 -0.3963
   18MOL   C243 6057   3.098   2.285   4.885  0.4795 -0.5532 -0.5490
   18MOL   C244 6058   3.194   2.185   4.916  0.6091 -0.6558  0.1534
   18MOL   O245 6059   3.235   2.100   4.818  0.0006  0.2274  0.2378
   18MOL   C246 6060   3.245   2.185   5.047  0.4565  0.2912  0.8311
   18MOL   C247 6061   3.208   2.283   5.139  0.3481 -0.1768 -0.5910
   18MOL   C248 6062   3.022   2.627   5.146  0.4343  0.6509 -0.0005
   18MOL   H249 6063   3.164   2.507   5.266 -0.8088 -0.9977  1.5955
   18MOL   H250 6064   2.973   2.445   4.951 -1.2290 -0.0782  1.8720
   18MOL   H251 6065   3.060   2.298   4.785 -0.0645  0.0144 -0.2792
   18MOL   H252 6066   3.194   2.125   4.737 -0.8285  1.8913  1.1325
   18MOL   H253 6067   3.313   2.104   5.069  0.8870  0.3320 -0.3122
   18MOL   H254 6068   3.272   2.286   5.226  0.0121 -1.2707 -0.3042
   18MOL   H255 6069   2.942   2.622   5.071  1.1761  2.5018 -0.9598
   18MOL   H256 6070   2.974   2.678   5.229  0.4609  0.3502  0.1965
   18MOL   C257 6071   3.129   2.717   5.075  0.0560 -0.4396 -0.1623
   18MOL   C258 6072   3.071   2.798   4.956  0.3518 -0.3286  0.1415
   18MOL   C259 6073   3.145   2.800   4.837 -0.7818  0.5574  0.0775
   18MOL   C260 6074   3.101   2.879   4.727 -0.4010 -1.0739 -0.4574
   18MOL   C261 6075   2.988   2.961   4.745  0.2058 -0.3600  0.5121
   18MOL   O262 6076   2.941   3.037   4.637 -0.3074  0.7067 -0.5636
   18MOL   C263 6077   2.915   2.962   4.867  0.2574  0.1449  0.3265
   18MOL   C264 6078   2.956   2.877   4.970  0.2071  0.1799 -0.1728
   18MOL   C265 6079   3.196   2.819   5.180  0.2247  0.2624  0.6745
   18MOL   H266 6080   3.201   2.648   5.031  0.0688  0.1729 -1.1245
   18MOL   H267 6081   3.241   2.751   4.830 -0.5830  0.5603  2.3498
   18MOL   H268 6082   3.150   2.877   4.631 -2.2216  0.3906 -1.4472
   18MOL   H269 6083   2.878   3.101   4.668  0.1065  0.1000  1.6342
   18MOL   H270 6084   2.823   3.016   4.856  0.3079 -0.1444 -1.8257
   18MOL   H271 6085   2.901   2.877   5.063  0.3580  3.1316 -0.0113
   18MOL   H272 6086   3.164   2.792   5.280  1.4071 -1.6928  0.5316
   18MOL   H273 6087   3.155   2.921   5.182 -1.0589 -0.2427  0.9820
   18MOL   C274 6088   3.348   2.827   5.168  0.0921  0.7382 -0.1819
   18MOL   C275 6089   3.412   2.691   5.222  0.2047  0.0467  0.2572
   18MOL   C276 6090   3.436   2.585   5.134  0.5731 -0.4128 -0.6266
   18MOL   C277 6091   3.489   2.461   5.169  0.5676  0.5315 -0.1261
   18MOL   C278 6092   3.507   2.437   5.309  0.0107 -0.5375 -0.8404
   18MOL   O279 6093   3.548   2.319   5.353  0.1274  0.0426  0.2557
   18MOL   C280 6094   3.497   2.547   5.396  0.4201 -0.9453 -0.5969
   18MOL   C281 6095   3.449   2.674   5.358  0.0930 -0.0726  0.0111
   18MOL   C282 6096   3.411   2.950   5.230 -0.0586  0.2136  0.6913
   18MOL   H283 6097   3.372   2.828   5.062 -2.1729  3.4374 -0.7235
   18MOL   H284 6098   3.423   2.607   5.029 -0.3687  0.4928 -0.3344
   18MOL   H285 6099   3.493   2.383   5.094  0.3000 -0.3820  0.8124
   18MOL   H286 6100   3.608   2.272   5.298  0.1947  1.0980 -0.5914
   18MOL   H287 6101   3.531   2.539   5.499 -1.2271 -0.1449  0.0332
   18MOL   H288 6102   3.434   2.755   5.428  1.2536 -1.0932  1.4615
   18MOL   H289 6103   3.377   2.975   5.331  1.1262  2.0551  0.6522
   18MOL   H290 6104   3.518   2.934   5.244 -0.3393 -0.7948  1.7526
   18MOL   C291 6105   3.396   3.067   5.136 -0.3751  0.3026 -0.0337
   18MOL   C292 6106   3.498   3.053   5.021  0.3490 -0.5936  0.5898
   18MOL   C293 6107   3.465   3.077   4.883  0.5283  0.9419  0.5389
   18MOL   C294 6108   3.563   3.065   4.779  0.1226 -0.5678  0.0739
   18MOL   C295 6109   3.698   3.042   4.822  0.2531 -0.3541  0.9452
   18MOL   O296 6110   3.794   3.034   4.723 -0.3885  0.2806 -0.2623
   18MOL   C297 6111   3.726   3.036   4.960  0.3299 -0.1845  0.5110
   18MOL   C298 6112   3.630   3.036   5.061  0.3617  0.4027 -0.3653
   18MOL   C299 6113   3.419   3.206   5.204  0.5370 -0.0658  0.2571
   18MOL   H300 6114   3.300   3.066   5.083  1.1268 -1.8171 -2.8238
   18MOL   H301 6115   3.365   3.096   4.847  0.3751 -0.5159  0.1434
   18MOL   H302 6116   3.544   3.061   4.673 -0.7986  1.2532  0.1609
   18MOL   H303 6117   3.759   2.995   4.644  0.2956 -1.6972  0.3818
   18MOL   H304 6118   3.832   3.036   4.981  0.4430  1.8827  0.0615
   18MOL   H305 6119   3.664   3.051   5.162  1.2976 -0.4331 -0.5502
   18MOL   H306 6120   3.441   3.271   5.120 -0.3552 -0.4656 -0.2891
   18MOL   H307 6121   3.510   3.205   5.265  0.7344 -0.1501 -0.0412
   18MOL   C308 6122   3.293   3.266   5.264  0.0080 -1.1137 -0.8288
   18MOL   C309 6123   3.164   3.259   5.191 -0.1842  0.2767 -0.1009
   18MOL   C310 6124   3.049   3.210   5.252 -0.5482 -1.0530 -0.4257
   18MOL   C311 6125   2.923   3.210   5.194 -0.4032  0.9180 -0.2550
   18MOL   C312 6126   2.907   3.263   5.067 -0.1632  0.1994 -0.7271
   18MOL   O313 6127   2.784   3.280   5.003 -0.1301  0.5350  0.0335
   18MOL   C314 6128   3.019   3.305   4.999  0.4455 -0.2655 -0.1377
   18MOL   C315 6129   3.153   3.301   5.054 -0.2438  0.1649 -0.4114
   18MOL   C316 6130   3.320   3.423   5.292  0.1895  0.7290 -0.2201
   18MOL   H317 6131   3.289   3.210   5.357  0.1290  1.7433  0.9405
   18MOL   H318 6132   3.055   3.176   5.354  0.1635  1.2828  0.3408
   18MOL   H319 6133   2.837   3.180   5.252 -0.8123  0.3425 -1.1439
   18MOL   H320 6134   2.718   3.231   5.050 -1.3514  1.5473 -0.6259
   18MOL   H321 6135   3.017   3.346   4.899 -1.6548  1.3247  0.5155
   18MOL   H322 6136   3.235   3.341   4.997  0.1766  0.8628  0.6464
   18MOL   H323 6137   3.233   3.488   5.281  0.5183  1.2106  0.0533
   18MOL   H324 6138   3.388   3.457   5.214 -1.0568  0.2843 -1.5312
   18MOL   C325 6139   3.375   3.462   5.432 -0.5344 -0.2435 -0.2715
   18MOL   C326 6140   3.497   3.385   5.486 -0.3995 -0.6568 -0.3537
   18MOL   C327 6141   3.620   3.449   5.469 -0.1138  0.0304 -0.1834
   18MOL   C328 6142   3.734   3.383   5.516  0.0144 -0.0006  0.6419
   18MOL   C329 6143   3.725   3.265   5.589  0.5917 -0.5124 -0.5131
   18MOL   O330 6144   3.831   3.216   5.663 -0.0071  0.0260 -0.0217
   18MOL   C331 6145   3.596   3.190   5.590  0.5911 -0.7354 -1.1827
   18MOL   C332 6146   3.482   3.255   5.540 -0.5376  0.2468 -0.2569
   18MOL   C333 6147   3.267   3.471   5.537  0.1817 -0.4489 -0.7400
   18MOL   H334 6148   3.412   3.562   5.412 -0.7714 -0.9408 -4.7049
   18MOL   H335 6149   3.637   3.536   5.408  0.7122  0.3248  0.4476
   18MOL   H336 6150   3.829   3.431   5.497 -0.4426  0.0928 -1.5627
   18MOL   H337 6151   3.911   3.265   5.673 -0.2425  0.7078 -1.3940
   18MOL   H338 6152   3.588   3.089   5.628 -0.6278 -0.9441 -1.9538
   18MOL   H339 6153   3.388   3.201   5.547  0.2976 -1.4746 -1.6224
   18MOL   H340 6154   3.202   3.385   5.554  0.6737 -0.4992  1.0752
   18MOL   H341 6155   3.194   3.552   5.525 -3.3047 -3.2416  0.6162
   18MOL   H342 6156   3.308   3.505   5.632 -1.4443 -2.0212  0.5686
   19MOL     C1 6157   5.694   2.801   2.766 -0.0287  0.2383 -0.0721
   19MOL     C2 6158   5.595   2.868   2.858 -0.1998  0.1705 -0.4231
   19MOL     C3 6159   5.622   2.890   2.994  0.4976  0.2484 -0.6396
   19MOL     C4 6160   5.521   2.940   3.076 -0.2547 -0.2821  0.2258
   19MOL     C5 6161   5.406   2.991   3.017 -0.3156 -0.3032 -0.2442
   19MOL     O6 6162   5.312   3.065   3.092 -0.0948 -0.2724  0.0851
   19MOL     C7 6163   5.380   2.974   2.880 -0.4253 -0.4005 -0.5214
   19MOL     C8 6164   5.479   2.918   2.797  0.5606 -0.0087 -0.6930
   19MOL     C9 6165   5.833   2.857   2.761  0.4395  0.2147  0.4988
   19MOL    H10 6166   5.692   2.692   2.762  1.1496  0.1858  0.4160
   19MOL    H11 6167   5.722   2.872   3.031 -0.1457 -3.0118 -0.3080
   19MOL    H12 6168   5.534   2.961   3.181  1.6891 -1.4558  0.2410
   19MOL    H13 6169   5.268   3.129   3.038 -0.3520  0.9487  1.7004
   19MOL    H14 6170   5.298   3.020   2.826 -1.2583 -0.2506  0.8322
   19MOL    H15 6171   5.459   2.904   2.692  1.3015  0.0156 -0.8429
   19MOL    H16 6172   5.883   2.804   2.680  0.8316  0.0616  0.8379
   19MOL    H17 6173   5.890   2.837   2.852  0.5798  1.3215  0.6565
   19MOL    H18 6174   5.659   2.822   2.665 -1.9399 -1.1559  0.2889
   19MOL    C19 6175   5.835   3.010   2.729 -0.0493 -0.1846  0.1211
   19MOL    C20 6176   5.796   3.102   2.847  0.1984  0.3981  0.2366
   19MOL    C21 6177   5.693   3.192   2.843  0.1795  0.2701  0.7026
   19MOL    C22 6178   5.647   3.250   2.964 -0.2156 -0.0817 -0.2554
   19MOL    C23 6179   5.719   3.238   3.080  0.6995 -0.1584 -0.4707
   19MOL    O24 6180   5.666   3.296   3.198  0.2522 -0.3250 -0.0463
   19MOL    C25 6181   5.837   3.161   3.087  0.3420 -0.5418  0.3535
   19MOL    C26 6182   5.877   3.091   2.968 -0.5776 -0.0881 -0.3105
   19MOL    C27 6183   5.779   3.060   2.589  0.1985 -0.7579 -0.3200
   19MOL    H28 6184   5.941   3.026   2.710 -0.7728  0.1806 -3.8461
   19MOL    H29 6185   5.631   3.196   2.754  0.0754 -1.1426  0.6946
   19MOL    H30 6186   5.553   3.303   2.969  1.8233  3.7279 -0.5680
   19MOL    H31 6187   5.650   3.232   3.265 -1.7860  0.6815  0.4861
   19MOL    H32 6188   5.886   3.144   3.182  1.8781 -0.1922 -0.3696
   19MOL    H33 6189   5.955   3.016   2.974 -0.8863 -0.3504  0.4785
   19MOL    H34 6190   5.800   3.166   2.576  1.3276 -0.6348  2.0686
   19MOL    H35 6191   5.672   3.042   2.588 -0.1204  1.0548 -0.6940
   19MOL    C36 6192   5.821   2.986   2.459  0.0299  0.4427 -0.6629
   19MOL    C37 6193   5.970   2.983   2.434  0.5214  0.1812  0.0355
   19MOL    C38 6194   6.042   3.091   2.384  0.3418 -0.1226 -0.6327
   19MOL    C39 6195   6.184   3.084   2.366 -0.5304  0.5845 -0.3482
   19MOL    C40 6196   6.256   2.963   2.387  0.0962 -0.5499  0.2527
   19MOL    O41 6197   6.397   2.952   2.371 -0.2257 -0.1090 -0.0780
   19MOL    C42 6198   6.181   2.853   2.429 -0.6694  0.1223 -0.0917
   19MOL    C43 6199   6.045   2.861   2.458  0.6643 -0.5810 -0.6619
   19MOL    C44 6200   5.731   3.038   2.343  0.3486 -0.0468 -0.2605
   19MOL    H45 6201   5.793   2.883   2.483  0.1738  0.8355  1.2910
   19MOL    H46 6202   6.003   3.188   2.359  0.4986 -0.2560 -1.4344
   19MOL    H47 6203   6.232   3.165   2.313  0.7005 -0.7238 -1.2896
   19MOL    H48 6204   6.415   2.859   2.368 -2.5996 -0.5895 -0.9838
   19MOL    H49 6205   6.219   2.755   2.454 -1.2122 -0.2260 -0.6353
   19MOL    H50 6206   5.994   2.776   2.501 -1.4547  2.0954  2.3739
   19MOL    H51 6207   5.626   3.018   2.364  0.7363 -0.3934  1.3937
   19MOL    H52 6208   5.745   3.145   2.355  0.5529 -0.2068  0.9296
   19MOL    C53 6209   5.769   3.007   2.201 -0.3521  0.7129  0.1009
   19MOL    C54 6210   5.765   2.855   2.177 -0.0976 -0.3025 -0.2015
   19MOL    C55 6211   5.870   2.783   2.122 -0.5111 -0.5095 -0.0764
   19MOL    C56 6212   5.871   2.649   2.086  0.3292  0.4475  0.2669
   19MOL    C57 6213   5.745   2.585   2.100  0.1755 -0.4407  0.0576
   19MOL    O58 6214   5.731   2.452   2.057  0.5677 -0.2968  0.3636
   19MOL    C59 6215   5.634   2.653   2.152  0.4162 -0.0926  0.3114
   19MOL    C60 6216   5.648   2.782   2.203  0.1459 -0.5910  0.5412
   19MOL    C61 6217   5.683   3.087   2.093 -0.7016 -0.1364  0.0548
   19MOL    H62 6218   5.870   3.043   2.187 -0.2083  0.1331 -0.3690
   19MOL    H63 6219   5.964   2.833   2.102 -1.6761  1.8873  0.2389
   19MOL    H64 6220   5.953   2.596   2.039 -0.7379  1.0443 -2.3753
   19MOL    H65 6221   5.808   2.414   2.016 -0.0930 -0.0187 -1.1909
   19MOL    H66 6222   5.539   2.606   2.170 -0.2978  0.7824 -1.1196
   19MOL    H67 6223   5.568   2.819   2.266 -0.0571  0.0401 -0.0795
   19MOL    H68 6224   5.639   3.172   2.144  1.9284  2.4040 -1.7328
   19MOL    H69 6225   5.603   3.017   2.070 -0.3326 -1.0877  1.5894
   19MOL    C70 6226   5.746   3.110   1.957 -0.4838  0.2220  0.7775
   19MOL    C71 6227   5.874   3.200   1.968 -0.2531  0.2028  0.1663
   19MOL    C72 6228   5.886   3.289   2.083  0.2507  0.2719 -0.3264
   19MOL    C73 6229   5.996   3.376   2.100 -0.3028  0.4650 -0.8617
   19MOL    C74 6230   6.108   3.363   2.017 -0.2610 -0.0580  0.4436
   19MOL    O75 6231   6.225   3.425   2.060 -0.1960 -0.1197 -0.1202
   19MOL    C76 6232   6.102   3.278   1.906 -0.0225  0.0427 -0.0778
   19MOL    C77 6233   5.988   3.195   1.878 -0.7121  0.1700  0.3243
   19MOL    C78 6234   5.642   3.179   1.860 -0.1369 -0.1410 -0.1517
   19MOL    H79 6235   5.769   3.008   1.923  1.1117  1.6476 -2.6653
   19MOL    H80 6236   5.799   3.308   2.144 -1.0148 -0.0326 -2.0053
   19MOL    H81 6237   6.000   3.446   2.181 -0.0128 -1.7785  1.1092
   19MOL    H82 6238   6.291   3.409   1.995 -1.2418  1.1112 -1.5129
   19MOL    H83 6239   6.188   3.275   1.841  0.4611 -0.2026  0.5708
   19MOL    H84 6240   6.007   3.123   1.800  3.9982  1.4032  0.1669
   19MOL    H85 6241   5.669   3.284   1.850  1.6122 -0.4119  1.4462
   19MOL    H86 6242   5.540   3.187   1.895 -0.5553  2.2238 -1.7778
   19MOL    C87 6243   5.640   3.113   1.722  0.2865  0.3354  0.2255
   19MOL    C88 6244   5.567   3.200   1.621 -0.8329 -0.9708  0.6647
   19MOL    C89 6245   5.636   3.249   1.504  0.4062 -0.4806  0.7652
   19MOL    C90 6246   5.578   3.338   1.416  0.1160 -0.6533  0.3741
   19MOL    C91 6247   5.450   3.389   1.441  0.3779 -0.0742  0.1193
   19MOL    O92 6248   5.401   3.495   1.370 -0.4929  0.1620 -0.1084
   19MOL    C93 6249   5.380   3.343   1.554  0.0158 -0.1949 -0.5263
   19MOL    C94 6250   5.437   3.257   1.646 -0.4149 -0.0475  0.4285
   19MOL    C95 6251   5.577   2.973   1.739 -0.0014  0.1887  0.0587
   19MOL    H96 6252   5.745   3.105   1.695  0.7604 -0.1865  2.1813
   19MOL    H97 6253   5.739   3.220   1.488  0.6003  0.5068  0.1669
   19MOL    H98 6254   5.637   3.377   1.334 -1.4091  0.5703 -0.1622
   19MOL    H99 6255   5.398   3.558   1.441  1.9146 -1.1672  1.2538
   19MOL   H100 6256   5.283   3.380   1.585  0.2988 -0.2773  0.4563
   19MOL   H101 6257   5.371   3.229   1.727  0.5439  0.7307  1.4859
   19MOL   H102 6258   5.576   2.938   1.842  5.2518  0.3310  0.3188
   19MOL   H103 6259   5.470   2.985   1.724 -0.0083 -0.5439 -0.5209
   19MOL   C104 6260   5.629   2.866   1.652  0.2562  0.6290  0.1736
   19MOL   C105 6261   5.536   2.743   1.657  0.1824  0.1539  0.3219
   19MOL   C106 6262   5.535   2.647   1.764 -0.0801 -0.0083  0.1889
   19MOL   C107 6263   5.454   2.535   1.768 -0.1363  0.0744  0.1744
   19MOL   C108 6264   5.366   2.515   1.661 -0.0291  0.0629  0.5116
   19MOL   O109 6265   5.294   2.398   1.663  0.2296 -0.4190  0.3955
   19MOL   C110 6266   5.364   2.601   1.552 -0.0873  0.2181  0.0665
   19MOL   C111 6267   5.450   2.714   1.547 -0.4540 -0.0636  0.0898
   19MOL   C112 6268   5.765   2.817   1.685  0.0696 -0.1733 -0.2527
   19MOL   H113 6269   5.627   2.907   1.551 -0.1229  0.0054 -0.0782
   19MOL   H114 6270   5.587   2.656   1.859 -2.7597  0.5230  1.6574
   19MOL   H115 6271   5.461   2.460   1.845  2.3109  1.6525  1.5509
   19MOL   H116 6272   5.231   2.397   1.592 -1.2952 -1.3280  1.7389
   19MOL   H117 6273   5.300   2.583   1.467 -0.6556  2.5602 -0.0166
   19MOL   H118 6274   5.447   2.783   1.464  0.0701 -2.2448 -1.8026
   19MOL   H119 6275   5.764   2.764   1.780  0.7441  2.2673  1.1631
   19MOL   H120 6276   5.829   2.901   1.709  1.1461 -1.0130 -0.1669
   19MOL   C121 6277   5.828   2.753   1.562 -0.7177 -0.4159 -0.2677
   19MOL   C122 6278   5.889   2.863   1.471  0.2128  0.0408 -0.5342
   19MOL   C123 6279   6.000   2.945   1.507  1.1301 -0.1877  0.4825
   19MOL   C124 6280   6.038   3.049   1.421  0.8194 -0.5128  0.2048
   19MOL   C125 6281   5.976   3.071   1.299 -0.8498 -0.0258  0.6402
   19MOL   O126 6282   6.019   3.174   1.210  0.5507 -0.1857 -0.4823
   19MOL   C127 6283   5.867   2.990   1.258 -0.2066  0.1800 -0.5484
   19MOL   C128 6284   5.828   2.891   1.346 -0.0485  0.2474 -0.0803
   19MOL   C129 6285   5.926   2.632   1.590 -0.1907  0.0082  0.3323
   19MOL   H130 6286   5.748   2.713   1.498 -0.5494 -0.5007 -0.4255
   19MOL   H131 6287   6.052   2.938   1.601  2.1185 -0.0662 -0.0435
   19MOL   H132 6288   6.117   3.115   1.452 -1.2846  1.6622  1.0739
   19MOL   H133 6289   6.076   3.230   1.260 -2.4968  2.5656  0.0568
   19MOL   H134 6290   5.816   3.002   1.164 -0.0018  1.4363 -0.5085
   19MOL   H135 6291   5.739   2.838   1.314 -0.4024  2.1598 -2.3687
   19MOL   H136 6292   5.880   2.564   1.661 -0.2789 -0.2964 -0.0131
   19MOL   H137 6293   6.014   2.673   1.640  0.6797 -1.2890 -0.0931
   19MOL   C138 6294   5.966   2.551   1.454 -0.3308  0.1620 -1.1816
   19MOL   C139 6295   5.847   2.533   1.359 -0.0728 -0.4889  0.0540
   19MOL   C140 6296   5.837   2.585   1.230 -0.0201  0.2150  0.6801
   19MOL   C141 6297   5.724   2.576   1.149  0.0068  0.6081  0.1981
   19MOL   C142 6298   5.616   2.504   1.193  0.2922 -0.0292  0.6202
   19MOL   O143 6299   5.520   2.471   1.101 -0.4730 -0.5303 -0.0042
   19MOL   C144 6300   5.623   2.445   1.321  0.8180  0.1245  0.4149
   19MOL   C145 6301   5.740   2.457   1.404  0.3756  0.5876 -0.6196
   19MOL   C146 6302   6.039   2.417   1.480  0.1938  0.3550  0.1553
   19MOL   H147 6303   6.036   2.618   1.402  0.2276 -0.4704 -1.2567
   19MOL   H148 6304   5.917   2.644   1.188  0.9445 -1.4737  0.0927
   19MOL   H149 6305   5.727   2.617   1.050 -0.9306  1.0190  0.3387
   19MOL   H150 6306   5.463   2.404   1.136 -2.4392  1.0231 -0.1840
   19MOL   H151 6307   5.540   2.389   1.362  1.7576 -0.2490  1.8393
   19MOL   H152 6308   5.748   2.403   1.497  1.6530  1.2039 -0.3582
   19MOL   H153 6309   6.048   2.384   1.376 -0.9207  0.5796 -0.0263
   19MOL   H154 6310   5.978   2.343   1.532  0.2226  0.0031 -0.3091
   19MOL   C155 6311   6.180   2.437   1.543 -0.1233  0.6907 -0.2319
   19MOL   C156 6312   6.284   2.339   1.491  0.2176 -0.0586 -0.2912
   19MOL   C157 6313   6.392   2.389   1.421  0.1012 -0.3897  0.5139
   19MOL   C158 6314   6.498   2.310   1.388  0.3420 -0.0792 -0.2318
   19MOL   C159 6315   6.494   2.176   1.406 -0.9425  0.1677 -0.5931
   19MOL   O160 6316   6.596   2.099   1.364 -0.0851  0.3054  0.1650
   19MOL   C161 6317   6.378   2.116   1.456 -0.1654 -0.7494  0.0794
   19MOL   C162 6318   6.280   2.199   1.508  0.8445 -0.3341 -0.3806
   19MOL   C163 6319   6.181   2.444   1.698 -0.2893 -0.0873 -0.1003
   19MOL   H164 6320   6.205   2.532   1.496  0.3563  1.8864  2.3478
   19MOL   H165 6321   6.393   2.494   1.398  0.2567 -0.6696 -0.8285
   19MOL   H166 6322   6.575   2.365   1.335  0.7449  1.8137  2.2552
   19MOL   H167 6323   6.572   2.008   1.363  0.4673  0.1624 -0.2778
   19MOL   H168 6324   6.370   2.009   1.469  0.9751 -0.5519  2.7475
   19MOL   H169 6325   6.202   2.142   1.557  2.1562  0.2337  2.4930
   19MOL   H170 6326   6.187   2.346   1.746  1.6008 -0.3597 -0.8544
   19MOL   H171 6327   6.086   2.479   1.738  0.7750  3.0223 -0.1743
   19MOL   C172 6328   6.297   2.521   1.767 -0.3250  0.2038  0.2272
   19MOL   C173 6329   6.295   2.668   1.721  0.3970  0.4847 -0.2799
   19MOL   C174 6330   6.234   2.762   1.812  0.6852 -0.3841 -0.1927
   19MOL   C175 6331   6.246   2.901   1.792  0.0767  0.9073 -0.7884
   19MOL   C176 6332   6.305   2.944   1.671  0.0633  0.2900 -0.4809
   19MOL   O177 6333   6.307   3.081   1.657 -0.9597  0.2841 -0.3349
   19MOL   C178 6334   6.356   2.850   1.576 -0.4316  0.0595 -0.7545
   19MOL   C179 6335   6.354   2.710   1.603  0.0075 -0.0794  0.2135
   19MOL   C180 6336   6.433   2.456   1.765 -0.7643  0.8941 -0.2426
   19MOL   H181 6337   6.263   2.518   1.870 -2.0128  0.2587 -0.3127
   19MOL   H182 6338   6.182   2.729   1.901 -0.0870  0.8745 -0.1567
   19MOL   H183 6339   6.198   2.970   1.861 -1.5449 -0.3157 -0.6535
   19MOL   H184 6340   6.382   3.122   1.617 -1.4623  1.3056 -0.2458
   19MOL   H185 6341   6.411   2.886   1.490 -0.3443  0.1426 -0.6644
   19MOL   H186 6342   6.406   2.643   1.536  0.2123 -0.2477  0.5376
   19MOL   H187 6343   6.457   2.435   1.661  0.7607  1.1738  0.0452
   19MOL   H188 6344   6.426   2.368   1.830 -2.2710  0.4910 -0.9352
   19MOL   C189 6345   6.550   2.539   1.821 -0.2073 -0.2751 -0.4126
   19MOL   C190 6346   6.538   2.575   1.961 -0.3754  0.1127  0.0053
   19MOL   C191 6347   6.582   2.493   2.064 -0.3601  0.6763 -0.1948
   19MOL   C192 6348   6.587   2.534   2.199 -0.0970 -0.3856  0.3014
   19MOL   C193 6349   6.526   2.651   2.238  0.5741 -0.0021 -0.0300
   19MOL   O194 6350   6.507   2.684   2.369 -0.2773  0.7063  0.3334
   19MOL   C195 6351   6.471   2.738   2.138  0.9654  1.3977  0.4142
   19MOL   C196 6352   6.491   2.699   2.003  0.5105 -0.5601 -0.1562
   19MOL   C197 6353   6.687   2.469   1.789  0.1025  0.4466  0.3056
   19MOL   H198 6354   6.557   2.631   1.763  0.0852 -1.0669 -1.6495
   19MOL   H199 6355   6.624   2.397   2.037 -3.0212 -0.1085 -1.6309
   19MOL   H200 6356   6.631   2.465   2.269 -2.9426 -3.1020 -0.5225
   19MOL   H201 6357   6.526   2.610   2.424 -0.4085  2.1002  2.3147
   19MOL   H202 6358   6.431   2.836   2.161  2.3944  1.9689  0.5232
   19MOL   H203 6359   6.472   2.777   1.930  0.7069  0.2485  0.6463
   19MOL   H204 6360   6.676   2.363   1.811 -0.3158  0.8369  2.0967
   19MOL   H205 6361   6.763   2.505   1.859 -1.2805  0.2405  1.9394
   19MOL   C206 6362   6.754   2.476   1.652  0.5271 -0.4529 -0.1471
   19MOL   C207 6363   6.879   2.393   1.640 -0.7985 -0.6731  0.4427
   19MOL   C208 6364   6.991   2.421   1.723  0.2837 -0.0672  0.2098
   19MOL   C209 6365   7.106   2.339   1.699  0.2160  0.6265  0.3479
   19MOL   C210 6366   7.119   2.238   1.608  0.3888  0.5262 -0.6337
   19MOL   O211 6367   7.244   2.173   1.609  0.0389  0.2501 -0.0220
   19MOL   C212 6368   7.008   2.212   1.532  0.6275  0.0727  0.1834
   19MOL   C213 6369   6.885   2.286   1.550 -0.7263  0.2237  0.2418
   19MOL   C214 6370   6.794   2.625   1.609  0.0078  0.2664 -0.1376
   19MOL   H215 6371   6.681   2.435   1.583  0.2775  0.4061 -0.4056
   19MOL   H216 6372   6.991   2.500   1.797 -2.5677 -0.2278  0.4375
   19MOL   H217 6373   7.183   2.350   1.775  0.6651  1.0323 -0.1611
   19MOL   H218 6374   7.308   2.213   1.665  0.0084  0.6407 -0.2705
   19MOL   H219 6375   7.020   2.135   1.458 -1.3711  1.0931 -1.2393
   19MOL   H220 6376   6.793   2.263   1.498 -0.0594 -1.6038 -0.1904
   19MOL   H221 6377   6.873   2.668   1.671  0.8996  0.2895 -1.2682
   19MOL   H222 6378   6.712   2.695   1.628 -1.6893 -2.2099  1.9740
   19MOL   C223 6379   6.844   2.643   1.457 -0.1907 -0.2636 -0.6203
   19MOL   C224 6380   6.998   2.651   1.459  0.0017  0.1609 -0.5704
   19MOL   C225 6381   7.066   2.753   1.525 -0.5999  0.0053  0.0134
   19MOL   C226 6382   7.205   2.754   1.535  0.1687  0.2744 -0.1484
   19MOL   C227 6383   7.277   2.647   1.475 -0.4786 -0.3179 -0.5492
   19MOL   O228 6384   7.409   2.653   1.495  0.2686  0.0289  0.3394
   19MOL   C229 6385   7.215   2.542   1.406  0.3374  0.0892  0.1974
   19MOL   C230 6386   7.074   2.547   1.400  0.1253 -0.4559 -0.2737
   19MOL   C231 6387   6.776   2.776   1.408 -0.2748 -1.1113 -0.1260
   19MOL   H232 6388   6.807   2.562   1.395 -1.1248 -0.7362  0.5189
   19MOL   H233 6389   7.013   2.833   1.575  1.5431  0.7719  1.1357
   19MOL   H234 6390   7.251   2.836   1.589  2.3043  0.1524 -1.7162
   19MOL   H235 6391   7.444   2.738   1.519  0.5683  0.1772 -0.6026
   19MOL   H236 6392   7.279   2.469   1.358 -1.3247 -0.2213 -1.6027
   19MOL   H237 6393   7.021   2.473   1.341  0.3393 -0.3571 -0.5943
   19MOL   H238 6394   6.668   2.767   1.414 -0.2868 -0.1933  1.2002
   19MOL   H239 6395   6.806   2.854   1.478 -1.1973  0.3027 -1.2725
   19MOL   C240 6396   6.818   2.830   1.269 -0.2448  0.8989 -0.2398
   19MOL   C241 6397   6.783   2.739   1.142 -0.5959 -0.0395 -0.9497
   19MOL   C242 6398   6.664   2.749   1.069  0.3694 -0.9042  0.1940
   19MOL   C243 6399   6.643   2.664   0.958  0.2331  0.4313  0.3683
   19MOL   C244 6400   6.747   2.577   0.916  0.2060  0.0536  0.6628
   19MOL   O245 6401   6.725   2.493   0.806  0.0276 -0.2063  1.2104
   19MOL   C246 6402   6.868   2.573   0.987  0.0220 -0.4780  0.1506
   19MOL   C247 6403   6.884   2.654   1.101 -0.1323 -0.1652 -0.7320
   19MOL   C248 6404   6.782   2.975   1.254  0.1448 -1.1059  0.0741
   19MOL   H249 6405   6.927   2.823   1.265 -0.1837  1.6691  0.0405
   19MOL   H250 6406   6.591   2.825   1.090  0.6584 -0.1811 -1.3692
   19MOL   H251 6407   6.561   2.682   0.890  1.5596 -0.6417 -1.5643
   19MOL   H252 6408   6.645   2.512   0.759  0.0362 -1.4999  0.6353
   19MOL   H253 6409   6.954   2.516   0.957 -0.4791  0.3311 -2.9368
   19MOL   H254 6410   6.979   2.650   1.153 -1.2895 -0.2794  1.4267
   19MOL   H255 6411   6.774   2.990   1.147 -0.0026  0.3698  0.2767
   19MOL   H256 6412   6.679   2.987   1.287 -0.0838  2.6777 -1.7723
   19MOL   C257 6413   6.881   3.078   1.314  0.2926  0.0128 -0.0677
   19MOL   C258 6414   7.015   3.102   1.235  0.9346  0.0083 -0.0001
   19MOL   C259 6415   7.011   3.153   1.108 -0.1034 -0.0658 -0.5626
   19MOL   C260 6416   7.129   3.184   1.039 -0.0072  0.4019 -0.2383
   19MOL   C261 6417   7.256   3.168   1.102  0.8663  0.0934 -0.0434
   19MOL   O262 6418   7.374   3.211   1.048 -0.3870 -0.1123 -0.1122
   19MOL   C263 6419   7.258   3.109   1.228 -0.3938 -0.0150 -0.5544
   19MOL   C264 6420   7.140   3.070   1.297  0.0826 -0.2075  0.6209
   19MOL   C265 6421   6.819   3.213   1.351 -0.0702 -0.2952 -0.0864
   19MOL   H266 6422   6.924   3.036   1.405  1.4892 -2.2496 -1.6372
   19MOL   H267 6423   6.915   3.178   1.066 -1.6352 -1.9093  1.7119
   19MOL   H268 6424   7.122   3.226   0.939  0.0028  0.2651 -0.2971
   19MOL   H269 6425   7.373   3.233   0.956 -1.1643 -0.6136 -0.2229
   19MOL   H270 6426   7.355   3.086   1.270 -0.3395  0.4789 -0.3999
   19MOL   H271 6427   7.147   3.040   1.400  0.2641 -0.9144  0.4041
   19MOL   H272 6428   6.774   3.264   1.266  1.2287 -0.3542 -0.8236
   19MOL   H273 6429   6.911   3.271   1.364 -0.4820  0.7204 -1.5523
   19MOL   C274 6430   6.741   3.227   1.483 -0.3445  0.2731  0.9216
   19MOL   C275 6431   6.600   3.262   1.449  0.5271  0.0680  0.3395
   19MOL   C276 6432   6.508   3.160   1.416  0.7749  0.2565 -0.1293
   19MOL   C277 6433   6.382   3.185   1.364 -0.0633 -0.3937 -0.5704
   19MOL   C278 6434   6.339   3.319   1.345 -0.4598 -0.1899 -0.4015
   19MOL   O279 6435   6.207   3.342   1.313 -0.4030 -0.0618  0.7463
   19MOL   C280 6436   6.427   3.423   1.382  0.1072 -0.0997 -0.0363
   19MOL   C281 6437   6.557   3.396   1.431 -0.4587 -0.0256 -0.9444
   19MOL   C282 6438   6.806   3.324   1.584  0.6403 -0.6076 -0.6925
   19MOL   H283 6439   6.744   3.128   1.529  2.6985 -0.5794 -0.9721
   19MOL   H284 6440   6.530   3.055   1.429 -1.3087 -0.2901 -0.8288
   19MOL   H285 6441   6.316   3.101   1.350 -0.2226 -0.3644 -0.0037
   19MOL   H286 6442   6.199   3.432   1.286 -1.4413 -0.0099  1.1867
   19MOL   H287 6443   6.397   3.526   1.374  0.6965 -0.0629 -1.9598
   19MOL   H288 6444   6.626   3.478   1.451  0.7060 -1.8038  2.7830
   19MOL   H289 6445   6.830   3.423   1.546 -0.2190  0.5495  1.7106
   19MOL   H290 6446   6.738   3.355   1.663  0.4223 -1.5955 -0.4837
   19MOL   C291 6447   6.923   3.274   1.674  0.0621  0.1293  0.3227
   19MOL   C292 6448   6.905   3.144   1.753 -0.0606 -0.0740  0.4919
   19MOL   C293 6449   6.785   3.121   1.818  0.6728 -0.3618  0.7159
   19MOL   C294 6450   6.769   3.006   1.901  0.1881  0.1541  0.6220
   19MOL   C295 6451   6.872   2.916   1.915 -0.3193 -0.2377 -0.2035
   19MOL   O296 6452   6.855   2.809   1.995  0.0826  0.1096  0.0111
   19MOL   C297 6453   6.992   2.926   1.843 -0.5215 -0.4174 -0.2066
   19MOL   C298 6454   7.008   3.042   1.763  0.4562 -1.2374  0.5420
   19MOL   C299 6455   6.970   3.389   1.767  0.6360 -0.1648 -0.1717
   19MOL   H300 6456   7.010   3.256   1.611  0.0574 -0.4103  0.4638
   19MOL   H301 6457   6.710   3.199   1.816  0.6516 -0.3895 -1.6130
   19MOL   H302 6458   6.676   2.971   1.943  0.1716 -1.7768 -0.9675
   19MOL   H303 6459   6.931   2.753   1.988  0.8900  1.3250 -1.3403
   19MOL   H304 6460   7.062   2.845   1.851 -0.3207 -0.2039  0.2245
   19MOL   H305 6461   7.108   3.057   1.724  0.9513 -0.0732  2.1754
   19MOL   H306 6462   7.018   3.355   1.859 -0.0451 -2.6366 -0.6926
   19MOL   H307 6463   6.882   3.439   1.807 -0.5268 -1.2808 -1.2974
   19MOL   C308 6464   7.059   3.489   1.692 -0.2612 -0.3255  0.7649
   19MOL   C309 6465   7.181   3.425   1.627  0.3757 -0.5469 -0.5514
   19MOL   C310 6466   7.252   3.330   1.698 -0.2169 -0.0493 -0.5048
   19MOL   C311 6467   7.360   3.254   1.653 -0.1689 -1.0872 -0.1915
   19MOL   C312 6468   7.391   3.266   1.513  0.2192 -0.5386  0.1917
   19MOL   O313 6469   7.505   3.209   1.457  0.1868  0.0573 -0.2389
   19MOL   C314 6470   7.326   3.368   1.438 -0.6531  0.2739 -0.4159
   19MOL   C315 6471   7.220   3.437   1.494  0.0170  0.2105  0.3417
   19MOL   C316 6472   7.114   3.607   1.777  0.5196  0.5951  0.3951
   19MOL   H317 6473   6.992   3.535   1.619  1.5018 -0.7870 -1.1953
   19MOL   H318 6474   7.217   3.307   1.797  0.3771  0.1222 -0.2596
   19MOL   H319 6475   7.413   3.180   1.712  0.3503  0.6750  1.6005
   19MOL   H320 6476   7.531   3.244   1.374 -0.9118  2.5104  0.3971
   19MOL   H321 6477   7.353   3.377   1.334  2.1059  0.0506  0.2503
   19MOL   H322 6478   7.166   3.513   1.440  0.5465 -0.9133 -1.8540
   19MOL   H323 6479   7.197   3.578   1.842 -0.1599 -0.6642  0.7273
   19MOL   H324 6480   7.039   3.640   1.849  3.0326  0.3684  3.2070
   19MOL   C325 6481   7.152   3.730   1.687 -0.3660 -0.0129  0.1168
   19MOL   C326 6482   7.305   3.751   1.656 -0.5435  1.0136  0.2898
   19MOL   C327 6483   7.360   3.751   1.524  0.3961 -0.2871 -0.1838
   19MOL   C328 6484   7.498   3.779   1.502 -0.3087 -0.2563  0.5918
   19MOL   C329 6485   7.577   3.798   1.617  0.1511 -0.2840  0.2682
   19MOL   O330 6486   7.708   3.830   1.593  0.2554 -0.3146  0.2558
   19MOL   C331 6487   7.527   3.795   1.754  0.1097  0.6930  0.4104
   19MOL   C332 6488   7.389   3.774   1.769 -0.2147 -0.5573  0.1812
   19MOL   C333 6489   7.083   3.861   1.732 -0.6061 -0.1275 -0.8592
   19MOL   H334 6490   7.099   3.708   1.594 -1.0586 -1.0821  0.7598
   19MOL   H335 6491   7.297   3.715   1.444  0.0035 -0.8499  0.3821
   19MOL   H336 6492   7.545   3.778   1.404 -0.7399  0.0432  0.3777
   19MOL   H337 6493   7.732   3.781   1.516 -2.3558 -1.3090  0.0012
   19MOL   H338 6494   7.582   3.828   1.841 -0.8545  0.0689  1.2762
   19MOL   H339 6495   7.350   3.765   1.870 -1.1351  0.6296 -0.0427
   19MOL   H340 6496   7.142   3.906   1.812  0.7634  0.8501 -2.3825
   19MOL   H341 6497   6.985   3.835   1.772  0.6095 -3.2587  0.2354
   19MOL   H342 6498   7.083   3.929   1.647 -0.9732  0.5256 -0.3390
   20MOL     C1 6499   2.178   6.409   4.758 -0.3685  0.3333  0.0723
   20MOL     C2 6500   2.217   6.302   4.857  0.0620 -0.0642 -0.5614
   20MOL     C3 6501   2.221   6.332   4.995  0.8168 -0.2837  0.4940
   20MOL     C4 6502   2.247   6.231   5.088 -0.1691  0.3433  0.1172
   20MOL     C5 6503   2.263   6.099   5.050 -0.0155  0.1636 -0.5305
   20MOL     O6 6504   2.271   6.016   5.153  0.5551 -0.0429 -0.5080
   20MOL     C7 6505   2.251   6.069   4.917  0.0903  0.0980  0.1675
   20MOL     C8 6506   2.244   6.167   4.820  0.1132  0.5328 -0.2684
   20MOL     C9 6507   2.296   6.439   4.665  0.0182  0.5896 -0.1211
   20MOL    H10 6508   2.086   6.391   4.704 -0.8823  1.2355  0.6279
   20MOL    H11 6509   2.193   6.430   5.031 -2.4696 -0.5373 -1.1769
   20MOL    H12 6510   2.245   6.248   5.195 -0.8670  1.2740 -0.0341
   20MOL    H13 6511   2.253   5.925   5.137  1.3625  0.1856 -2.8546
   20MOL    H14 6512   2.257   5.966   4.888 -1.9978 -1.0194  3.4387
   20MOL    H15 6513   2.229   6.142   4.716 -1.4567  3.0376 -0.6926
   20MOL    H16 6514   2.266   6.521   4.600  0.2193 -0.1198 -1.1286
   20MOL    H17 6515   2.299   6.363   4.587 -0.2593 -0.5095  0.9255
   20MOL    H18 6516   2.173   6.513   4.791  0.9551  1.2109 -2.3596
   20MOL    C19 6517   2.436   6.446   4.734 -0.5404 -0.8442 -0.1126
   20MOL    C20 6518   2.441   6.546   4.845 -0.4569 -0.3035  0.3196
   20MOL    C21 6519   2.507   6.500   4.960  1.4627  0.5457 -0.3288
   20MOL    C22 6520   2.530   6.591   5.068  0.0531 -0.1011  0.6955
   20MOL    C23 6521   2.503   6.730   5.056  0.0310 -0.0380 -0.6403
   20MOL    O24 6522   2.513   6.805   5.167  0.0644 -0.6607 -0.0084
   20MOL    C25 6523   2.454   6.770   4.928  0.3886  0.3504  1.1527
   20MOL    C26 6524   2.419   6.683   4.824 -0.0415 -0.0052 -0.0753
   20MOL    C27 6525   2.549   6.460   4.628  0.4542 -0.1639  0.9076
   20MOL    H28 6526   2.454   6.352   4.787  1.8856  1.1359  2.7122
   20MOL    H29 6527   2.535   6.397   4.979 -0.5479  0.2514  1.2714
   20MOL    H30 6528   2.580   6.551   5.156  2.2928 -0.4137 -0.6824
   20MOL    H31 6529   2.559   6.763   5.238  0.2560  0.2077  0.3819
   20MOL    H32 6530   2.426   6.873   4.910 -1.7233 -0.3058  0.5640
   20MOL    H33 6531   2.385   6.721   4.729 -0.3976  0.4902  0.2480
   20MOL    H34 6532   2.634   6.511   4.674  2.9240 -0.3223 -3.2779
   20MOL    H35 6533   2.517   6.518   4.542  1.1864  1.3264  1.6190
   20MOL    C36 6534   2.590   6.319   4.573  0.2862  0.1630 -0.0288
   20MOL    C37 6535   2.636   6.234   4.688  0.3711 -0.7526 -0.4025
   20MOL    C38 6536   2.729   6.286   4.777 -0.4607 -0.0708  0.3597
   20MOL    C39 6537   2.767   6.206   4.896 -0.2623  0.4735 -0.0351
   20MOL    C40 6538   2.718   6.079   4.915  1.0949 -0.0698  0.5994
   20MOL    O41 6539   2.735   6.009   5.028 -0.4169 -0.2937 -0.2949
   20MOL    C42 6540   2.628   6.034   4.820 -0.2070  0.4073 -0.2984
   20MOL    C43 6541   2.585   6.105   4.709 -0.1306  0.7566  0.4284
   20MOL    C44 6542   2.691   6.325   4.456  0.1865  0.3053  0.3397
   20MOL    H45 6543   2.500   6.269   4.537 -2.1218  4.7806 -0.7936
   20MOL    H46 6544   2.775   6.382   4.757 -1.0191  0.3072  0.8488
   20MOL    H47 6545   2.839   6.255   4.960 -1.2523  1.6233  0.2152
   20MOL    H48 6546   2.700   5.921   5.031  0.4163 -0.6543 -0.8954
   20MOL    H49 6547   2.587   5.943   4.860 -0.0352  0.2262 -0.5342
   20MOL    H50 6548   2.515   6.060   4.639  1.0790  0.9123 -0.9088
   20MOL    H51 6549   2.673   6.403   4.382 -0.2421  0.6212  0.7751
   20MOL    H52 6550   2.776   6.370   4.508 -0.8668  1.2116  1.2913
   20MOL    C53 6551   2.740   6.189   4.406  0.2817 -0.3238 -0.3449
   20MOL    C54 6552   2.638   6.133   4.307  0.1100  0.5956  0.0751
   20MOL    C55 6553   2.575   6.005   4.329  0.0985 -0.7416 -0.4014
   20MOL    C56 6554   2.479   5.960   4.236  0.1824  0.8805  0.1664
   20MOL    C57 6555   2.459   6.033   4.118 -0.2933 -0.9188  0.1465
   20MOL    O58 6556   2.364   5.992   4.023 -0.1371 -0.0621  0.0285
   20MOL    C59 6557   2.529   6.159   4.094 -0.4722  0.8313  0.0142
   20MOL    C60 6558   2.609   6.212   4.197  0.1954 -0.3940  0.0217
   20MOL    C61 6559   2.879   6.195   4.343 -0.3952  0.8039  0.2089
   20MOL    H62 6560   2.736   6.119   4.489 -2.6644  0.4505  0.2434
   20MOL    H63 6561   2.605   5.948   4.415  3.6567 -0.4113 -1.3611
   20MOL    H64 6562   2.439   5.865   4.269 -1.0187  0.7778 -1.5392
   20MOL    H65 6563   2.362   6.028   3.936 -2.5111 -0.8904 -0.3040
   20MOL    H66 6564   2.522   6.210   3.999 -0.5120 -1.5356 -1.2823
   20MOL    H67 6565   2.664   6.304   4.183 -2.3148  0.7561 -3.1516
   20MOL    H68 6566   2.938   6.272   4.394  1.9005 -0.1487 -0.9445
   20MOL    H69 6567   2.872   6.248   4.248  1.3841  0.3397 -0.1910
   20MOL    C70 6568   2.954   6.061   4.334  0.3301 -0.7459 -0.4903
   20MOL    C71 6569   2.977   5.997   4.468 -1.0155  0.8044  0.1590
   20MOL    C72 6570   3.043   6.072   4.564  0.4270  0.1677  0.3272
   20MOL    C73 6571   3.064   6.021   4.700  1.0311 -0.1476 -0.3092
   20MOL    C74 6572   3.004   5.900   4.738  0.4059  0.0093 -0.0489
   20MOL    O75 6573   3.010   5.853   4.864  0.7018 -0.0827  0.0108
   20MOL    C76 6574   2.933   5.825   4.642 -0.2261 -0.3370 -0.2254
   20MOL    C77 6575   2.921   5.872   4.510 -0.7279  0.2400  0.7493
   20MOL    C78 6576   3.090   6.080   4.267 -0.5064 -0.3848 -0.1889
   20MOL    H79 6577   2.903   5.987   4.272  1.0249 -2.0560  0.4854
   20MOL    H80 6578   3.083   6.171   4.552  0.8361  0.0009  0.3062
   20MOL    H81 6579   3.116   6.081   4.774  0.1153 -1.1031  1.1355
   20MOL    H82 6580   3.024   5.915   4.934 -0.5911 -1.9439  2.0094
   20MOL    H83 6581   2.878   5.733   4.658 -1.6224  0.3367 -1.0063
   20MOL    H84 6582   2.862   5.819   4.437  0.4668  0.4194 -0.3762
   20MOL    H85 6583   3.134   5.982   4.284 -0.1502 -0.5352 -1.9488
   20MOL    H86 6584   3.163   6.147   4.312 -0.1023  0.6332 -2.3219
   20MOL    C87 6585   3.097   6.115   4.116  0.0943 -0.0443 -1.0207
   20MOL    C88 6586   2.975   6.060   4.037  0.0963 -0.1581  0.2589
   20MOL    C89 6587   2.950   5.921   4.031  0.4772 -0.1900 -0.1918
   20MOL    C90 6588   2.854   5.867   3.950  0.0911 -0.4898 -0.6281
   20MOL    C91 6589   2.774   5.961   3.878 -0.3418 -0.2861 -0.0244
   20MOL    O92 6590   2.685   5.913   3.783 -0.7060  0.2640  0.6588
   20MOL    C93 6591   2.796   6.100   3.885  0.1174 -0.1464 -0.2176
   20MOL    C94 6592   2.899   6.149   3.968  0.3280  0.3708  0.0028
   20MOL    C95 6593   3.225   6.057   4.062 -0.0946  0.2316 -0.4060
   20MOL    H96 6594   3.109   6.223   4.109 -3.2198  0.4778  0.5093
   20MOL    H97 6595   3.018   5.852   4.080 -0.8704 -0.3166  1.5606
   20MOL    H98 6596   2.847   5.759   3.950  2.5315 -0.7002 -1.3441
   20MOL    H99 6597   2.668   5.821   3.780  0.0377  0.1778 -1.4989
   20MOL   H100 6598   2.740   6.173   3.829  0.6048 -0.3051 -0.9234
   20MOL   H101 6599   2.912   6.256   3.972 -1.9872  0.8468 -3.4307
   20MOL   H102 6600   3.319   6.085   4.110  0.8822 -1.0272 -1.5417
   20MOL   H103 6601   3.233   5.954   4.096  0.5466 -0.1277 -1.6042
   20MOL   C104 6602   3.241   6.062   3.903  0.0124  0.2506  0.2813
   20MOL   C105 6603   3.367   5.976   3.867 -0.1259 -0.4881  0.1410
   20MOL   C106 6604   3.496   6.034   3.861  0.4858  0.0906 -0.0269
   20MOL   C107 6605   3.612   5.954   3.842 -0.8186 -0.6790 -0.0072
   20MOL   C108 6606   3.590   5.818   3.804 -0.2219 -0.5404  0.3272
   20MOL   O109 6607   3.690   5.734   3.773 -0.2989  0.5439  0.0142
   20MOL   C110 6608   3.460   5.763   3.797  0.0492  0.2238  0.0602
   20MOL   C111 6609   3.352   5.845   3.823  0.6204 -0.3954 -0.2256
   20MOL   C112 6610   3.254   6.212   3.854 -0.3114  0.3168 -0.1896
   20MOL   H113 6611   3.150   6.019   3.862  1.3491 -1.9954 -0.3900
   20MOL   H114 6612   3.514   6.134   3.897 -1.8256  0.4722  0.1346
   20MOL   H115 6613   3.709   6.002   3.853 -1.7661  1.0452  1.1776
   20MOL   H116 6614   3.760   5.777   3.727  1.3130 -2.9105 -0.9602
   20MOL   H117 6615   3.441   5.662   3.765 -2.8260  1.5465 -2.6073
   20MOL   H118 6616   3.252   5.803   3.826 -0.1323  1.3765  0.4764
   20MOL   H119 6617   3.326   6.255   3.923  0.2374  0.1018 -0.6212
   20MOL   H120 6618   3.165   6.264   3.887  0.1703 -0.0743  1.8102
   20MOL   C121 6619   3.274   6.234   3.705  0.2975 -0.5962 -0.3300
   20MOL   C122 6620   3.142   6.266   3.635 -0.0040  0.1465  0.0960
   20MOL   C123 6621   3.078   6.165   3.567 -0.0146  0.6971 -0.0157
   20MOL   C124 6622   2.955   6.186   3.504  0.6680 -0.0210 -0.3319
   20MOL   C125 6623   2.893   6.311   3.517 -1.3240 -0.3403  0.5484
   20MOL   O126 6624   2.775   6.321   3.464  0.4684 -0.2804 -0.0166
   20MOL   C127 6625   2.947   6.414   3.595 -0.7475  0.5683 -0.3891
   20MOL   C128 6626   3.071   6.392   3.660 -0.4350  0.3598 -0.1435
   20MOL   C129 6627   3.379   6.341   3.675 -0.2292 -0.0851 -0.2065
   20MOL   H130 6628   3.314   6.143   3.660  1.8723 -0.2184  0.2701
   20MOL   H131 6629   3.135   6.073   3.559  3.3873  2.6250  1.0571
   20MOL   H132 6630   2.907   6.105   3.450 -0.5024 -0.9738  2.0555
   20MOL   H133 6631   2.735   6.238   3.482  3.1164 -1.0783  2.5829
   20MOL   H134 6632   2.898   6.504   3.627 -0.1627  0.3210  1.2711
   20MOL   H135 6633   3.115   6.470   3.721  0.0756 -1.3971  1.7957
   20MOL   H136 6634   3.468   6.314   3.732 -0.3491  1.1835  0.5873
   20MOL   H137 6635   3.342   6.432   3.721  1.1901  0.1675  0.4855
   20MOL   C138 6636   3.404   6.370   3.522 -0.0266 -0.4650  0.7243
   20MOL   C139 6637   3.444   6.237   3.461  0.0173  0.4984  0.7024
   20MOL   C140 6638   3.575   6.181   3.475  0.0256  0.2657 -0.5722
   20MOL   C141 6639   3.621   6.067   3.403 -0.1809 -0.0999  0.1218
   20MOL   C142 6640   3.529   6.008   3.313 -0.2480 -0.5191 -0.3149
   20MOL   O143 6641   3.578   5.903   3.239  0.2595  0.0183 -0.1783
   20MOL   C144 6642   3.396   6.060   3.300  0.0662  0.1388  0.6073
   20MOL   C145 6643   3.354   6.178   3.369 -0.4363  0.0019 -1.0303
   20MOL   C146 6644   3.519   6.477   3.517  0.3496  0.2844 -0.6130
   20MOL   H147 6645   3.315   6.413   3.476  0.8315 -0.3832 -0.8707
   20MOL   H148 6646   3.651   6.227   3.535 -1.1124  0.0662  1.0500
   20MOL   H149 6647   3.722   6.038   3.430 -0.6932 -0.8722  1.2454
   20MOL   H150 6648   3.672   5.895   3.244  0.0289 -1.1775  2.7516
   20MOL   H151 6649   3.326   6.016   3.229 -2.4603  1.3783  2.2497
   20MOL   H152 6650   3.254   6.213   3.347 -1.5750 -2.3778  0.1669
   20MOL   H153 6651   3.616   6.445   3.556 -0.2423  0.1265  0.7785
   20MOL   H154 6652   3.497   6.564   3.579 -1.3821 -2.3024  2.6281
   20MOL   C155 6653   3.551   6.538   3.375  0.2445 -0.3949  0.2947
   20MOL   C156 6654   3.687   6.608   3.370  0.6396 -0.4381 -0.3914
   20MOL   C157 6655   3.707   6.722   3.446 -0.6828 -0.1816 -0.1715
   20MOL   C158 6656   3.832   6.788   3.436 -0.3313 -0.2790 -0.4429
   20MOL   C159 6657   3.934   6.736   3.345  0.5523 -0.0272  0.7163
   20MOL   O160 6658   4.058   6.795   3.326  0.1289 -0.4919  0.5572
   20MOL   C161 6659   3.907   6.620   3.265  0.0111  0.2155 -0.1632
   20MOL   C162 6660   3.786   6.547   3.284  0.3010 -1.0354 -0.6846
   20MOL   C163 6661   3.444   6.620   3.307  0.1752  0.3196  0.6490
   20MOL   H164 6662   3.568   6.454   3.308 -2.5134 -1.5543  0.9892
   20MOL   H165 6663   3.627   6.760   3.507 -0.6656  0.7055 -0.6927
   20MOL   H166 6664   3.857   6.874   3.496 -0.1159  0.3117 -1.3791
   20MOL   H167 6665   4.075   6.869   3.382 -0.5547  0.7617 -0.8589
   20MOL   H168 6666   3.984   6.570   3.208 -0.0482  0.7473 -0.7252
   20MOL   H169 6667   3.774   6.463   3.217 -1.8649 -1.1915 -0.1190
   20MOL   H170 6668   3.494   6.713   3.278  0.7101  0.1170  0.9176
   20MOL   H171 6669   3.365   6.653   3.376 -1.2088 -1.9822  0.1969
   20MOL   C172 6670   3.354   6.566   3.183  0.1691  0.0051 -0.2015
   20MOL   C173 6671   3.425   6.460   3.093 -0.2163 -0.0656  0.5935
   20MOL   C174 6672   3.544   6.496   3.031 -0.6059 -0.1706  0.3746
   20MOL   C175 6673   3.614   6.397   2.961  0.5805  0.0051  0.2347
   20MOL   C176 6674   3.562   6.266   2.945 -0.3911  0.1250  1.1521
   20MOL   O177 6675   3.634   6.167   2.886 -0.4163  0.3111  0.2110
   20MOL   C178 6676   3.435   6.237   2.995  0.1440 -0.4504 -0.2731
   20MOL   C179 6677   3.364   6.339   3.065 -1.2555  0.1681 -0.1069
   20MOL   C180 6678   3.316   6.683   3.100  0.6540  0.4836  0.4615
   20MOL   H181 6679   3.264   6.521   3.225 -1.0325  1.4867 -1.1681
   20MOL   H182 6680   3.592   6.592   3.047  0.2287 -0.5905  0.3629
   20MOL   H183 6681   3.715   6.419   2.929  1.0859 -0.9712  1.1137
   20MOL   H184 6682   3.712   6.193   2.839 -0.6375  1.0393  0.2403
   20MOL   H185 6683   3.389   6.140   2.985  3.5379 -2.3113  1.4815
   20MOL   H186 6684   3.274   6.305   3.114 -0.0002 -1.2253  1.3120
   20MOL   H187 6685   3.404   6.735   3.064 -1.2474  2.7991 -1.0007
   20MOL   H188 6686   3.268   6.757   3.164  0.9312  0.6524  0.4748
   20MOL   C189 6687   3.214   6.660   2.985 -0.2942  0.1385  0.1333
   20MOL   C190 6688   3.095   6.581   3.039  0.6364  0.6173 -0.2289
   20MOL   C191 6689   3.070   6.455   2.980  0.6065 -0.2943  0.0966
   20MOL   C192 6690   2.975   6.369   3.037 -0.3207 -0.3860 -0.5625
   20MOL   C193 6691   2.902   6.408   3.153 -0.5229  0.2095  0.6380
   20MOL   O194 6692   2.799   6.329   3.197  0.0128  0.2065 -0.4745
   20MOL   C195 6693   2.928   6.534   3.211  1.2295 -0.1860  0.0361
   20MOL   C196 6694   3.024   6.622   3.154 -0.2365 -0.4641 -0.2167
   20MOL   C197 6695   3.164   6.795   2.913 -0.9285  0.1507  0.2907
   20MOL   H198 6696   3.260   6.595   2.912 -2.0654  1.0788 -1.8709
   20MOL   H199 6697   3.116   6.429   2.885  2.0264  0.4259  0.5784
   20MOL   H200 6698   2.962   6.274   2.987  1.1689 -1.0466  0.2658
   20MOL   H201 6699   2.779   6.340   3.288  0.4540 -0.4714 -0.2930
   20MOL   H202 6700   2.883   6.561   3.305 -0.6314 -0.5196 -0.7416
   20MOL   H203 6701   3.048   6.715   3.203 -1.3381 -1.0195  1.4084
   20MOL   H204 6702   3.072   6.833   2.956 -1.6704  0.4820 -1.5506
   20MOL   H205 6703   3.127   6.760   2.816  1.9453 -3.1096  0.2347
   20MOL   C206 6704   3.271   6.907   2.888  0.6416 -0.2438  0.0648
   20MOL   C207 6705   3.310   6.985   3.018  0.4995  0.1672  0.2973
   20MOL   C208 6706   3.212   7.033   3.115 -0.4521 -0.5307 -0.3419
   20MOL   C209 6707   3.242   7.099   3.234  0.1881  0.2087  0.0924
   20MOL   C210 6708   3.378   7.116   3.254  0.4382 -0.2259 -0.1284
   20MOL   O211 6709   3.421   7.177   3.372 -0.4252 -0.2020 -0.0022
   20MOL   C212 6710   3.483   7.060   3.168 -0.3065 -0.4969  0.1710
   20MOL   C213 6711   3.449   6.993   3.054  0.2773 -0.2596  0.1824
   20MOL   C214 6712   3.227   7.011   2.789  0.1176 -0.0240 -1.0165
   20MOL   H215 6713   3.362   6.858   2.855  0.6747 -0.4532  0.4675
   20MOL   H216 6714   3.110   7.000   3.103 -0.6593  0.2080 -0.6065
   20MOL   H217 6715   3.161   7.135   3.296  0.2835  1.8708 -0.7030
   20MOL   H218 6716   3.397   7.268   3.378 -0.2139  0.0531 -2.3871
   20MOL   H219 6717   3.587   7.077   3.191 -1.2363  2.0732  2.8560
   20MOL   H220 6718   3.529   6.961   2.988 -0.4910  0.2291 -1.0172
   20MOL   H221 6719   3.149   7.070   2.837  2.4520  1.3704  1.1748
   20MOL   H222 6720   3.179   6.962   2.704 -0.4071 -0.9676 -0.1925
   20MOL   C223 6721   3.332   7.100   2.736 -0.0713  0.4800 -0.2098
   20MOL   C224 6722   3.275   7.236   2.696  0.0326 -0.6494 -0.0803
   20MOL   C225 6723   3.279   7.346   2.779 -0.2432 -0.3171  0.7754
   20MOL   C226 6724   3.212   7.470   2.745  0.1343  0.1803 -0.0860
   20MOL   C227 6725   3.158   7.476   2.613 -0.4932 -0.6031 -1.1867
   20MOL   O228 6726   3.130   7.594   2.565 -0.2687  0.5653 -0.0654
   20MOL   C229 6727   3.141   7.361   2.534  0.7231 -0.2290  0.8635
   20MOL   C230 6728   3.200   7.240   2.571  0.6543 -0.7010  0.2297
   20MOL   C231 6729   3.424   7.044   2.618  0.3238  0.1330 -0.0789
   20MOL   H232 6730   3.404   7.129   2.812 -0.6671  1.0682  0.1369
   20MOL   H233 6731   3.318   7.347   2.879 -2.1782  2.4413  1.5624
   20MOL   H234 6732   3.215   7.548   2.818 -1.7235 -1.9604  2.3562
   20MOL   H235 6733   3.109   7.584   2.473  2.1408 -0.4441 -0.5302
   20MOL   H236 6734   3.110   7.365   2.431  2.5674  1.7457  0.3381
   20MOL   H237 6735   3.193   7.152   2.508  0.0217 -0.2088 -0.3887
   20MOL   H238 6736   3.472   6.955   2.658 -1.0766 -1.2707 -1.4672
   20MOL   H239 6737   3.364   7.002   2.538  0.1522  1.5734 -0.7235
   20MOL   C240 6738   3.529   7.143   2.562 -0.2408  0.1365 -0.1201
   20MOL   C241 6739   3.610   7.199   2.675 -0.3161  0.3967  0.1501
   20MOL   C242 6740   3.699   7.109   2.742  0.3105 -0.8035 -0.0427
   20MOL   C243 6741   3.776   7.147   2.853 -0.2257 -0.1530  0.3306
   20MOL   C244 6742   3.772   7.280   2.900 -0.8939  0.1834  0.2803
   20MOL   O245 6743   3.836   7.317   3.014 -0.1056 -0.3325 -0.7373
   20MOL   C246 6744   3.681   7.368   2.839  0.6037 -0.6377  0.0013
   20MOL   C247 6745   3.604   7.331   2.722  0.4781 -0.1495 -0.8646
   20MOL   C248 6746   3.615   7.074   2.454 -0.4913 -0.0355 -0.5814
   20MOL   H249 6747   3.488   7.236   2.523 -0.7195  0.9522  2.2325
   20MOL   H250 6748   3.717   7.012   2.700  2.5996 -0.5143  0.1945
   20MOL   H251 6749   3.828   7.065   2.900 -0.4122  0.5516  1.7808
   20MOL   H252 6750   3.898   7.253   3.047 -0.1052  1.1430  2.2908
   20MOL   H253 6751   3.662   7.456   2.898 -1.2052 -2.2173  1.8040
   20MOL   H254 6752   3.526   7.395   2.683  0.4439  0.6496  0.4859
   20MOL   H255 6753   3.653   6.977   2.486  0.3246 -0.0757 -1.6593
   20MOL   H256 6754   3.559   7.053   2.363 -0.8969  1.0922 -0.6036
   20MOL   C257 6755   3.743   7.158   2.423 -0.3739 -0.4070  0.4421
   20MOL   C258 6756   3.852   7.066   2.365 -0.4196 -0.1019 -0.0061
   20MOL   C259 6757   3.965   7.030   2.443 -0.4228 -0.5064  0.0092
   20MOL   C260 6758   4.070   6.956   2.389 -0.3229 -0.2736 -0.5045
   20MOL   C261 6759   4.081   6.933   2.247 -0.8491  0.6160 -0.4587
   20MOL   O262 6760   4.192   6.873   2.192  0.4833  0.1259 -1.0084
   20MOL   C263 6761   3.967   6.962   2.171 -0.5259  0.3323 -0.3301
   20MOL   C264 6762   3.854   7.027   2.233  0.8469  0.7211  0.2133
   20MOL   C265 6763   3.712   7.279   2.324 -0.2072  0.1581  0.5771
   20MOL   H266 6764   3.788   7.197   2.514 -0.1430 -1.0918  0.6207
   20MOL   H267 6765   3.969   7.065   2.545  0.6980  0.4532 -0.3579
   20MOL   H268 6766   4.145   6.942   2.466 -1.5806 -1.8578  0.4619
   20MOL   H269 6767   4.174   6.818   2.118  2.8513 -0.8300 -0.9016
   20MOL   H270 6768   3.972   6.933   2.066 -0.1657  0.7853 -0.4391
   20MOL   H271 6769   3.770   7.052   2.169 -0.1087 -0.1331  1.1234
   20MOL   H272 6770   3.634   7.339   2.372  0.5723  0.4761  1.4448
   20MOL   H273 6771   3.678   7.227   2.234 -1.1170  0.7292  0.5889
   20MOL   C274 6772   3.824   7.380   2.288  0.2714  0.5027 -0.5573
   20MOL   C275 6773   3.912   7.425   2.408  0.1535  0.2777 -0.0529
   20MOL   C276 6774   4.050   7.394   2.402 -0.2001  0.4535 -0.4066
   20MOL   C277 6775   4.136   7.427   2.506 -0.3587  0.1667 -0.3231
   20MOL   C278 6776   4.077   7.473   2.624  0.2900  0.3309  0.2450
   20MOL   O279 6777   4.151   7.481   2.741  1.4847 -0.0084 -0.2248
   20MOL   C280 6778   3.938   7.504   2.630 -0.1093  0.3671 -0.3238
   20MOL   C281 6779   3.852   7.483   2.520 -0.1463 -0.0139 -0.1854
   20MOL   C282 6780   3.783   7.499   2.200  0.7881 -0.0720  0.3562
   20MOL   H283 6781   3.892   7.319   2.227 -0.4516  0.2683 -1.1344
   20MOL   H284 6782   4.090   7.344   2.315  0.1994 -0.1337  0.1145
   20MOL   H285 6783   4.238   7.393   2.508 -0.5466 -0.5958 -2.0408
   20MOL   H286 6784   4.107   7.527   2.811 -2.0039 -1.0734 -1.6226
   20MOL   H287 6785   3.892   7.529   2.725  0.0479 -1.0984  0.1547
   20MOL   H288 6786   3.747   7.510   2.525  0.2002  1.2857  0.1973
   20MOL   H289 6787   3.724   7.561   2.267 -2.1725 -0.9766 -1.2782
   20MOL   H290 6788   3.870   7.558   2.171 -0.8913  3.0106  1.3823
   20MOL   C291 6789   3.704   7.473   2.072  0.2267 -0.0879 -0.7896
   20MOL   C292 6790   3.790   7.394   1.979  0.2985 -0.0752  0.2756
   20MOL   C293 6791   3.769   7.254   1.962 -0.4390 -0.7371 -0.3322
   20MOL   C294 6792   3.852   7.176   1.874  0.2327 -0.3994  0.4900
   20MOL   C295 6793   3.957   7.244   1.805 -0.1338 -0.0057  0.3532
   20MOL   O296 6794   4.045   7.176   1.735 -0.3182 -0.5466 -0.0061
   20MOL   C297 6795   3.980   7.378   1.818 -0.0990  0.0218  0.2453
   20MOL   C298 6796   3.897   7.454   1.906 -0.0860  0.2175 -0.1949
   20MOL   C299 6797   3.656   7.601   2.009  1.0577 -0.2424  0.2489
   20MOL   H300 6798   3.615   7.412   2.088 -0.3291  0.7963 -0.4438
   20MOL   H301 6799   3.697   7.206   2.026  0.2133 -2.0457 -0.5546
   20MOL   H302 6800   3.849   7.069   1.863  0.3713 -0.4351  0.7975
   20MOL   H303 6801   4.138   7.184   1.753 -0.6209 -1.1503  1.9027
   20MOL   H304 6802   4.067   7.428   1.778  0.6384 -0.8264  0.7715
   20MOL   H305 6803   3.909   7.561   1.914  1.1587  0.0334  0.5247
   20MOL   H306 6804   3.742   7.663   1.986 -0.2908  1.5518 -0.0415
   20MOL   H307 6805   3.602   7.660   2.084  0.5608 -1.0154  0.5095
   20MOL   C308 6806   3.548   7.582   1.904 -0.3238  0.6382  0.1137
   20MOL   C309 6807   3.596   7.549   1.765 -1.7954  0.0471  0.6478
   20MOL   C310 6808   3.594   7.415   1.725  0.6244  0.5440  0.3262
   20MOL   C311 6809   3.630   7.388   1.586  0.3600  0.0789 -1.2907
   20MOL   C312 6810   3.660   7.488   1.496  0.1174  0.1633  0.1085
   20MOL   O313 6811   3.693   7.470   1.366 -0.0401  0.8146  0.0694
   20MOL   C314 6812   3.657   7.622   1.536 -0.3357 -0.0229 -1.1199
   20MOL   C315 6813   3.646   7.652   1.675  0.2626 -0.8904  0.1427
   20MOL   C316 6814   3.454   7.704   1.900  0.0903 -0.6881  0.7543
   20MOL   H317 6815   3.474   7.509   1.937  1.9412 -1.1881  1.3591
   20MOL   H318 6816   3.562   7.334   1.788 -1.6640 -0.0919 -1.6112
   20MOL   H319 6817   3.639   7.283   1.562 -0.3421 -0.8171  2.0941
   20MOL   H320 6818   3.699   7.377   1.349 -2.2278  0.5937  0.4260
   20MOL   H321 6819   3.679   7.695   1.460 -1.2437  3.5469  1.9438
   20MOL   H322 6820   3.639   7.750   1.719 -2.9312 -0.9925 -0.0064
   20MOL   H323 6821   3.507   7.799   1.886  0.5046 -0.7934  1.5443
   20MOL   H324 6822   3.406   7.707   1.998  0.2216  0.9019  0.7947
   20MOL   C325 6823   3.332   7.706   1.801  0.5742  0.3050 -0.0888
   20MOL   C326 6824   3.248   7.837   1.824 -0.6670 -0.1909  0.4787
   20MOL   C327 6825   3.278   7.944   1.734  0.1153  0.0220  0.1651
   20MOL   C328 6826   3.226   0.033   1.753 -0.7887 -0.4351 -0.3241
   20MOL   C329 6827   3.150   0.053   1.862  0.1867  0.4949 -1.4653
   20MOL   O330 6828   3.106   0.181   1.892 -0.6278  0.5081 -0.1559
   20MOL   C331 6829   3.111   7.986   1.952 -0.2333 -0.2540  0.4045
   20MOL   C332 6830   3.169   7.861   1.932 -0.7324  0.3171  0.0444
   20MOL   C333 6831   3.255   7.570   1.812 -0.1222  0.3372  1.0716
   20MOL   H334 6832   3.370   7.710   1.699  2.1639  2.1595  0.5630
   20MOL   H335 6833   3.349   7.934   1.653  1.7113 -0.0106  1.5318
   20MOL   H336 6834   3.255   0.118   1.693  0.8296 -1.6311 -1.3037
   20MOL   H337 6835   3.042   0.184   1.961 -1.1762  0.3663 -0.6595
   20MOL   H338 6836   3.056   8.006   2.043  0.9296  0.1508  1.0202
   20MOL   H339 6837   3.169   7.783   2.007 -0.9339  0.5699  0.3089
   20MOL   H340 6838   3.314   7.491   1.767 -0.7306 -0.0653  0.9784
   20MOL   H341 6839   3.155   7.579   1.769  0.4058 -0.8873 -0.4362
   20MOL   H342 6840   3.241   7.564   1.920 -2.0970  2.1851  0.9582
   21MOL     C1 6841   4.598   5.705   3.733  0.1735 -0.3308  0.3495
   21MOL     C2 6842   4.458   5.672   3.786  0.8714  0.0141 -0.7196
   21MOL     C3 6843   4.380   5.582   3.713  1.0603 -0.7597  0.6261
   21MOL     C4 6844   4.248   5.562   3.755 -0.1411 -0.2871 -0.1032
   21MOL     C5 6845   4.191   5.626   3.868  0.4622  0.2253 -0.1924
   21MOL     O6 6846   4.058   5.599   3.897  0.1472 -0.1425  0.1319
   21MOL     C7 6847   4.277   5.710   3.935  0.3815 -0.1216 -0.4286
   21MOL     C8 6848   4.405   5.747   3.893 -0.2868 -0.2152  0.1297
   21MOL     C9 6849   4.625   5.852   3.685  0.6061 -0.0692 -0.5244
   21MOL    H10 6850   4.671   5.658   3.798 -0.7542 -0.7781  1.0846
   21MOL    H11 6851   4.424   5.527   3.631 -0.1393 -0.2805 -0.3594
   21MOL    H12 6852   4.184   5.502   3.692  0.7473 -2.9586  1.4503
   21MOL    H13 6853   4.031   5.520   3.854 -1.6181  1.9753 -2.7916
   21MOL    H14 6854   4.239   5.759   4.023  0.1173 -0.8950 -0.1162
   21MOL    H15 6855   4.461   5.821   3.948 -0.8753  0.4806 -0.1936
   21MOL    H16 6856   4.733   5.861   3.677  0.6675 -1.1914 -0.9433
   21MOL    H17 6857   4.599   5.918   3.768 -0.0010 -1.5069  0.4517
   21MOL    H18 6858   4.601   5.635   3.649  0.2500 -4.0313  3.2881
   21MOL    C19 6859   4.545   5.887   3.555 -0.6910  0.0564 -0.1554
   21MOL    C20 6860   4.580   5.786   3.452  0.7133 -0.6967 -0.5047
   21MOL    C21 6861   4.479   5.717   3.386  0.3660 -0.3457 -0.3958
   21MOL    C22 6862   4.514   5.622   3.290 -0.2876  0.0170 -0.2510
   21MOL    C23 6863   4.647   5.598   3.252  0.1736 -0.3863 -0.6044
   21MOL    O24 6864   4.674   5.512   3.152 -0.6271 -0.4686  0.6885
   21MOL    C25 6865   4.748   5.677   3.308 -0.0835 -0.8260 -0.8666
   21MOL    C26 6866   4.718   5.768   3.414  0.5046  0.3162 -0.6663
   21MOL    C27 6867   4.579   6.037   3.522 -0.2519 -0.1754  0.9593
   21MOL    H28 6868   4.438   5.891   3.573 -0.5865 -1.6158  0.9367
   21MOL    H29 6869   4.378   5.740   3.416  1.6272  4.0799  0.7523
   21MOL    H30 6870   4.434   5.565   3.245  1.1985 -1.1619 -1.4835
   21MOL    H31 6871   4.765   5.490   3.136 -0.6630  0.5292 -1.0305
   21MOL    H32 6872   4.849   5.648   3.284  0.0367 -0.6310 -0.5985
   21MOL    H33 6873   4.798   5.806   3.475  0.6189  0.2506 -0.7752
   21MOL    H34 6874   4.561   6.045   3.415 -0.7634 -0.4309  1.0272
   21MOL    H35 6875   4.686   6.058   3.510 -0.3436 -0.7041 -0.9732
   21MOL    C36 6876   4.503   6.144   3.593 -0.2761 -0.7124  0.3750
   21MOL    C37 6877   4.351   6.141   3.567 -0.0306 -0.6055  0.6716
   21MOL    C38 6878   4.267   6.136   3.678  0.7264  0.4088  0.1986
   21MOL    C39 6879   4.130   6.164   3.660  0.0308 -0.3777 -0.0274
   21MOL    C40 6880   4.073   6.188   3.533  0.1127  0.0676 -0.2155
   21MOL    O41 6881   3.939   6.207   3.517 -0.1308 -0.0518 -0.4389
   21MOL    C42 6882   4.154   6.195   3.427  1.1604  0.4255  0.7226
   21MOL    C43 6883   4.293   6.170   3.440  0.4052 -0.1397  0.5091
   21MOL    C44 6884   4.552   6.285   3.557  0.4246 -0.3208  0.1027
   21MOL    H45 6885   4.509   6.139   3.702 -2.1519  2.7886  0.7029
   21MOL    H46 6886   4.304   6.136   3.780  2.5177 -1.0721 -0.4352
   21MOL    H47 6887   4.071   6.189   3.747 -1.4914 -2.5484 -0.3910
   21MOL    H48 6888   3.910   6.227   3.430  0.8173  0.2938 -0.6874
   21MOL    H49 6889   4.113   6.226   3.332 -0.1732 -2.7987  0.1853
   21MOL    H50 6890   4.360   6.176   3.355 -1.0786 -1.4623 -0.7918
   21MOL    H51 6891   4.661   6.288   3.571  0.4323 -0.7640  0.1625
   21MOL    H52 6892   4.549   6.290   3.448 -1.1739  1.0294  0.2057
   21MOL    C53 6893   4.494   6.412   3.612 -0.2632  0.5101 -0.2482
   21MOL    C54 6894   4.480   6.397   3.771 -0.0388  0.4053  0.6176
   21MOL    C55 6895   4.595   6.387   3.846  0.4197  0.7549  0.4072
   21MOL    C56 6896   4.589   6.382   3.984 -0.0549 -0.2103  0.4687
   21MOL    C57 6897   4.462   6.384   4.054 -0.1803 -0.1499  0.1477
   21MOL    O58 6898   4.455   6.376   4.192 -0.3843  0.8077  0.5452
   21MOL    C59 6899   4.342   6.410   3.979  0.6976  0.4177  0.3850
   21MOL    C60 6900   4.356   6.417   3.838 -0.1769 -0.1836  0.2184
   21MOL    C61 6901   4.584   6.535   3.583 -0.3464 -0.1083  0.8900
   21MOL    H62 6902   4.396   6.434   3.570  0.5320  2.3104 -1.2510
   21MOL    H63 6903   4.691   6.381   3.797  1.1687 -2.6371  2.1252
   21MOL    H64 6904   4.683   6.382   4.038 -0.3750  1.1473  1.0252
   21MOL    H65 6905   4.374   6.342   4.225 -0.1667  0.0658  0.3341
   21MOL    H66 6906   4.246   6.421   4.026  0.0585 -4.6974  0.5602
   21MOL    H67 6907   4.262   6.438   3.788 -0.1666 -1.8134 -0.4986
   21MOL    H68 6908   4.659   6.509   3.508 -2.0532 -1.5667 -0.3605
   21MOL    H69 6909   4.634   6.572   3.672 -1.8963 -1.4935  2.3465
   21MOL    C70 6910   4.512   6.657   3.527  0.4674  0.2070 -0.7394
   21MOL    C71 6911   4.470   6.632   3.378  1.2620 -0.3502 -0.8294
   21MOL    C72 6912   4.336   6.635   3.344 -0.4291 -0.5194  0.6155
   21MOL    C73 6913   4.295   6.605   3.210 -0.1902  0.1122  0.2651
   21MOL    C74 6914   4.390   6.557   3.116 -0.0812  0.0802  0.6560
   21MOL    O75 6915   4.355   6.539   2.983  0.0809  0.3903  0.4458
   21MOL    C76 6916   4.527   6.560   3.150 -0.9714 -0.3826 -0.2788
   21MOL    C77 6917   4.566   6.596   3.274  0.3720 -0.0293 -0.1202
   21MOL    C78 6918   4.581   6.793   3.544 -0.0779 -0.0547  0.4274
   21MOL    H79 6919   4.421   6.659   3.588  2.3721  3.0411  2.1793
   21MOL    H80 6920   4.257   6.655   3.414 -0.0878 -1.0504  1.1533
   21MOL    H81 6921   4.190   6.610   3.186 -0.0156 -1.3494 -0.8520
   21MOL    H82 6922   4.260   6.537   2.976  0.1251 -1.6252  0.2893
   21MOL    H83 6923   4.602   6.530   3.078  0.4515  1.1594  0.5437
   21MOL    H84 6924   4.673   6.601   3.287  0.2889  1.3773  0.1246
   21MOL    H85 6925   4.552   6.860   3.464 -0.6025  0.0336  0.6919
   21MOL    H86 6926   4.685   6.770   3.521 -0.0758 -1.5601  1.8200
   21MOL    C87 6927   4.562   6.872   3.678  0.0848  0.5735 -0.1755
   21MOL    C88 6928   4.413   6.907   3.696 -0.1621  0.0776 -0.1088
   21MOL    C89 6929   4.340   6.975   3.592 -0.4630  0.4358  0.0210
   21MOL    C90 6930   4.204   6.997   3.598  0.6121 -0.5271 -0.9474
   21MOL    C91 6931   4.129   6.946   3.710  0.0712 -0.4349 -0.0077
   21MOL    O92 6932   3.995   6.954   3.705 -0.9845 -0.8076 -0.2144
   21MOL    C93 6933   4.197   6.871   3.809 -0.2232  0.1964  0.5333
   21MOL    C94 6934   4.336   6.857   3.805  0.1321 -0.8487  1.1456
   21MOL    C95 6935   4.656   6.995   3.679  0.6407  1.0197  0.5711
   21MOL    H96 6936   4.583   6.809   3.765  0.7448 -0.4579 -1.0628
   21MOL    H97 6937   4.395   7.019   3.510  1.0999 -1.2597  0.1265
   21MOL    H98 6938   4.156   7.049   3.517  3.1003  0.5115 -1.8079
   21MOL    H99 6939   3.949   6.940   3.787 -0.3136  2.8887  0.9062
   21MOL   H100 6940   4.136   6.822   3.884 -0.0363  0.2943  0.7490
   21MOL   H101 6941   4.388   6.796   3.877  1.9764 -2.0053 -1.1393
   21MOL   H102 6942   4.636   7.059   3.593 -3.3899  1.4250  1.7022
   21MOL   H103 6943   4.619   7.053   3.763  1.9241  1.7406  0.6549
   21MOL   C104 6944   4.807   6.979   3.714 -0.4880  0.8819 -0.0224
   21MOL   C105 6945   4.835   6.848   3.793 -0.0294  0.7623  0.2883
   21MOL   C106 6946   4.875   6.737   3.717 -0.8548  0.6787 -0.4986
   21MOL   C107 6947   4.903   6.613   3.775  0.0268  0.1386  0.4604
   21MOL   C108 6948   4.902   6.610   3.917  0.0245 -0.2968  0.8703
   21MOL   O109 6949   4.948   6.498   3.978  0.3850 -0.3521 -1.1179
   21MOL   C110 6950   4.865   6.719   3.996  0.1957  0.3720  0.4688
   21MOL   C111 6951   4.827   6.838   3.930  0.3022 -0.0511 -0.3350
   21MOL   C112 6952   4.857   7.110   3.773 -0.8513  0.1595 -0.9591
   21MOL   H113 6953   4.868   6.976   3.624  2.8516 -0.8077  2.2198
   21MOL   H114 6954   4.906   6.744   3.614 -0.9476 -2.1393 -0.7768
   21MOL   H115 6955   4.928   6.533   3.707  2.3152  0.3248  1.0600
   21MOL   H116 6956   4.977   6.515   4.066 -0.6359 -0.6842 -0.7103
   21MOL   H117 6957   4.854   6.709   4.103  1.0593 -1.2127  0.4411
   21MOL   H118 6958   4.791   6.910   4.002 -1.4900 -2.5716  1.3785
   21MOL   H119 6959   4.828   7.110   3.878 -0.6182  0.8107 -0.8925
   21MOL   H120 6960   4.806   7.199   3.735  0.7587  1.5260 -0.0049
   21MOL   C121 6961   5.005   7.141   3.755  0.6647  0.2658  0.5592
   21MOL   C122 6962   5.034   7.284   3.806  0.2039 -0.2690 -0.3878
   21MOL   C123 6963   5.003   7.323   3.939 -0.0659 -0.0520  0.1072
   21MOL   C124 6964   5.004   7.457   3.981 -0.6315 -0.6540 -0.0877
   21MOL   C125 6965   5.041   7.557   3.888  0.6349 -0.3926 -0.1051
   21MOL   O126 6966   5.032   7.688   3.919 -0.3321 -0.1055  0.1808
   21MOL   C127 6967   5.080   7.516   3.757 -0.1143 -0.2877 -0.0681
   21MOL   C128 6968   5.087   7.382   3.719 -0.0908 -0.4040 -0.0711
   21MOL   C129 6969   5.104   7.045   3.815 -0.0197  1.1880  0.3702
   21MOL   H130 6970   5.013   7.146   3.646  2.0753 -2.7709  0.4588
   21MOL   H131 6971   4.970   7.248   4.008  1.2399  0.1081  0.9210
   21MOL   H132 6972   4.965   7.485   4.078 -1.6644 -1.7659 -0.1566
   21MOL   H133 6973   5.056   7.752   3.853  2.2980 -0.1886  0.9727
   21MOL   H134 6974   5.113   7.594   3.690  0.8120  0.3712  1.1358
   21MOL   H135 6975   5.118   7.350   3.620 -0.7922 -0.1411 -0.3777
   21MOL   H136 6976   5.080   6.950   3.767 -0.1782  1.5538 -0.2788
   21MOL   H137 6977   5.091   7.031   3.922  0.6092  0.0024  0.2982
   21MOL   C138 6978   5.258   7.082   3.780 -0.0762  0.0251 -1.1441
   21MOL   C139 6979   5.282   7.094   3.628  0.0275  0.7944 -0.1238
   21MOL   C140 6980   5.355   7.209   3.585  0.3820 -0.3339 -0.5132
   21MOL   C141 6981   5.380   7.222   3.455 -0.1396 -0.0318 -0.0441
   21MOL   C142 6982   5.327   7.136   3.356 -0.4853  1.2316 -0.3370
   21MOL   O143 6983   5.366   7.152   3.227 -0.6111 -0.0333 -0.1185
   21MOL   C144 6984   5.251   7.026   3.397  0.1299  0.1188 -0.2901
   21MOL   C145 6985   5.228   7.006   3.537 -0.3740  0.2342 -0.4370
   21MOL   C146 6986   5.364   6.980   3.845  0.2433 -0.1073  0.4688
   21MOL   H147 6987   5.281   7.181   3.817 -1.6148  0.0212 -0.1005
   21MOL   H148 6988   5.387   7.284   3.655 -1.4820  0.0901 -0.0738
   21MOL   H149 6989   5.438   7.307   3.420  0.9226 -1.6685 -2.4047
   21MOL   H150 6990   5.343   7.073   3.179  0.2135  0.3635 -1.1772
   21MOL   H151 6991   5.205   6.960   3.326 -2.8163  0.5475  1.1467
   21MOL   H152 6992   5.181   6.916   3.574 -0.1237  0.4488  0.4072
   21MOL   H153 6993   5.461   7.015   3.808  0.0588 -0.4986 -0.4003
   21MOL   H154 6994   5.353   6.877   3.811  2.5876  0.2006 -1.4146
   21MOL   C155 6995   5.374   6.987   4.000 -0.0385  0.6061  0.8215
   21MOL   C156 6996   5.415   7.124   4.050  0.2603 -0.6392  0.2280
   21MOL   C157 6997   5.546   7.169   4.015 -0.0870  0.6912  0.0455
   21MOL   C158 6998   5.590   7.292   4.065  0.1527 -0.9081  0.0787
   21MOL   C159 6999   5.507   7.383   4.126 -0.1830  0.4541  0.0965
   21MOL   O160 7000   5.555   7.506   4.165 -0.1858  0.2971 -0.0117
   21MOL   C161 7001   5.378   7.334   4.165 -0.3560  0.5943  0.8428
   21MOL   C162 7002   5.332   7.205   4.124 -0.4595  0.3148 -0.0761
   21MOL   C163 7003   5.479   6.875   4.042  0.3671  0.5682 -0.3907
   21MOL   H164 7004   5.280   6.967   4.051  0.8623 -3.8257  0.9313
   21MOL   H165 7005   5.618   7.108   3.963  0.6329  1.5236  0.0544
   21MOL   H166 7006   5.696   7.316   4.064  0.0879 -0.4007  2.4140
   21MOL   H167 7007   5.496   7.552   4.223 -1.3738 -2.4586  1.0564
   21MOL   H168 7008   5.309   7.398   4.217 -0.5047  0.1267  1.2193
   21MOL   H169 7009   5.227   7.179   4.130 -1.0668  2.6401  0.1497
   21MOL   H170 7010   5.567   6.892   3.979  0.1284  0.2815 -0.8072
   21MOL   H171 7011   5.443   6.778   4.007  0.1718  0.2487  0.6978
   21MOL   C172 7012   5.506   6.862   4.193 -0.1857 -0.7013  0.2119
   21MOL   C173 7013   5.655   6.855   4.238  1.2163 -0.2399  0.1775
   21MOL   C174 7014   5.731   6.968   4.230 -0.3326  0.2151 -0.8264
   21MOL   C175 7015   5.860   6.965   4.291 -0.7703 -0.5353 -0.5013
   21MOL   C176 7016   5.919   6.844   4.326 -0.4194 -0.4223 -0.2678
   21MOL   O177 7017   6.050   6.834   4.354 -0.8256 -0.0561 -0.9279
   21MOL   C178 7018   5.844   6.728   4.331  0.2295 -0.3141  0.2478
   21MOL   C179 7019   5.706   6.732   4.295 -0.4127 -0.0015  0.4304
   21MOL   C180 7020   5.413   6.757   4.255  0.2023 -0.3183  0.7801
   21MOL   H181 7021   5.479   6.953   4.247 -0.5800 -2.4277  3.0494
   21MOL   H182 7022   5.696   7.064   4.195 -2.0367 -0.3605 -0.7388
   21MOL   H183 7023   5.918   7.055   4.283  0.1593 -1.1467 -0.7994
   21MOL   H184 7024   6.087   6.911   4.311  1.0718 -1.5832 -2.1270
   21MOL   H185 7025   5.886   6.632   4.359  4.5998  0.9333 -1.5705
   21MOL   H186 7026   5.648   6.643   4.314  2.4232 -1.6758  1.4482
   21MOL   H187 7027   5.460   6.659   4.239  1.4095  0.7386 -2.7918
   21MOL   H188 7028   5.326   6.752   4.190  1.1603  0.5432 -0.5971
   21MOL   C189 7029   5.379   6.794   4.402  0.5353 -0.6199  0.1871
   21MOL   C190 7030   5.276   6.900   4.406 -0.2484 -0.4413 -0.1525
   21MOL   C191 7031   5.148   6.886   4.352 -0.3139 -0.1697 -0.6584
   21MOL   C192 7032   5.061   7.003   4.343  0.2285  0.3133  0.2082
   21MOL   C193 7033   5.102   7.119   4.401 -0.7268  0.0053 -0.0236
   21MOL   O194 7034   5.004   7.220   4.391 -0.1037 -0.5491 -0.7140
   21MOL   C195 7035   5.227   7.133   4.467 -1.1773  0.4068  0.1375
   21MOL   C196 7036   5.308   7.023   4.462  0.1946  0.0907 -0.8059
   21MOL   C197 7037   5.327   6.675   4.488 -0.5631 -0.6287  1.0399
   21MOL   H198 7038   5.474   6.826   4.446  0.2692  0.1340  0.2161
   21MOL   H199 7039   5.113   6.794   4.307  0.4505 -2.5545  3.3996
   21MOL   H200 7040   4.966   7.002   4.291 -0.0351  0.3048  0.6761
   21MOL   H201 7041   5.014   7.269   4.472 -2.4604  1.2077 -1.4320
   21MOL   H202 7042   5.268   7.224   4.508 -0.2100  0.3224 -0.6286
   21MOL   H203 7043   5.404   7.025   4.511  0.3321 -2.5288 -0.9051
   21MOL   H204 7044   5.390   6.593   4.453  0.1228 -0.1500  1.1492
   21MOL   H205 7045   5.227   6.644   4.454 -0.7690  0.6206  0.4871
   21MOL   C206 7046   5.332   6.693   4.642 -0.0617 -0.9532  0.1977
   21MOL   C207 7047   5.470   6.746   4.681  0.3187 -0.8316  0.7952
   21MOL   C208 7048   5.583   6.667   4.642 -0.6679  0.6925 -0.6712
   21MOL   C209 7049   5.710   6.719   4.668 -0.5836 -0.4464 -0.2929
   21MOL   C210 7050   5.733   6.845   4.728  0.8659  0.7179 -0.1199
   21MOL   O211 7051   5.859   6.884   4.751  0.1430 -0.1881  0.7342
   21MOL   C212 7052   5.621   6.918   4.775  0.3552 -0.3220 -0.2193
   21MOL   C213 7053   5.494   6.864   4.752  0.8292 -0.6959 -0.4183
   21MOL   C214 7054   5.278   6.573   4.726  0.2873 -0.2566 -0.1661
   21MOL   H215 7055   5.261   6.770   4.672  1.5045 -0.1934  2.0655
   21MOL   H216 7056   5.570   6.569   4.600  2.4819  0.3773 -1.0550
   21MOL   H217 7057   5.797   6.662   4.640  0.9164  3.5841 -4.4470
   21MOL   H218 7058   5.919   6.830   4.702  1.7359  0.5356  1.8741
   21MOL   H219 7059   5.628   7.007   4.835 -0.8058 -0.6703  0.4591
   21MOL   H220 7060   5.412   6.921   4.795  1.6580  0.3618 -0.2118
   21MOL   H221 7061   5.314   6.591   4.827  1.4437  1.0389 -0.8009
   21MOL   H222 7062   5.331   6.481   4.701  1.2165 -0.6981  3.2893
   21MOL   C223 7063   5.127   6.550   4.719  0.2178  0.0041  0.1967
   21MOL   C224 7064   5.036   6.663   4.782  0.1765 -0.1109 -0.4127
   21MOL   C225 7065   4.923   6.708   4.713 -0.0762 -0.5219  0.1202
   21MOL   C226 7066   4.844   6.805   4.774  0.0025 -1.0830  0.4599
   21MOL   C227 7067   4.865   6.863   4.899  0.1015  0.9885  0.4047
   21MOL   O228 7068   4.781   6.962   4.936 -0.2818  0.2268 -0.2992
   21MOL   C229 7069   4.981   6.816   4.969  0.8538  0.2979 -0.1941
   21MOL   C230 7070   5.060   6.710   4.914 -0.4048 -0.4663 -0.0954
   21MOL   C231 7071   5.091   6.412   4.786 -0.6837  0.0332  0.9376
   21MOL   H232 7072   5.100   6.553   4.613  1.7483  0.3594 -0.1849
   21MOL   H233 7073   4.891   6.674   4.615 -2.0265 -0.0363  0.5677
   21MOL   H234 7074   4.756   6.851   4.730  2.0489  1.0574 -1.4968
   21MOL   H235 7075   4.807   6.978   5.026  2.5538 -3.5402 -0.2980
   21MOL   H236 7076   5.005   6.859   5.065  1.8567  1.0226 -0.7564
   21MOL   H237 7077   5.141   6.667   4.972  0.5205  1.2819 -0.0507
   21MOL   H238 7078   5.132   6.341   4.713  0.8462  0.0034  1.7994
   21MOL   H239 7079   5.147   6.421   4.879 -0.5557  1.1102  0.7686
   21MOL   C240 7080   4.940   6.385   4.818  0.5732 -0.2107  0.2865
   21MOL   C241 7081   4.870   6.348   4.690  0.0183 -0.5342 -0.0173
   21MOL   C242 7082   4.767   6.427   4.638  0.4567 -0.1478 -0.4526
   21MOL   C243 7083   4.696   6.402   4.518  0.6266  0.5988 -0.7529
   21MOL   C244 7084   4.728   6.280   4.445  0.5828 -0.1556 -0.3521
   21MOL   O245 7085   4.669   6.238   4.333  0.4315 -0.1634  0.2919
   21MOL   C246 7086   4.843   6.206   4.488  0.0361  0.6315 -0.4584
   21MOL   C247 7087   4.914   6.241   4.609 -0.2734 -0.3341 -0.4863
   21MOL   C248 7088   4.927   6.279   4.928 -0.0689  0.2870  0.0664
   21MOL   H249 7089   4.894   6.475   4.860  0.6203  0.1365 -0.4079
   21MOL   H250 7090   4.738   6.513   4.696 -0.8897 -1.1276  0.3706
   21MOL   H251 7091   4.622   6.471   4.481 -0.2151  0.9744  1.5459
   21MOL   H252 7092   4.594   6.292   4.312  0.7485  0.3487  0.4637
   21MOL   H253 7093   4.867   6.113   4.438 -1.2331 -0.6281  1.1936
   21MOL   H254 7094   5.000   6.187   4.644 -0.4318  0.6593  1.5551
   21MOL   H255 7095   4.914   6.185   4.873  0.9303 -0.1505  0.5619
   21MOL   H256 7096   5.021   6.268   4.982  1.4385 -1.8663 -2.8236
   21MOL   C257 7097   4.807   6.286   5.028  0.3281  0.3788  0.1818
   21MOL   C258 7098   4.793   6.151   5.091  0.7170 -0.0718 -0.0531
   21MOL   C259 7099   4.724   6.053   5.012 -0.0151 -0.3410  0.5703
   21MOL   C260 7100   4.703   5.923   5.065 -0.0052  0.4248 -0.3863
   21MOL   C261 7101   4.770   5.887   5.182 -0.0721  0.8112 -0.2111
   21MOL   O262 7102   4.746   5.757   5.228  0.2477  0.3322  0.1281
   21MOL   C263 7103   4.845   5.977   5.261 -0.1996  0.1526 -0.1036
   21MOL   C264 7104   4.854   6.110   5.214 -0.8661 -0.0328 -0.2895
   21MOL   C265 7105   4.828   6.405   5.125  0.2942  0.8890  0.5967
   21MOL   H266 7106   4.720   6.302   4.965 -2.3575 -3.1046  2.7885
   21MOL   H267 7107   4.676   6.091   4.923  1.0012  0.4032  0.3318
   21MOL   H268 7108   4.636   5.854   5.016  1.4634  0.0002 -1.8224
   21MOL   H269 7109   4.750   5.684   5.169  1.3055 -1.0552  1.8591
   21MOL   H270 7110   4.884   5.956   5.359  0.1667  1.5240  0.0609
   21MOL   H271 7111   4.930   6.174   5.256 -0.6328 -1.1038  0.9355
   21MOL   H272 7112   4.858   6.499   5.078 -0.1427  0.1596 -1.1744
   21MOL   H273 7113   4.896   6.374   5.205 -1.7219  0.2837  2.1250
   21MOL   C274 7114   4.699   6.452   5.192 -0.0544  0.0502  0.2578
   21MOL   C275 7115   4.591   6.473   5.085  0.4419 -0.0842  0.3911
   21MOL   C276 7116   4.471   6.401   5.091 -0.4312  0.4473  0.4215
   21MOL   C277 7117   4.362   6.427   5.004 -0.1642  0.4058 -0.8795
   21MOL   C278 7118   4.374   6.521   4.906 -0.5387 -0.2294 -0.0385
   21MOL   O279 7119   4.266   6.552   4.832 -0.3765  0.0741  0.4546
   21MOL   C280 7120   4.498   6.590   4.888 -0.0774  0.1738  0.4806
   21MOL   C281 7121   4.601   6.574   4.983 -0.3491 -0.0693 -0.6061
   21MOL   C282 7122   4.724   6.587   5.275 -0.4798 -0.6152 -0.5953
   21MOL   H283 7123   4.668   6.382   5.269  2.8977  0.4157  1.8525
   21MOL   H284 7124   4.467   6.320   5.162 -0.4157 -0.5781 -0.7285
   21MOL   H285 7125   4.270   6.372   5.019  1.5933 -2.2344  0.6158
   21MOL   H286 7126   4.307   6.575   4.751 -1.2424  2.6268  0.7112
   21MOL   H287 7127   4.502   6.669   4.815 -1.4453 -0.2741 -0.0768
   21MOL   H288 7128   4.682   6.645   4.988 -1.4509  1.1540  0.5748
   21MOL   H289 7129   4.776   6.668   5.223 -0.3478  0.5286  1.2931
   21MOL   H290 7130   4.622   6.625   5.280  1.6157  5.1477  1.5675
   21MOL   C291 7131   4.787   6.570   5.415  0.0977 -0.3278  1.2098
   21MOL   C292 7132   4.723   6.457   5.491  0.1232 -0.2046 -0.4340
   21MOL   C293 7133   4.798   6.344   5.504 -0.4766 -0.1811  0.0236
   21MOL   C294 7134   4.743   6.232   5.570 -0.1154 -0.3323 -0.5517
   21MOL   C295 7135   4.614   6.243   5.629 -0.2213  0.2342  0.5550
   21MOL   O296 7136   4.569   6.148   5.716  0.3289 -0.2449  0.8607
   21MOL   C297 7137   4.534   6.359   5.612 -0.0437 -0.2980  0.5880
   21MOL   C298 7138   4.587   6.464   5.539 -0.6363 -0.5088  0.2763
   21MOL   C299 7139   4.771   6.708   5.494  0.3918 -0.1885  0.7688
   21MOL   H300 7140   4.894   6.552   5.405  0.3504  1.8651 -0.4279
   21MOL   H301 7141   4.902   6.349   5.477 -0.8131 -0.7673 -1.4290
   21MOL   H302 7142   4.811   6.150   5.587  1.6705  1.0819 -0.7246
   21MOL   H303 7143   4.596   6.063   5.688  0.2676  0.8862 -2.8826
   21MOL   H304 7144   4.432   6.366   5.647 -0.3438  0.1302 -0.3473
   21MOL   H305 7145   4.530   6.556   5.537  0.9941  0.5110 -1.5509
   21MOL   H306 7146   4.664   6.726   5.484  0.9410  3.2064  0.6003
   21MOL   H307 7147   4.803   6.795   5.438 -0.2501 -0.9782 -0.8376
   21MOL   C308 7148   4.834   6.719   5.632  0.5022  0.6810 -0.1940
   21MOL   C309 7149   4.775   6.841   5.701  0.4970  0.2957 -0.1511
   21MOL   C310 7150   4.696   6.815   5.815 -0.7214 -0.2062  0.2243
   21MOL   C311 7151   4.631   6.924   5.874  1.1107 -0.0105 -0.3360
   21MOL   C312 7152   4.630   7.054   5.823  0.2713  0.1261  0.3095
   21MOL   O313 7153   4.549   7.147   5.877 -0.2890  0.2499 -0.8092
   21MOL   C314 7154   4.709   7.086   5.709 -0.1688  0.3798  0.0736
   21MOL   C315 7155   4.786   6.979   5.655  0.4565  0.0350  0.4057
   21MOL   C316 7156   4.983   6.708   5.634  0.7025  0.3348  0.1616
   21MOL   H317 7157   4.806   6.629   5.687  1.4663 -0.0378 -0.8699
   21MOL   H318 7158   4.671   6.714   5.844  1.2164 -1.4937 -2.4369
   21MOL   H319 7159   4.567   6.900   5.957  2.6497 -1.6981  0.3864
   21MOL   H320 7160   4.514   7.126   5.962  3.2427 -0.7320  0.4757
   21MOL   H321 7161   4.730   7.189   5.683  0.2777  0.8622  2.3038
   21MOL   H322 7162   4.843   6.996   5.566 -0.5002 -2.5273 -0.7623
   21MOL   H323 7163   5.017   6.795   5.578  1.4323  0.3497  0.6219
   21MOL   H324 7164   5.015   6.623   5.573 -0.1348  2.0184 -2.6544
   21MOL   C325 7165   5.052   6.708   5.771 -0.2659  0.2288 -0.0592
   21MOL   C326 7166   5.204   6.733   5.742  0.1448  0.0643  0.5651
   21MOL   C327 7167   5.275   6.626   5.685 -0.3699 -0.0003  0.0981
   21MOL   C328 7168   5.405   6.644   5.639  0.1268  0.6378 -0.3467
   21MOL   C329 7169   5.468   6.775   5.641  0.2044  0.3038 -0.7271
   21MOL   O330 7170   5.598   6.793   5.610 -0.3345 -0.4483 -0.1477
   21MOL   C331 7171   5.395   6.888   5.699  0.2227  0.3144 -0.4124
   21MOL   C332 7172   5.264   6.861   5.744  0.5919  0.2544 -0.5201
   21MOL   C333 7173   5.025   6.587   5.858 -0.1329  0.4637 -0.0943
   21MOL   H334 7174   5.015   6.794   5.826  3.1334  1.3705  0.5601
   21MOL   H335 7175   5.223   6.532   5.672 -2.5377  1.3627 -1.3981
   21MOL   H336 7176   5.466   6.562   5.603 -0.8633  0.6296 -2.0650
   21MOL   H337 7177   5.625   6.883   5.623  0.8731 -1.0627  1.6452
   21MOL   H338 7178   5.435   6.988   5.697  0.5838  0.2342  1.5388
   21MOL   H339 7179   5.213   6.945   5.787 -1.4257 -0.4915 -1.4092
   21MOL   H340 7180   5.063   6.495   5.815 -1.2697  0.2100 -0.5550
   21MOL   H341 7181   4.920   6.572   5.882  0.6178 -3.0957  1.1854
   21MOL   H342 7182   5.078   6.608   5.951 -0.7019 -0.1703  0.3691
   22MOL     C1 7183   0.206   6.324   7.567  0.0976 -0.4461  0.1425
   22MOL     C2 7184   0.116   6.440   7.535 -0.0156 -0.0442  0.1522
   22MOL     C3 7185   0.022   6.489   7.629  0.0580  0.2261  0.0297
   22MOL     C4 7186   7.988   6.602   7.600  0.1843  0.1856 -0.0974
   22MOL     C5 7187   8.000   6.669   7.477 -0.2600  0.2100  0.4348
   22MOL     O6 7188   7.923   6.781   7.438 -0.5896 -0.0022 -0.4106
   22MOL     C7 7189   0.063   6.624   7.385 -0.2087 -0.1026 -0.6359
   22MOL     C8 7190   0.133   6.505   7.414 -0.2976 -0.3850 -0.5682
   22MOL     C9 7191   0.313   6.369   7.670  0.8925 -0.1554 -0.3547
   22MOL    H10 7192   0.141   6.243   7.598 -0.9483 -0.1862 -1.3116
   22MOL    H11 7193   8.031   6.444   7.722  0.3198 -0.2816 -0.1298
   22MOL    H12 7194   7.911   6.635   7.668  0.9709 -0.3483  1.0672
   22MOL    H13 7195   7.851   6.799   7.497  0.5763  1.3029  0.6596
   22MOL    H14 7196   0.079   6.676   7.292 -2.1405  1.3650 -0.1648
   22MOL    H15 7197   0.215   6.475   7.351  0.8517 -1.1301  1.2282
   22MOL    H16 7198   0.381   6.288   7.695  0.6991  0.4307  2.1644
   22MOL    H17 7199   0.253   6.375   7.761  1.7138  0.2070  0.1674
   22MOL    H18 7200   0.259   6.298   7.475 -0.5798  2.1275 -1.0112
   22MOL    C19 7201   0.394   6.498   7.640  0.0870  0.3297 -0.0005
   22MOL    C20 7202   0.485   6.483   7.520  0.5798 -0.5225  0.1368
   22MOL    C21 7203   0.486   6.573   7.412 -0.8338  0.1640  0.2930
   22MOL    C22 7204   0.588   6.583   7.322  0.7414  0.6473  1.0235
   22MOL    C23 7205   0.699   6.502   7.341 -0.2067  0.2247  0.1674
   22MOL    O24 7206   0.813   6.500   7.262  0.0735 -0.9168 -0.4742
   22MOL    C25 7207   0.701   6.407   7.448 -0.0088  0.7896  0.9154
   22MOL    C26 7208   0.596   6.398   7.541  0.3514 -0.3640 -0.3676
   22MOL    C27 7209   0.462   6.553   7.762  0.1898 -0.0336  0.0137
   22MOL    H28 7210   0.324   6.576   7.607 -1.9050 -0.8752  1.2529
   22MOL    H29 7211   0.407   6.647   7.410  0.9114  2.0519 -0.5555
   22MOL    H30 7212   0.585   6.664   7.251 -1.4604  0.6972  1.1439
   22MOL    H31 7213   0.814   6.570   7.198  0.4479 -0.5227 -0.0397
   22MOL    H32 7214   0.790   6.347   7.457 -0.2897 -0.0508 -1.4470
   22MOL    H33 7215   0.603   6.335   7.628 -3.5717  0.5649  0.7157
   22MOL    H34 7216   0.530   6.481   7.807  2.5764  2.3846  0.3930
   22MOL    H35 7217   0.391   6.571   7.843 -0.3461 -0.0673 -0.4499
   22MOL    C36 7218   0.536   6.682   7.740 -0.8010 -0.3236  0.5417
   22MOL    C37 7219   0.643   6.689   7.845  0.1052  0.6056  0.4947
   22MOL    C38 7220   0.623   6.767   7.963 -0.2895 -0.4308 -0.5970
   22MOL    C39 7221   0.719   6.769   0.025 -0.0296  0.5062 -0.1138
   22MOL    C40 7222   0.843   6.705   8.035 -0.0897  1.0638  0.1072
   22MOL    O41 7223   0.947   6.722   0.079  0.0443  0.1971  0.0143
   22MOL    C42 7224   0.856   6.612   7.929 -0.4038  0.4217  0.1759
   22MOL    C43 7225   0.755   6.608   7.831 -0.1212 -1.1405  0.6362
   22MOL    C44 7226   0.436   6.802   7.735  0.2580  0.2932 -0.0301
   22MOL    H45 7227   0.592   6.687   7.646  2.2657 -0.2770  2.3175
   22MOL    H46 7228   0.535   6.828   7.976 -2.0325 -2.7702 -1.0228
   22MOL    H47 7229   0.710   6.832   0.112 -1.7657 -0.5325  0.4792
   22MOL    H48 7230   1.018   6.670   0.045  1.2612  1.1533  1.0538
   22MOL    H49 7231   0.942   6.546   7.930  0.1506  1.0920 -1.5872
   22MOL    H50 7232   0.769   6.547   7.743  0.5236 -1.0805  0.6931
   22MOL    H51 7233   0.360   6.788   7.658  0.9832  1.6118 -1.0212
   22MOL    H52 7234   0.379   6.808   7.828  1.2448 -1.0155  0.6709
   22MOL    C53 7235   0.491   6.938   7.708  0.5144 -0.6328 -0.0338
   22MOL    C54 7236   0.549   6.947   7.573  0.1923  0.0536 -0.5230
   22MOL    C55 7237   0.470   6.983   7.461  0.0519 -0.0272 -0.1179
   22MOL    C56 7238   0.520   6.994   7.330 -0.8444  0.3344  0.5523
   22MOL    C57 7239   0.653   6.956   7.305 -0.1780 -0.8711  0.5075
   22MOL    O58 7240   0.699   6.966   7.180  0.3496 -0.3648  0.2588
   22MOL    C59 7241   0.734   6.918   7.415 -0.4061  0.2866 -0.5085
   22MOL    C60 7242   0.685   6.916   7.545 -0.2028 -0.0663 -0.0988
   22MOL    C61 7243   0.400   7.059   7.746 -0.3137 -0.2334 -0.1462
   22MOL    H62 7244   0.566   6.941   7.787 -1.8106  0.2924  2.2319
   22MOL    H63 7245   0.364   6.993   7.476 -0.0124 -2.2302  1.2244
   22MOL    H64 7246   0.455   7.025   7.249 -0.7241 -1.7581 -0.3701
   22MOL    H65 7247   0.792   6.952   7.175  0.6163  1.3982 -0.4204
   22MOL    H66 7248   0.841   6.903   7.405 -0.8693 -2.6175 -1.4979
   22MOL    H67 7249   0.749   6.891   7.629  1.5321 -2.5227 -2.0892
   22MOL    H68 7250   0.345   7.042   7.838  0.0547  1.7570  0.4542
   22MOL    H69 7251   0.320   7.070   7.672 -1.5538  1.2111  1.3739
   22MOL    C70 7252   0.486   7.184   7.760  0.1165  0.8309  0.1751
   22MOL    C71 7253   0.595   7.178   7.872 -0.4431 -0.3791 -0.3057
   22MOL    C72 7254   0.560   7.218   8.006 -1.1834  0.4282  0.7931
   22MOL    C73 7255   0.654   7.196   0.074  0.1390 -0.5836  0.0827
   22MOL    C74 7256   0.780   7.139   0.051 -0.3202 -0.5418 -0.9950
   22MOL    O75 7257   0.860   7.119   0.161 -0.0947 -0.1152  0.5096
   22MOL    C76 7258   0.820   7.108   7.959  0.5024  0.2483  0.3208
   22MOL    C77 7259   0.727   7.126   7.852 -0.0541  0.9565 -0.0992
   22MOL    C78 7260   0.394   7.311   7.767  0.0859  0.2854  0.2109
   22MOL    H79 7261   0.536   7.190   7.663 -2.0283 -0.8829 -1.0733
   22MOL    H80 7262   0.464   7.261   8.032 -1.5126 -0.3010  0.7935
   22MOL    H81 7263   0.626   7.235   0.170  1.6057 -1.3296  0.8318
   22MOL    H82 7264   0.857   7.178   0.234  1.5171  0.4421  0.1299
   22MOL    H83 7265   0.918   7.066   7.942  0.7324  1.6510 -2.0484
   22MOL    H84 7266   0.761   7.100   7.752 -0.6512 -1.9438  0.4031
   22MOL    H85 7267   0.329   7.314   7.855  1.6805  2.6011  1.3602
   22MOL    H86 7268   0.323   7.316   7.685 -0.8794  1.1625  1.0879
   22MOL    C87 7269   0.476   7.445   7.765 -0.7718  0.1225  0.5864
   22MOL    C88 7270   0.399   7.560   7.829  0.8892 -0.1692  1.2793
   22MOL    C89 7271   0.284   7.604   7.757  0.0611 -0.4665 -0.2504
   22MOL    C90 7272   0.194   7.691   7.822  0.4193 -0.4706 -0.3438
   22MOL    C91 7273   0.215   7.729   7.957  0.1470  0.1767 -0.3902
   22MOL    O92 7274   0.130   7.810   8.020  0.2501 -0.1809 -0.3062
   22MOL    C93 7275   0.326   7.681   8.031  0.9024 -0.6319 -0.7281
   22MOL    C94 7276   0.428   7.614   7.960  0.6001 -0.1560 -0.0602
   22MOL    C95 7277   0.532   7.485   7.627 -0.2020  0.1545 -0.0133
   22MOL    H96 7278   0.555   7.427   7.837 -1.1183 -1.5572  0.5638
   22MOL    H97 7279   0.256   7.561   7.663 -0.9356 -0.4586  0.0431
   22MOL    H98 7280   0.107   7.729   7.769 -0.2942  0.6299  1.5777
   22MOL    H99 7281   0.168   7.822   0.068  0.2740 -4.2662  0.3374
   22MOL   H100 7282   0.336   7.716   0.095  1.7579 -1.1568 -0.6274
   22MOL   H101 7283   0.520   7.582   8.007 -0.0406 -2.6313 -0.4143
   22MOL   H102 7284   0.550   7.393   7.572  1.4718  1.4091 -1.6278
   22MOL   H103 7285   0.451   7.532   7.572 -0.7250 -0.6509  0.0471
   22MOL   C104 7286   0.664   7.570   7.631 -0.2779 -0.3219  0.1612
   22MOL   C105 7287   0.688   7.676   7.519  0.5899 -0.5103 -0.0331
   22MOL   C106 7288   0.692   7.642   7.386  0.2701 -0.3053 -0.0228
   22MOL   C107 7289   0.732   7.741   7.293  0.1898  0.5435  0.2206
   22MOL   C108 7290   0.761   7.866   7.338  0.0272 -0.1198 -0.3968
   22MOL   O109 7291   0.810   7.951   7.242 -0.0501  0.2106  0.6579
   22MOL   C110 7292   0.748   7.905   7.470  0.5437  0.4905 -0.7786
   22MOL   C111 7293   0.711   7.812   7.565  0.0388  0.4222  1.0730
   22MOL   C112 7294   0.783   7.471   7.644  0.7730 -0.6668  0.2231
   22MOL   H113 7295   0.665   7.627   7.724  2.7207  0.8396 -0.5281
   22MOL   H114 7296   0.673   7.540   7.357  3.4969 -0.9044 -0.1861
   22MOL   H115 7297   0.736   7.709   7.190  0.6210 -1.3169  0.7826
   22MOL   H116 7298   0.804   0.004   7.268 -2.5165 -0.0559  1.1405
   22MOL   H117 7299   0.767   8.005   7.506  0.2319 -0.8694  3.4436
   22MOL   H118 7300   0.705   7.850   7.666  0.7835  4.0769 -0.1654
   22MOL   H119 7301   0.804   7.432   7.545 -1.8723  2.5983 -1.7394
   22MOL   H120 7302   0.760   7.389   7.711 -1.3009 -1.8521 -1.8758
   22MOL   C121 7303   0.922   7.533   7.682  0.4049  0.5946 -0.7438
   22MOL   C122 7304   0.912   7.566   7.833  0.4323 -0.7787  0.7028
   22MOL   C123 7305   0.918   7.703   7.868 -0.6612 -0.2672 -0.1269
   22MOL   C124 7306   0.875   7.743   7.997  0.4655  0.2979 -0.9993
   22MOL   C125 7307   0.842   7.650   0.055 -0.0587  0.6730 -0.5613
   22MOL   O126 7308   0.793   7.689   0.174 -0.0809  0.5579  0.1586
   22MOL   C127 7309   0.855   7.516   0.026 -0.3226 -0.6378 -0.1055
   22MOL   C128 7310   0.879   7.476   7.932 -0.7446 -0.4992 -0.2966
   22MOL   C129 7311   1.047   7.440   7.665 -0.8887 -0.0484  0.5654
   22MOL   H130 7312   0.936   7.622   7.621 -0.2127 -0.5343 -2.5718
   22MOL   H131 7313   0.938   7.781   7.796 -0.3531 -0.0183  0.2207
   22MOL   H132 7314   0.885   7.847   8.022 -1.3095  0.4448 -0.8349
   22MOL   H133 7315   0.802   7.783   0.175  2.1858  0.4594  6.3447
   22MOL   H134 7316   0.838   7.435   0.095  1.0011 -0.8660 -0.0201
   22MOL   H135 7317   0.883   7.369   7.915  2.6229 -0.1148 -2.4051
   22MOL   H136 7318   1.042   7.336   7.698 -0.5698  0.0156  0.8210
   22MOL   H137 7319   1.128   7.474   7.731 -3.0004  2.0061  2.2006
   22MOL   C138 7320   1.117   7.456   7.537 -0.2861 -0.5045  0.6881
   22MOL   C139 7321   1.027   7.413   7.423 -0.2157 -0.0817 -0.0951
   22MOL   C140 7322   0.995   7.495   7.316  0.5207  0.1601  0.1888
   22MOL   C141 7323   0.895   7.450   7.225 -0.0953 -0.8554  0.5032
   22MOL   C142 7324   0.833   7.324   7.226  0.0449  0.0178 -0.2294
   22MOL   O143 7325   0.727   7.285   7.141  0.2281 -0.1618 -0.7394
   22MOL   C144 7326   0.882   7.237   7.324  0.5608  0.8744  0.0384
   22MOL   C145 7327   0.978   7.282   7.422 -0.1334 -0.0654 -0.1799
   22MOL   C146 7328   1.260   7.397   7.539  0.0694  0.7327  0.4979
   22MOL   H147 7329   1.122   7.565   7.535 -0.7660 -0.4766  0.9742
   22MOL   H148 7330   1.027   7.598   7.319  0.4729  0.3115 -2.8406
   22MOL   H149 7331   0.868   7.523   7.150 -0.9801  0.2823  1.9243
   22MOL   H150 7332   0.696   7.196   7.146 -0.0758  0.0340  1.5629
   22MOL   H151 7333   0.832   7.141   7.316 -1.1126  1.5598  1.7933
   22MOL   H152 7334   1.013   7.212   7.497  2.3398  0.5291 -0.7552
   22MOL   H153 7335   1.250   7.291   7.562  2.2371  0.8741  2.2690
   22MOL   H154 7336   1.316   7.439   7.623 -0.9120  0.0090  1.5280
   22MOL   C155 7337   1.343   7.388   7.405 -1.1074 -0.2739 -0.0917
   22MOL   C156 7338   1.449   7.278   7.410  0.2409 -0.3246  0.3896
   22MOL   C157 7339   1.529   7.259   7.523 -0.0702  0.5966  0.4671
   22MOL   C158 7340   1.632   7.161   7.527  0.0596 -0.5390 -0.0834
   22MOL   C159 7341   1.646   7.077   7.417 -0.2744 -0.8001 -0.5336
   22MOL   O160 7342   1.752   6.993   7.416 -0.0347  0.0688  0.0072
   22MOL   C161 7343   1.564   7.091   7.306 -1.0143  0.3209  0.5150
   22MOL   C162 7344   1.463   7.197   7.300 -0.6428 -0.3032  0.0729
   22MOL   C163 7345   1.403   7.524   7.376  0.6859 -0.6310 -0.3827
   22MOL   H164 7346   1.277   7.355   7.325 -0.6369 -0.7521 -0.2784
   22MOL   H165 7347   1.512   7.320   7.611 -0.0060 -1.9519  2.2919
   22MOL   H166 7348   1.699   7.154   7.612  0.8368 -0.9114 -0.7277
   22MOL   H167 7349   1.778   6.985   7.325 -1.3606 -1.0764 -0.2838
   22MOL   H168 7350   1.585   7.028   7.221  0.9787  0.4731  0.8724
   22MOL   H169 7351   1.407   7.208   7.208  0.2772 -0.0530 -0.4678
   22MOL   H170 7352   1.442   7.568   7.467  0.4630  1.0214 -1.0624
   22MOL   H171 7353   1.316   7.589   7.364  1.2651  0.2293  0.0460
   22MOL   C172 7354   1.499   7.531   7.260 -0.5158 -0.5570 -0.0503
   22MOL   C173 7355   1.560   7.674   7.255  0.4224  0.3261 -0.4289
   22MOL   C174 7356   1.701   7.695   7.249 -0.0585  0.2577  0.1371
   22MOL   C175 7357   1.759   7.826   7.251  0.3810  0.4394 -0.5356
   22MOL   C176 7358   1.676   7.935   7.274 -0.3294  0.6783  0.5561
   22MOL   O177 7359   1.713   0.024   7.293  0.4401 -0.0323  0.1772
   22MOL   C178 7360   1.537   7.916   7.267 -0.9046 -0.0154 -0.6292
   22MOL   C179 7361   1.478   7.789   7.257  0.6027 -0.5307  0.4278
   22MOL   C180 7362   1.433   7.509   7.126  0.4445 -0.6848  0.0347
   22MOL   H181 7363   1.580   7.462   7.285  1.0392  1.5856  0.9296
   22MOL   H182 7364   1.764   7.607   7.250 -1.4095 -0.7289  0.1786
   22MOL   H183 7365   1.866   7.840   7.240  0.4286 -0.4458 -1.2674
   22MOL   H184 7366   1.796   0.063   7.267  0.8753 -1.5919 -0.8513
   22MOL   H185 7367   1.474   8.003   7.281  0.3181  0.5693  1.4446
   22MOL   H186 7368   1.370   7.780   7.257  0.6234 -0.7811 -1.1130
   22MOL   H187 7369   1.360   7.587   7.107  0.9697 -0.5239 -1.4480
   22MOL   H188 7370   1.373   7.418   7.132 -2.2693  0.8855 -2.2061
   22MOL   C189 7371   1.524   7.499   7.003  0.3085  0.2837 -0.0368
   22MOL   C190 7372   1.471   7.384   6.918  0.2914 -0.2983 -0.4976
   22MOL   C191 7373   1.560   7.280   6.877 -0.2671 -0.5616  0.1269
   22MOL   C192 7374   1.512   7.180   6.801  0.7289  0.0087  0.1807
   22MOL   C193 7375   1.383   7.176   6.747  0.3656  0.1809 -0.1895
   22MOL   O194 7376   1.345   7.082   6.661  0.3354 -0.7211  0.2347
   22MOL   C195 7377   1.295   7.280   6.779 -0.1643 -0.1262 -0.0603
   22MOL   C196 7378   1.338   7.382   6.871 -0.6411  0.3647 -0.5509
   22MOL   C197 7379   1.544   7.632   6.911 -0.0594 -0.5167  0.0498
   22MOL   H198 7380   1.618   7.471   7.052  0.8566 -2.0404 -2.2282
   22MOL   H199 7381   1.661   7.276   6.915 -0.7996  0.0871  1.6386
   22MOL   H200 7382   1.565   7.089   6.783  0.6206 -0.2190  0.9865
   22MOL   H201 7383   1.415   7.034   6.620  0.2244  0.4896 -1.4206
   22MOL   H202 7384   1.191   7.283   6.750  0.1375  0.4147 -1.1073
   22MOL   H203 7385   1.264   7.456   6.899 -1.3375 -0.4441 -0.2283
   22MOL   H204 7386   1.554   7.708   6.988 -1.8278 -0.9026  0.6943
   22MOL   H205 7387   1.459   7.660   6.849  0.6236  2.0342  0.2347
   22MOL   C206 7388   1.671   7.621   6.820 -0.2931  0.5245 -0.5497
   22MOL   C207 7389   1.732   7.757   6.807 -0.2618 -0.8971 -0.5663
   22MOL   C208 7390   1.671   7.859   6.730 -0.0025 -0.5974  0.5814
   22MOL   C209 7391   1.726   7.985   6.717 -0.6932 -0.1066  1.1387
   22MOL   C210 7392   1.845   8.012   6.786  0.0260 -0.2634 -0.3818
   22MOL   O211 7393   1.901   0.101   6.789  0.0530  0.2642  0.2088
   22MOL   C212 7394   1.909   7.913   6.869 -0.0847  0.2105 -0.1341
   22MOL   C213 7395   1.853   7.787   6.881 -0.3745 -0.9908  0.5290
   22MOL   C214 7396   1.639   7.547   6.684  0.4866 -0.4686 -0.3704
   22MOL   H215 7397   1.743   7.556   6.868 -0.8856  0.5163  0.3348
   22MOL   H216 7398   1.569   7.839   6.701  0.0097 -0.2167  0.2694
   22MOL   H217 7399   1.669   0.028   6.673  0.7528 -0.0316 -0.6309
   22MOL   H218 7400   1.849   0.153   6.730 -0.7776 -0.1913  0.5356
   22MOL   H219 7401   2.008   7.927   6.909 -0.2892  0.8316  0.1618
   22MOL   H220 7402   1.896   7.705   6.936  0.5957 -0.5371  0.4638
   22MOL   H221 7403   1.577   7.600   6.611 -1.8558 -0.5578  1.4654
   22MOL   H222 7404   1.569   7.463   6.691 -1.1053  0.9868  2.0659
   22MOL   C223 7405   1.755   7.518   6.585 -0.6319  0.1481 -0.0378
   22MOL   C224 7406   1.861   7.420   6.636  0.4840  0.6382  0.3873
   22MOL   C225 7407   1.963   7.453   6.723 -0.2683  0.2298  0.3537
   22MOL   C226 7408   2.041   7.355   6.786 -0.5552  0.1443 -0.6997
   22MOL   C227 7409   2.034   7.223   6.747  0.4142 -0.0164  0.0298
   22MOL   O228 7410   2.131   7.134   6.782 -0.3128 -0.1320 -0.1542
   22MOL   C229 7411   1.932   7.185   6.657 -0.0456  0.3468  0.7303
   22MOL   C230 7412   1.845   7.284   6.603  0.0163  0.5508 -0.4935
   22MOL   C231 7413   1.820   7.646   6.528  0.0702  0.4752 -0.9277
   22MOL   H232 7414   1.710   7.475   6.495  0.9588  0.8281 -1.1881
   22MOL   H233 7415   1.968   7.559   6.744  0.5196 -0.1447  2.0817
   22MOL   H234 7416   2.116   7.379   6.860 -0.7037  0.7997 -0.7592
   22MOL   H235 7417   2.118   7.045   6.753  0.0447  0.3863 -2.0026
   22MOL   H236 7418   1.915   7.085   6.619  0.0831  0.7488 -0.4038
   22MOL   H237 7419   1.764   7.258   6.537  0.1429  0.1559 -0.4946
   22MOL   H238 7420   1.740   7.716   6.505 -0.4326 -0.5447 -2.2890
   22MOL   H239 7421   1.874   7.695   6.609  1.4920 -2.5224  0.0042
   22MOL   C240 7422   1.909   7.642   6.402 -0.2122 -0.3713  0.8797
   22MOL   C241 7423   1.842   7.563   6.282  0.3934  0.3617 -0.2733
   22MOL   C242 7424   1.921   7.480   6.197 -0.1606 -0.3270  0.1241
   22MOL   C243 7425   1.874   7.415   6.085  0.3864 -0.6914 -0.2466
   22MOL   C244 7426   1.736   7.431   6.053  0.0240 -0.5810  0.6633
   22MOL   O245 7427   1.681   7.377   5.939 -0.0689  0.4393  0.0001
   22MOL   C246 7428   1.656   7.514   6.140 -0.0147  0.8767  0.3609
   22MOL   C247 7429   1.706   7.580   6.252  0.5569 -0.4845 -0.6499
   22MOL   C248 7430   1.961   7.785   6.367 -0.3844 -0.0337  0.1340
   22MOL   H249 7431   1.987   7.576   6.439  0.1035 -0.0134  0.8567
   22MOL   H250 7432   2.025   7.475   6.226 -0.1567 -3.3202 -0.2676
   22MOL   H251 7433   1.954   7.364   6.033  1.8109  2.0104 -0.7908
   22MOL   H252 7434   1.726   7.299   5.909 -0.5028  0.2980 -0.2784
   22MOL   H253 7435   1.554   7.532   6.110  0.6179  1.2897 -1.5826
   22MOL   H254 7436   1.640   7.642   6.310  1.1526 -0.0137 -0.4748
   22MOL   H255 7437   1.964   7.783   6.258  1.5612 -0.4639  0.1803
   22MOL   H256 7438   1.890   7.866   6.387 -0.6725 -0.1749 -0.3023
   22MOL   C257 7439   2.101   7.805   6.423 -0.0614 -0.1900 -0.6486
   22MOL   C258 7440   2.208   7.712   6.369  0.4080  0.7035  0.4224
   22MOL   C259 7441   2.234   7.707   6.226 -0.3297  0.1142  0.8609
   22MOL   C260 7442   2.350   7.651   6.173 -0.0981 -0.5348 -0.6938
   22MOL   C261 7443   2.439   7.592   6.261 -0.6972  0.5972 -0.0478
   22MOL   O262 7444   2.559   7.550   6.216  0.3694 -0.0096  0.2366
   22MOL   C263 7445   2.412   7.567   6.400  0.2095 -0.1374  0.0549
   22MOL   C264 7446   2.295   7.635   6.452 -0.3659  0.1975  0.1782
   22MOL   C265 7447   2.142   7.952   6.407 -0.4078 -0.4901 -0.3501
   22MOL   H266 7448   2.100   7.782   6.529 -0.7555 -1.0936 -0.8431
   22MOL   H267 7449   2.164   7.766   6.169  0.9530  0.3235 -0.5123
   22MOL   H268 7450   2.368   7.656   6.067  2.0188 -1.3900 -0.4018
   22MOL   H269 7451   2.570   7.559   6.123 -0.8448  1.1224  0.1978
   22MOL   H270 7452   2.494   7.530   6.460 -0.5424 -0.6947  0.7587
   22MOL   H271 7453   2.284   7.641   6.559 -0.9020  3.4878  0.0028
   22MOL   H272 7454   2.065   8.024   6.434  0.1907 -0.6929  1.9781
   22MOL   H273 7455   2.152   7.963   6.299 -4.9374 -0.5706 -0.8774
   22MOL   C274 7456   2.277   7.997   6.470 -0.2532  0.7516  0.2395
   22MOL   C275 7457   2.287   7.991   6.625 -0.7611 -0.5107 -0.2316
   22MOL   C276 7458   2.376   7.902   6.695 -0.2231  0.0265 -0.3760
   22MOL   C277 7459   2.384   7.900   6.839  0.0155 -0.1894  0.3581
   22MOL   C278 7460   2.311   7.999   6.913 -0.0456  0.4356  0.1939
   22MOL   O279 7461   2.293   8.002   7.051  0.0614  0.2086  0.2368
   22MOL   C280 7462   2.220   0.045   6.835 -0.2962 -0.2612 -0.4616
   22MOL   C281 7463   2.213   0.049   6.696  0.2900 -0.3946  0.4634
   22MOL   C282 7464   2.321   0.101   6.408  0.2796 -0.1207 -1.0774
   22MOL   H283 7465   2.349   7.921   6.439 -0.2331  0.5701  0.7215
   22MOL   H284 7466   2.439   7.830   6.645 -1.3371 -0.6677 -0.7773
   22MOL   H285 7467   2.442   7.820   6.882  0.2139 -0.2134  0.0509
   22MOL   H286 7468   2.356   7.951   7.100  0.2249 -0.3180 -0.5265
   22MOL   H287 7469   2.156   0.112   6.891  0.7270 -0.2542  0.7317
   22MOL   H288 7470   2.144   0.112   6.642 -0.5933 -0.2605  1.7207
   22MOL   H289 7471   2.283   0.102   6.306 -2.2103 -0.4869 -0.1900
   22MOL   H290 7472   2.271   0.184   6.458  2.3550 -0.6265  1.9895
   22MOL   C291 7473   2.471   0.136   6.399  0.4910  0.7157  0.0711
   22MOL   C292 7474   2.531   0.020   6.308 -0.1296 -0.3324 -0.4987
   22MOL   C293 7475   2.518   0.032   6.166 -0.2068  0.0370 -0.1552
   22MOL   C294 7476   2.585   7.978   6.081 -0.4768  0.0670  0.4298
   22MOL   C295 7477   2.676   7.883   6.133  0.3946  0.2892 -0.7790
   22MOL   O296 7478   2.748   7.808   6.052 -0.3114 -0.1585  0.2822
   22MOL   C297 7479   2.690   7.872   6.274 -0.4429 -0.1426  0.2696
   22MOL   C298 7480   2.617   7.958   6.357 -0.4858  0.2217  0.1147
   22MOL   C299 7481   2.543   0.156   6.534 -0.0056  0.2573  0.1907
   22MOL   H300 7482   2.465   0.226   6.337 -1.9531  0.2518 -0.4091
   22MOL   H301 7483   2.445   0.103   6.130 -1.3559 -0.0647  1.8565
   22MOL   H302 7484   2.571   7.996   5.976  0.4701  0.9866  0.4544
   22MOL   H303 7485   2.837   7.791   6.078 -0.0633 -0.8795 -0.9751
   22MOL   H304 7486   2.768   7.805   6.306  0.6261 -0.0193 -1.9511
   22MOL   H305 7487   2.634   7.956   6.464  0.4534 -1.9447 -0.0540
   22MOL   H306 7488   2.651   0.155   6.524 -0.1036 -2.5882 -0.9666
   22MOL   H307 7489   2.537   0.066   6.595 -2.7213  0.0468 -0.3178
   22MOL   C308 7490   2.484   0.269   6.616 -0.0543 -0.0421 -0.2108
   22MOL   C309 7491   2.505   0.413   6.563 -0.7493 -0.4021 -1.1619
   22MOL   C310 7492   2.397   0.481   6.501  0.3184  0.6097  0.0049
   22MOL   C311 7493   2.419   0.618   6.465 -0.0348 -0.1062  0.1795
   22MOL   C312 7494   2.543   0.676   6.485  0.4750  0.1344  1.3400
   22MOL   O313 7495   2.554   0.811   6.463 -0.3163 -0.5293  0.0495
   22MOL   C314 7496   2.653   0.603   6.530 -0.4152  0.6004 -0.2347
   22MOL   C315 7497   2.634   0.470   6.569  0.5706 -0.0818 -0.2577
   22MOL   C316 7498   2.538   0.262   6.761 -0.9414  0.1487  0.2216
   22MOL   H317 7499   2.377   0.265   6.633  0.0691 -0.2605  0.5003
   22MOL   H318 7500   2.298   0.441   6.484 -0.1987  2.2319 -0.8846
   22MOL   H319 7501   2.340   0.687   6.442  1.3946  1.5818  0.2037
   22MOL   H320 7502   2.630   0.857   6.497  1.2075 -1.8153 -1.5135
   22MOL   H321 7503   2.752   0.640   6.552  0.1008 -1.6037  1.3155
   22MOL   H322 7504   2.715   0.419   6.619 -1.5285 -3.8921 -0.5808
   22MOL   H323 7505   2.647   0.251   6.757 -1.1211 -3.0776  2.2603
   22MOL   H324 7506   2.521   0.168   6.813 -0.6683 -0.4850 -0.8045
   22MOL   C325 7507   2.509   0.372   6.863 -0.4614 -0.5232 -0.3045
   22MOL   C326 7508   2.579   0.343   6.998 -0.5057 -0.3133  0.4293
   22MOL   C327 7509   2.512   0.312   7.119 -0.1565 -0.2524  0.5699
   22MOL   C328 7510   2.583   0.265   7.234  0.2455 -0.4135  0.2386
   22MOL   C329 7511   2.722   0.239   7.223  0.1671  0.2379 -0.1323
   22MOL   O330 7512   2.775   0.173   7.334  0.5215 -0.6458  0.0676
   22MOL   C331 7513   2.786   0.279   7.105 -0.2159  0.4121 -0.0817
   22MOL   C332 7514   2.721   0.336   6.995  0.4964 -0.0682  0.9161
   22MOL   C333 7515   2.357   0.400   6.882 -0.4263 -0.0762 -0.1383
   22MOL   H334 7516   2.548   0.469   6.830  2.8020 -1.4881  0.5686
   22MOL   H335 7517   2.404   0.316   7.124 -0.0523  1.7051  1.8627
   22MOL   H336 7518   2.512   0.252   7.314  0.7924  1.7380  1.1194
   22MOL   H337 7519   2.867   0.153   7.326  1.0115  1.7924 -1.0195
   22MOL   H338 7520   2.890   0.257   7.089 -1.1092 -1.9707 -3.3810
   22MOL   H339 7521   2.773   0.353   6.902  2.0585 -0.9599  1.6037
   22MOL   H340 7522   2.314   0.429   6.786 -0.4593 -1.4564 -0.5585
   22MOL   H341 7523   2.344   0.492   6.939 -2.3661 -0.4190  0.0106
   22MOL   H342 7524   2.308   0.312   6.924 -0.0404 -0.6729 -0.9249
   23MOL     C1 7525   1.783   1.431   3.493 -0.2353  0.6721 -0.0592
   23MOL     C2 7526   1.828   1.514   3.375 -0.0212 -0.6466  0.2028
   23MOL     C3 7527   1.963   1.556   3.366 -0.1121  0.1536  0.3593
   23MOL     C4 7528   2.010   1.619   3.248 -0.1884 -0.4830  0.6165
   23MOL     C5 7529   1.926   1.638   3.137 -0.2641  0.3245  0.0383
   23MOL     O6 7530   1.976   1.678   3.019 -0.5277 -0.0302  0.3420
   23MOL     C7 7531   1.787   1.611   3.159 -0.0408 -0.5742 -0.1268
   23MOL     C8 7532   1.739   1.547   3.273 -0.3741 -0.1935 -0.0184
   23MOL     C9 7533   1.849   1.293   3.511 -0.3679 -0.5621 -0.1339
   23MOL    H10 7534   1.818   1.496   3.573  1.2328 -1.8014  1.3825
   23MOL    H11 7535   2.020   1.546   3.457  1.8102 -1.4568 -0.9722
   23MOL    H12 7536   2.114   1.649   3.236 -1.0689  1.3509 -3.0983
   23MOL    H13 7537   1.904   1.719   2.972 -0.1115 -2.4627 -2.5455
   23MOL    H14 7538   1.723   1.658   3.087 -0.2971 -1.0190 -0.1927
   23MOL    H15 7539   1.635   1.517   3.281 -0.2473 -0.3097  1.2680
   23MOL    H16 7540   1.827   1.256   3.611  0.7306  0.3682  0.4709
   23MOL    H17 7541   1.956   1.308   3.497 -0.4677  0.9369  0.6378
   23MOL    H18 7542   1.675   1.434   3.486 -0.1741 -0.0509 -1.5202
   23MOL    C19 7543   1.802   1.190   3.405  0.0510  0.0772  0.0668
   23MOL    C20 7544   1.670   1.140   3.439 -0.6653 -0.1384 -0.0211
   23MOL    C21 7545   1.654   1.054   3.548  0.5224 -0.2847 -0.0448
   23MOL    C22 7546   1.527   1.011   3.588 -0.3698  0.2972 -0.2876
   23MOL    C23 7547   1.415   1.070   3.520  0.2242 -0.4027  0.7171
   23MOL    O24 7548   1.289   1.050   3.549 -0.2269  0.0836  0.5855
   23MOL    C25 7549   1.432   1.146   3.407  0.1667  0.2841 -0.3661
   23MOL    C26 7550   1.561   1.171   3.358  0.0724  0.4865 -0.0571
   23MOL    C27 7551   1.905   1.074   3.383 -0.1900 -0.4644 -0.0506
   23MOL    H28 7552   1.786   1.244   3.312 -5.8332 -0.7651  0.4361
   23MOL    H29 7553   1.739   1.025   3.608  0.7369 -0.8942 -0.6292
   23MOL    H30 7554   1.514   0.950   3.675 -0.7807  1.3949  0.4353
   23MOL    H31 7555   1.250   1.107   3.614 -2.9332  0.3510 -1.1731
   23MOL    H32 7556   1.347   1.179   3.348  0.2105  0.3410 -0.3976
   23MOL    H33 7557   1.563   1.231   3.268 -0.0710 -0.5427 -0.7571
   23MOL    H34 7558   1.943   1.045   3.480 -2.5402  0.8502  1.2950
   23MOL    H35 7559   1.995   1.110   3.333  1.4811 -3.7767  0.4685
   23MOL    C36 7560   1.856   0.951   3.306  0.2657 -0.3647  0.9572
   23MOL    C37 7561   1.966   0.845   3.297 -0.1333  0.0804 -0.1678
   23MOL    C38 7562   1.978   0.752   3.407 -0.2554 -0.3566 -0.2463
   23MOL    C39 7563   2.076   0.654   3.405 -0.2135 -0.2457  0.4483
   23MOL    C40 7564   2.161   0.641   3.297  0.7198  0.4789 -0.6004
   23MOL    O41 7565   2.265   0.549   3.294  0.8315 -0.3194 -0.0061
   23MOL    C42 7566   2.153   0.734   3.188  0.2289 -0.0837  0.2827
   23MOL    C43 7567   2.057   0.833   3.186  0.1017 -0.2947 -0.5456
   23MOL    C44 7568   1.809   0.991   3.164  0.1803 -0.0218  0.6698
   23MOL    H45 7569   1.773   0.911   3.365  0.6618  1.6813  2.9407
   23MOL    H46 7570   1.903   0.757   3.485  1.2535 -1.9247  1.3749
   23MOL    H47 7571   2.084   0.581   3.485  0.7521 -0.0426  0.5453
   23MOL    H48 7572   2.313   0.556   3.375 -1.9120 -1.3287  1.7613
   23MOL    H49 7573   2.223   0.716   3.107  0.0403  2.4396 -0.4744
   23MOL    H50 7574   2.057   0.908   3.108  0.8179  0.7509  0.4591
   23MOL    H51 7575   1.737   1.072   3.177  0.5281  0.1820  1.3520
   23MOL    H52 7576   1.888   1.041   3.108 -0.2034 -0.6779 -0.4693
   23MOL    C53 7577   1.738   0.891   3.078  0.1158 -0.5428 -0.4890
   23MOL    C54 7578   1.607   0.832   3.138  0.4981 -0.5303 -0.6774
   23MOL    C55 7579   1.489   0.907   3.132  0.7192  0.0924 -0.0478
   23MOL    C56 7580   1.368   0.848   3.179  0.1527 -0.6533  0.2420
   23MOL    C57 7581   1.367   0.729   3.245  0.4645  0.4982 -0.1218
   23MOL    O58 7582   1.253   0.681   3.300 -0.8187  0.0473 -0.9037
   23MOL    C59 7583   1.480   0.650   3.250  0.5001  0.0785 -0.1304
   23MOL    C60 7584   1.598   0.701   3.189  0.3113  0.3913 -0.5346
   23MOL    C61 7585   1.716   0.946   2.933 -0.6055 -0.0218  0.0168
   23MOL    H62 7586   1.798   0.801   3.072 -0.5938 -0.9015 -2.7975
   23MOL    H63 7587   1.489   1.007   3.091  1.1866 -0.5856 -1.7561
   23MOL    H64 7588   1.285   0.917   3.181  0.5337 -0.1717 -0.1622
   23MOL    H65 7589   1.185   0.743   3.279 -1.0152  1.2438  2.9154
   23MOL    H66 7590   1.481   0.562   3.312  0.9866  1.2859  1.6143
   23MOL    H67 7591   1.682   0.633   3.185 -0.8942 -1.1328 -0.0963
   23MOL    H68 7592   1.793   1.018   2.905  0.7750 -1.6393 -0.4104
   23MOL    H69 7593   1.630   1.013   2.936  1.5319  2.7935 -0.5235
   23MOL    C70 7594   1.707   0.833   2.824 -0.4735  0.2007 -0.2059
   23MOL    C71 7595   1.843   0.762   2.812  0.4985  0.1506 -0.7312
   23MOL    C72 7596   1.859   0.627   2.849  0.6718  0.3081  0.1477
   23MOL    C73 7597   1.982   0.561   2.857 -0.3251 -0.0633  0.8085
   23MOL    C74 7598   2.097   0.636   2.825 -0.3291 -0.7486  0.3127
   23MOL    O75 7599   2.222   0.579   2.825  0.2052  0.1693 -0.5140
   23MOL    C76 7600   2.091   0.774   2.791  0.5877 -0.6789  0.4875
   23MOL    C77 7601   1.964   0.835   2.790  0.2981  1.1490  0.1488
   23MOL    C78 7602   1.654   0.865   2.683 -0.6430  0.1736  0.2436
   23MOL    H79 7603   1.637   0.761   2.867 -1.8429  2.2323  1.0822
   23MOL    H80 7604   1.767   0.579   2.882  0.6969 -0.4756 -0.8637
   23MOL    H81 7605   1.988   0.458   2.889 -0.2345  0.0245  1.0801
   23MOL    H82 7606   2.233   0.517   2.895  1.6746  0.1019 -0.7804
   23MOL    H83 7607   2.179   0.830   2.764 -0.1657 -0.3207 -1.3128
   23MOL    H84 7608   1.962   0.942   2.778 -2.1857  1.1558  0.4276
   23MOL    H85 7609   1.621   0.776   2.630 -1.0249 -1.4099  3.0406
   23MOL    H86 7610   1.738   0.899   2.621 -1.0367 -0.0648 -0.4296
   23MOL    C87 7611   1.535   0.966   2.674 -0.0095 -0.3851  0.4450
   23MOL    C88 7612   1.418   0.920   2.759  0.3912  0.0391 -0.3687
   23MOL    C89 7613   1.360   0.790   2.753 -0.1475  0.4336 -0.6000
   23MOL    C90 7614   1.239   0.759   2.821 -0.4817  0.4629 -0.6003
   23MOL    C91 7615   1.175   0.860   2.896  0.4958  0.1652 -0.4756
   23MOL    O92 7616   1.059   0.824   2.949  0.2840  0.0246  0.0895
   23MOL    C93 7617   1.230   0.992   2.902  0.1625  0.1949 -0.7440
   23MOL    C94 7618   1.346   1.025   2.829  0.1146 -0.1438  0.4158
   23MOL    C95 7619   1.485   0.994   2.529  0.0923  0.2158  0.1797
   23MOL    H96 7620   1.579   1.057   2.715  0.7032 -0.2535 -0.5955
   23MOL    H97 7621   1.399   0.709   2.693 -0.5173 -0.4905  0.3877
   23MOL    H98 7622   1.194   0.663   2.804 -3.0262  1.2383  1.4903
   23MOL    H99 7623   1.016   0.903   2.977  2.5335  1.8238 -1.3264
   23MOL   H100 7624   1.171   1.066   2.954  0.5299 -1.2476  1.8192
   23MOL   H101 7625   1.383   1.126   2.838  1.7845 -0.8488  1.6261
   23MOL   H102 7626   1.509   0.912   2.462 -0.1046 -1.2308  1.8381
   23MOL   H103 7627   1.377   1.007   2.536  0.4047  2.1980  2.0776
   23MOL   C104 7628   1.533   1.135   2.472 -0.1983 -0.3269 -0.4163
   23MOL   C105 7629   1.470   1.164   2.339 -0.0729 -0.0867  0.3013
   23MOL   C106 7630   1.385   1.275   2.319 -0.7984  0.4703  0.0971
   23MOL   C107 7631   1.347   1.315   2.187  0.1572 -0.0942 -0.1308
   23MOL   C108 7632   1.395   1.234   2.081 -0.3202  0.4246 -0.7402
   23MOL   O109 7633   1.372   1.284   1.955 -0.3124  0.7349  0.4190
   23MOL   C110 7634   1.467   1.113   2.100 -0.2618 -0.3003  0.1639
   23MOL   C111 7635   1.501   1.083   2.229  0.1315  0.1310  0.2752
   23MOL   C112 7636   1.686   1.154   2.477  0.4779  0.2075  0.6187
   23MOL   H113 7637   1.483   1.203   2.541 -0.9452 -0.2695 -1.0111
   23MOL   H114 7638   1.356   1.343   2.398 -0.0317 -0.0610  0.8445
   23MOL   H115 7639   1.298   1.410   2.171 -0.4759 -0.3159  0.4454
   23MOL   H116 7640   1.450   1.324   1.920 -0.6122  0.3478 -0.7080
   23MOL   H117 7641   1.495   1.047   2.020  0.2180  1.0140 -0.7650
   23MOL   H118 7642   1.552   0.991   2.252 -1.6350 -1.0407 -0.3858
   23MOL   H119 7643   1.729   1.078   2.412 -3.5503 -0.0875 -1.8161
   23MOL   H120 7644   1.731   1.122   2.571  1.1511 -0.2025  0.1702
   23MOL   C121 7645   1.742   1.294   2.440 -0.3174  0.2170 -0.3061
   23MOL   C122 7646   1.696   1.400   2.540 -0.1628 -0.3745 -0.1744
   23MOL   C123 7647   1.595   1.490   2.497 -0.1040  0.2878  0.5086
   23MOL   C124 7648   1.559   1.602   2.574  0.0825  0.4708 -0.2994
   23MOL   C125 7649   1.628   1.625   2.698  0.1449 -0.0176  0.1760
   23MOL   O126 7650   1.586   1.731   2.774  0.1456 -0.3885 -0.1445
   23MOL   C127 7651   1.724   1.531   2.745 -0.5008  1.1401 -0.4724
   23MOL   C128 7652   1.763   1.422   2.663  0.4833 -0.1391 -0.2940
   23MOL   C129 7653   1.890   1.292   2.395 -0.4639 -0.3978 -0.2215
   23MOL   H130 7654   1.681   1.317   2.353 -0.6660 -2.1939 -0.7592
   23MOL   H131 7655   1.547   1.462   2.404  0.2674 -0.3608  0.5069
   23MOL   H132 7656   1.471   1.658   2.543 -1.2817 -1.9065 -0.9068
   23MOL   H133 7657   1.551   1.799   2.719  0.5755  0.2666  0.3857
   23MOL   H134 7658   1.765   1.543   2.845  1.4879 -3.3020 -0.5994
   23MOL   H135 7659   1.833   1.350   2.703  0.7564 -0.6812 -1.7243
   23MOL   H136 7660   1.883   1.196   2.344 -0.0694  0.1323 -1.2984
   23MOL   H137 7661   1.957   1.276   2.480  0.2653  0.9240 -0.5316
   23MOL   C138 7662   1.933   1.409   2.311 -0.2814  0.5209  0.5504
   23MOL   C139 7663   1.844   1.436   2.188 -0.5027 -0.3534 -0.2305
   23MOL   C140 7664   1.763   1.548   2.176  0.5008  0.0556  0.0598
   23MOL   C141 7665   1.670   1.552   2.067 -0.2261  0.4801  0.1467
   23MOL   C142 7666   1.663   1.448   1.966  0.1046  0.8897  0.0209
   23MOL   O143 7667   1.585   1.467   1.856 -0.8817  0.3001 -0.3465
   23MOL   C144 7668   1.750   1.337   1.981 -0.1200 -0.7132  0.2806
   23MOL   C145 7669   1.845   1.336   2.089  0.1924 -0.0172 -0.1945
   23MOL   C146 7670   2.083   1.401   2.284  0.7565 -0.2681  0.3368
   23MOL   H147 7671   1.908   1.487   2.382  0.4142  0.9251  0.3466
   23MOL   H148 7672   1.761   1.627   2.249  0.9787 -0.4853  0.6742
   23MOL   H149 7673   1.608   1.640   2.064  1.2510  1.5075 -1.5916
   23MOL   H150 7674   1.615   1.447   1.769 -0.8989 -2.1839  0.1704
   23MOL   H151 7675   1.736   1.256   1.911 -0.8265 -0.7926  0.5112
   23MOL   H152 7676   1.911   1.251   2.101  0.6815  0.2525 -0.9667
   23MOL   H153 7677   2.103   1.483   2.216 -1.5096  1.6097  1.8602
   23MOL   H154 7678   2.093   1.301   2.241  0.2853  0.3184 -1.1760
   23MOL   C155 7679   2.183   1.419   2.399  0.7122 -0.8873 -0.7997
   23MOL   C156 7680   2.152   1.552   2.467  0.0764  0.2097 -0.6200
   23MOL   C157 7681   2.179   1.678   2.402 -0.5003  0.2104  0.4900
   23MOL   C158 7682   2.143   1.803   2.459  0.0073 -0.2469 -0.8692
   23MOL   C159 7683   2.082   1.796   2.589  0.6683 -0.0745  0.3957
   23MOL   O160 7684   2.038   1.908   2.647 -1.0524  0.3165 -0.1568
   23MOL   C161 7685   2.052   1.674   2.648  0.0141  0.2360  0.2803
   23MOL   C162 7686   2.087   1.552   2.592 -0.0573  0.1425  0.6546
   23MOL   C163 7687   2.328   1.401   2.358 -0.2496 -0.1800 -0.3182
   23MOL   H164 7688   2.162   1.340   2.471  1.5628 -2.6227 -2.3998
   23MOL   H165 7689   2.212   1.678   2.299  1.4303  1.1409  1.0981
   23MOL   H166 7690   2.166   1.889   2.397  0.4899 -0.1862 -0.6121
   23MOL   H167 7691   1.998   1.875   2.726  1.0605 -4.0090 -0.7625
   23MOL   H168 7692   1.991   1.672   2.737  0.1593 -1.1648  0.3472
   23MOL   H169 7693   2.061   1.457   2.637  1.5544 -0.7971 -0.3410
   23MOL   H170 7694   2.363   1.488   2.304  0.8214 -1.1058 -1.1349
   23MOL   H171 7695   2.320   1.323   2.283 -3.5853 -0.9235  0.7103
   23MOL   C172 7696   2.434   1.360   2.469 -0.5308  0.5552  0.5466
   23MOL   C173 7697   2.575   1.400   2.432  0.4643 -0.1252 -0.4346
   23MOL   C174 7698   2.618   1.414   2.294  0.4596  0.2735  0.3109
   23MOL   C175 7699   2.752   1.436   2.267 -0.1518  0.0661  0.7990
   23MOL   C176 7700   2.842   1.461   2.369 -0.9004  0.3639  0.2029
   23MOL   O177 7701   2.978   1.468   2.346  0.3774  0.0819  0.4076
   23MOL   C178 7702   2.795   1.465   2.497 -0.0875 -0.1320 -0.3590
   23MOL   C179 7703   2.668   1.424   2.536 -0.6450  0.6283 -0.5827
   23MOL   C180 7704   2.413   1.215   2.503 -0.3460 -0.6197 -0.4028
   23MOL   H181 7705   2.414   1.424   2.555 -0.8407  1.1178  0.0624
   23MOL   H182 7706   2.543   1.398   2.219 -0.9977  0.1485  1.7481
   23MOL   H183 7707   2.774   1.449   2.162  0.2542  0.7228  0.9619
   23MOL   H184 7708   3.001   1.434   2.260  0.0744  1.3027 -0.1703
   23MOL   H185 7709   2.859   1.491   2.580 -0.5650  0.3205 -0.1308
   23MOL   H186 7710   2.649   1.412   2.641  3.2618  0.5212  0.1963
   23MOL   H187 7711   2.481   1.146   2.452  1.6000 -0.2615  1.6309
   23MOL   H188 7712   2.312   1.189   2.473 -0.3375 -0.8595 -0.2309
   23MOL   C189 7713   2.424   1.204   2.656  0.0117  0.6034 -0.3964
   23MOL   C190 7714   2.300   1.253   2.733 -0.3811 -0.0565  0.0860
   23MOL   C191 7715   2.315   1.374   2.809  0.6517  0.2128  1.0376
   23MOL   C192 7716   2.206   1.412   2.888 -0.0744 -0.3151  0.3357
   23MOL   C193 7717   2.085   1.340   2.884  0.0760 -0.4978 -0.3304
   23MOL   O194 7718   1.989   1.376   2.971 -0.0351  0.4062 -0.1572
   23MOL   C195 7719   2.069   1.224   2.808 -0.0954 -0.4664 -0.8234
   23MOL   C196 7720   2.178   1.184   2.730  0.0874 -0.1372 -0.2110
   23MOL   C197 7721   2.457   1.056   2.693  0.1026  0.7117 -0.3280
   23MOL   H198 7722   2.512   1.258   2.690  1.3220 -1.4182 -0.4936
   23MOL   H199 7723   2.399   1.439   2.791 -0.3110  1.3838  0.7399
   23MOL   H200 7724   2.214   1.504   2.944  2.7732  0.0980 -0.6694
   23MOL   H201 7725   1.995   1.466   2.999 -2.0160  0.3864  0.4225
   23MOL   H202 7726   1.972   1.177   2.807 -0.0744 -1.0666  5.2795
   23MOL   H203 7727   2.159   1.095   2.671 -1.4923  1.1603 -1.7151
   23MOL   H204 7728   2.542   1.033   2.630  1.4014 -1.7064  2.1795
   23MOL   H205 7729   2.375   0.988   2.672  0.3186  1.5193 -4.1593
   23MOL   C206 7730   2.510   1.048   2.841 -0.3782 -0.1074  0.0052
   23MOL   C207 7731   2.648   1.112   2.842  0.3666 -0.2045 -0.3242
   23MOL   C208 7732   2.749   1.063   2.765  0.6296  0.1551 -0.5931
   23MOL   C209 7733   2.874   1.113   2.797  0.0531 -0.1497  0.4451
   23MOL   C210 7734   2.907   1.204   2.900 -0.3696  0.5302  0.2327
   23MOL   O211 7735   3.039   1.233   2.920 -0.2931  0.7582 -0.2233
   23MOL   C212 7736   2.804   1.256   2.970 -0.1281  0.8856 -0.2117
   23MOL   C213 7737   2.673   1.220   2.935  0.3325 -1.3027  0.0384
   23MOL   C214 7738   2.522   0.905   2.892  0.8269 -0.1063 -0.8377
   23MOL   H215 7739   2.436   1.102   2.900  0.6203  1.3680 -0.0545
   23MOL   H216 7740   2.744   0.974   2.702  0.6317 -1.7828  2.0575
   23MOL   H217 7741   2.960   1.058   2.762 -0.1253 -1.6996  2.3916
   23MOL   H218 7742   3.070   1.281   2.996  0.7242 -0.3742  0.0900
   23MOL   H219 7743   2.818   1.333   3.045 -1.7817  2.0229 -1.0409
   23MOL   H220 7744   2.588   1.256   2.991  0.6912  0.4063 -0.5006
   23MOL   H221 7745   2.584   0.846   2.823 -1.4427  0.0839 -3.1046
   23MOL   H222 7746   2.420   0.867   2.891  0.9428 -0.4374 -2.0246
   23MOL   C223 7747   2.573   0.889   3.038 -0.5108 -0.2357 -0.7966
   23MOL   C224 7748   2.619   0.746   3.071  0.5173  0.2078 -0.8789
   23MOL   C225 7749   2.530   0.641   3.059  0.6620  0.1488 -0.4556
   23MOL   C226 7750   2.570   0.510   3.101  0.6955  0.6710  0.2355
   23MOL   C227 7751   2.689   0.488   3.163  0.5718 -0.8829 -1.0436
   23MOL   O228 7752   2.715   0.368   3.213  0.0542 -0.3670 -0.0447
   23MOL   C229 7753   2.785   0.593   3.171  0.5401  0.3365  0.6565
   23MOL   C230 7754   2.751   0.722   3.122 -0.3140 -0.1273 -0.0087
   23MOL   C231 7755   2.466   0.928   3.139 -0.2951 -0.5117 -0.2895
   23MOL   H232 7756   2.660   0.956   3.038 -1.0604  0.4840 -0.9202
   23MOL   H233 7757   2.436   0.660   3.011  0.9872  0.1630 -1.0948
   23MOL   H234 7758   2.500   0.433   3.072  0.2731  1.5050 -1.0201
   23MOL   H235 7759   2.665   0.299   3.172  1.0743 -1.5483  0.6637
   23MOL   H236 7760   2.875   0.572   3.227  0.5427 -1.2044  0.0940
   23MOL   H237 7761   2.810   0.812   3.130 -2.2209  1.1788 -0.3913
   23MOL   H238 7762   2.439   1.028   3.107  0.8699  0.4818  1.7844
   23MOL   H239 7763   2.372   0.874   3.127 -0.0292 -0.7892 -1.1576
   23MOL   C240 7764   2.510   0.925   3.290  0.1230 -0.2105 -0.3403
   23MOL   C241 7765   2.615   1.037   3.309 -0.0103  0.4766 -0.0717
   23MOL   C242 7766   2.749   1.007   3.328 -0.6444  0.9296 -0.2608
   23MOL   C243 7767   2.848   1.102   3.323 -0.1620  0.0497 -0.1321
   23MOL   C244 7768   2.811   1.241   3.312  0.4358  0.4222 -0.4392
   23MOL   O245 7769   2.905   1.345   3.308  0.3220  0.2313 -0.2921
   23MOL   C246 7770   2.674   1.278   3.291  0.0157 -0.6890 -0.6609
   23MOL   C247 7771   2.579   1.171   3.298  0.1788  0.3899  0.2807
   23MOL   C248 7772   2.386   0.931   3.389 -0.2616 -0.2531  0.3062
   23MOL   H249 7773   2.565   0.834   3.313  1.9732  0.5481 -1.5842
   23MOL   H250 7774   2.789   0.907   3.331 -0.2744  1.1022  0.6851
   23MOL   H251 7775   2.948   1.068   3.348 -0.6391 -0.0836  1.6912
   23MOL   H252 7776   2.995   1.317   3.322 -0.3152 -1.2553  1.0578
   23MOL   H253 7777   2.655   1.384   3.282  1.9973 -0.2445  0.0823
   23MOL   H254 7778   2.477   1.205   3.289  1.3115  4.0128  0.4930
   23MOL   H255 7779   2.324   1.021   3.380  1.8383  0.9685 -3.1769
   23MOL   H256 7780   2.324   0.843   3.377 -0.2950 -0.5177  2.3247
   23MOL   C257 7781   2.420   0.945   3.544 -0.6408 -0.8918  0.2708
   23MOL   C258 7782   2.292   0.964   3.627 -0.6849 -0.6101  0.2963
   23MOL   C259 7783   2.210   0.850   3.666  0.4558  0.1631 -0.4459
   23MOL   C260 7784   2.097   0.869   3.751 -0.3359 -0.2616 -0.2642
   23MOL   C261 7785   2.069   1.003   3.794 -0.6983 -0.0823 -0.6896
   23MOL   O262 7786   1.963   1.023   3.878  0.1445  0.0143 -0.3470
   23MOL   C263 7787   2.141   1.111   3.748  0.2926  0.9250  0.3462
   23MOL   C264 7788   2.248   1.095   3.665 -0.3690 -0.2736 -0.0471
   23MOL   C265 7789   2.508   0.830   3.600 -0.7190  0.3706 -0.4138
   23MOL   H266 7790   2.480   1.034   3.558 -0.8801 -1.0275  2.2467
   23MOL   H267 7791   2.227   0.753   3.622 -0.4642 -0.6260  0.8828
   23MOL   H268 7792   2.039   0.789   3.795  3.2459 -3.1055 -0.4492
   23MOL   H269 7793   1.887   0.971   3.857 -1.0671  1.6177 -0.0153
   23MOL   H270 7794   2.119   1.214   3.771  0.4088  1.0412 -0.0540
   23MOL   H271 7795   2.290   1.187   3.626  0.3302  0.8446  3.1171
   23MOL   H272 7796   2.590   0.823   3.528 -0.3980 -1.7339  0.1266
   23MOL   H273 7797   2.445   0.741   3.597  1.3118 -1.2466  2.4388
   23MOL   C274 7798   2.550   0.856   3.742 -0.1155  0.0623 -0.9461
   23MOL   C275 7799   2.618   0.990   3.755 -0.1079  0.4315  0.0131
   23MOL   C276 7800   2.570   1.090   3.844  0.0122 -0.1897  0.9772
   23MOL   C277 7801   2.639   1.213   3.863  0.0453  0.5209 -0.2526
   23MOL   C278 7802   2.758   1.234   3.789 -0.5264 -0.5243  0.1302
   23MOL   O279 7803   2.820   1.356   3.798 -0.5433 -0.2125  0.5409
   23MOL   C280 7804   2.810   1.138   3.703  0.2400 -0.5638  0.0310
   23MOL   C281 7805   2.732   1.021   3.677  0.4650 -0.6403  0.2273
   23MOL   C282 7806   2.640   0.748   3.800 -0.0284  0.0583 -0.1234
   23MOL   H283 7807   2.461   0.860   3.803 -1.3676 -1.7224 -2.5823
   23MOL   H284 7808   2.488   1.071   3.912  1.1899  0.3469  2.5679
   23MOL   H285 7809   2.613   1.291   3.933 -1.0927 -1.0007  1.0642
   23MOL   H286 7810   2.748   1.415   3.788 -0.4081 -0.0061  0.7667
   23MOL   H287 7811   2.889   1.162   3.633  0.1673 -0.1193  0.1055
   23MOL   H288 7812   2.770   0.951   3.604  1.7399  1.4950 -1.2286
   23MOL   H289 7813   2.582   0.657   3.790  1.2903 -0.8255  0.2008
   23MOL   H290 7814   2.721   0.737   3.728 -0.9892  2.3750 -1.6369
   23MOL   C291 7815   2.698   0.769   3.946  0.4768  0.1505  0.2524
   23MOL   C292 7816   2.820   0.673   3.956 -0.1217  0.6713 -0.7754
   23MOL   C293 7817   2.818   0.534   3.916  0.4781 -0.2896 -1.1675
   23MOL   C294 7818   2.937   0.464   3.897  0.3886  0.0487  0.5776
   23MOL   C295 7819   3.056   0.526   3.915  0.1639  0.0643 -0.1932
   23MOL   O296 7820   3.164   0.450   3.892  0.3178  0.1816  0.5863
   23MOL   C297 7821   3.068   0.662   3.950  0.4138 -0.0550 -0.4792
   23MOL   C298 7822   2.948   0.737   3.975 -0.3326  0.4149 -0.1424
   23MOL   C299 7823   2.584   0.735   4.051  0.2095 -0.0847 -0.3296
   23MOL   H300 7824   2.737   0.870   3.952 -0.8335  0.5624  1.8838
   23MOL   H301 7825   2.720   0.492   3.899  0.2393 -1.1661  2.0737
   23MOL   H302 7826   2.929   0.361   3.867 -0.3643 -0.0634  1.1334
   23MOL   H303 7827   3.149   0.408   3.809 -1.8634  0.8541  0.6016
   23MOL   H304 7828   3.166   0.707   3.962 -0.4483  1.4696  1.0001
   23MOL   H305 7829   2.959   0.840   4.004  2.6122  0.7195 -2.1514
   23MOL   H306 7830   2.558   0.629   4.048  1.7053 -0.4192 -2.3092
   23MOL   H307 7831   2.484   0.774   4.032  0.3246  0.2218 -0.3074
   23MOL   C308 7832   2.627   0.786   4.193  0.1384  0.0609  0.0541
   23MOL   C309 7833   2.521   0.749   4.302 -0.1288 -0.4874 -0.0829
   23MOL   C310 7834   2.385   0.795   4.287  0.6036  0.1093  0.4174
   23MOL   C311 7835   2.305   0.774   4.401 -0.9362 -0.6884 -0.0929
   23MOL   C312 7836   2.342   0.700   4.515  0.3668  0.9551 -0.3776
   23MOL   O313 7837   2.254   0.686   4.617  0.3930 -0.2352 -0.2857
   23MOL   C314 7838   2.474   0.650   4.520  0.2980  0.2207 -0.9967
   23MOL   C315 7839   2.561   0.677   4.411  0.0444  0.7475  0.2591
   23MOL   C316 7840   2.644   0.941   4.191 -0.5027  0.4716 -0.1995
   23MOL   H317 7841   2.718   0.733   4.223 -1.6381 -2.7677  0.6288
   23MOL   H318 7842   2.339   0.848   4.204  1.1861 -0.4445 -0.2614
   23MOL   H319 7843   2.208   0.822   4.398 -1.9262 -2.6083  0.7629
   23MOL   H320 7844   2.298   0.706   4.698  0.1500  0.8253 -0.4064
   23MOL   H321 7845   2.512   0.599   4.607  2.6052  1.9596 -0.9350
   23MOL   H322 7846   2.666   0.652   4.411  0.0653  0.7613  2.1306
   23MOL   H323 7847   2.544   0.978   4.172 -0.9619 -0.6091  0.0674
   23MOL   H324 7848   2.701   0.994   4.115  0.5903  0.2419  0.4489
   23MOL   C325 7849   2.693   1.003   4.326  1.0800  0.0558  0.0442
   23MOL   C326 7850   2.696   1.157   4.304  0.6884  0.2993  0.0031
   23MOL   C327 7851   2.595   1.236   4.362  0.6144 -0.8877 -0.5580
   23MOL   C328 7852   2.592   1.372   4.335 -0.1026 -0.6025 -0.4929
   23MOL   C329 7853   2.707   1.435   4.272  0.5511 -0.5137  0.0473
   23MOL   O330 7854   2.715   1.573   4.254  0.8409 -0.0676  0.0594
   23MOL   C331 7855   2.811   1.355   4.223  0.2141 -0.3999 -0.6938
   23MOL   C332 7856   2.809   1.218   4.249 -0.3916  0.0717 -0.1942
   23MOL   C333 7857   2.826   0.955   4.372  0.0233  0.4261 -0.4445
   23MOL   H334 7858   2.614   0.996   4.401  1.5030 -1.3127  0.3788
   23MOL   H335 7859   2.512   1.182   4.406  0.5452 -1.0579 -0.8916
   23MOL   H336 7860   2.510   1.433   4.370 -1.9208 -3.4781  0.3948
   23MOL   H337 7861   2.738   1.605   4.168 -1.5016  0.7445 -0.2944
   23MOL   H338 7862   2.897   1.397   4.173  1.7547 -3.0399 -0.3935
   23MOL   H339 7863   2.894   1.155   4.226 -0.6817  0.0518 -1.2106
   23MOL   H340 7864   2.880   1.023   4.438 -0.2714  0.7922 -0.5793
   23MOL   H341 7865   2.904   0.955   4.295  2.1843 -0.2569  1.6988
   23MOL   H342 7866   2.835   0.865   4.432  1.1124  0.7279 -0.1411
   24MOL     C1 7867   2.618   4.709   0.134  0.0622  0.7386 -0.3116
   24MOL     C2 7868   2.515   4.718   0.244 -0.8083  0.2026  0.1170
   24MOL     C3 7869   2.377   4.722   0.210 -0.0288  0.2370 -0.3582
   24MOL     C4 7870   2.278   4.726   0.315  0.0121 -0.2236  0.2298
   24MOL     C5 7871   2.318   4.722   0.446 -0.4772 -0.1684  0.1455
   24MOL     O6 7872   2.233   4.752   0.542  0.3027  0.0245 -0.8418
   24MOL     C7 7873   2.458   4.718   0.483  0.6195 -0.9020  0.3019
   24MOL     C8 7874   2.550   4.727   0.379  0.4331 -1.0255 -0.3623
   24MOL     C9 7875   2.695   4.575   0.114 -0.4644  0.1852  0.2354
   24MOL    H10 7876   2.586   4.744   0.037  0.6149  0.4492 -0.6029
   24MOL    H11 7877   2.330   4.720   0.113 -2.6392  1.4968  0.8229
   24MOL    H12 7878   2.173   4.714   0.289  1.2769 -3.6524 -4.0524
   24MOL    H13 7879   2.254   4.715   0.626  0.5018  1.1687 -0.3753
   24MOL    H14 7880   2.498   4.718   0.583  0.6254  1.8932  0.3324
   24MOL    H15 7881   2.651   4.746   0.413  0.1724  0.0031 -0.1748
   24MOL    H16 7882   2.622   4.509   0.069  0.2933 -0.1198 -0.5608
   24MOL    H17 7883   2.720   4.533   0.211 -1.2943  1.0941  0.8531
   24MOL    H18 7884   2.694   4.782   0.163  0.0079  1.8398 -2.8088
   24MOL    C19 7885   2.828   4.570   0.035 -0.0330  0.5202  0.2006
   24MOL    C20 7886   2.813   4.645   7.940 -0.0499  0.1343  0.0500
   24MOL    C21 7887   2.914   4.742   7.898  0.5211  0.1871 -0.2893
   24MOL    C22 7888   2.893   4.804   7.777  0.7637  0.2217  0.8862
   24MOL    C23 7889   2.784   4.776   7.691  0.1118 -0.6737  0.4627
   24MOL    O24 7890   2.760   4.850   7.579 -0.0526  0.2466  0.3984
   24MOL    C25 7891   2.684   4.684   7.730 -0.1869  0.3764 -0.5699
   24MOL    C26 7892   2.704   4.618   7.852 -0.5568 -0.5218  0.3289
   24MOL    C27 7893   2.884   4.423   0.008  0.5919  0.5107 -0.0950
   24MOL    H28 7894   2.910   4.621   0.085  2.2651 -0.7763 -2.1263
   24MOL    H29 7895   2.993   4.766   7.968  0.9425 -3.3040  0.5168
   24MOL    H30 7896   2.964   4.881   7.753  0.8094 -0.0917 -0.0197
   24MOL    H31 7897   2.669   4.874   7.573 -0.8051 -2.8700 -2.4231
   24MOL    H32 7898   2.598   4.655   7.671 -0.2442 -1.2626  0.3049
   24MOL    H33 7899   2.638   4.541   7.889 -0.1602 -1.6928 -1.3229
   24MOL    H34 7900   2.798   4.375   8.001  1.2649 -1.6307  0.8435
   24MOL    H35 7901   2.900   4.373   0.104 -0.9232 -0.3772 -0.2846
   24MOL    C36 7902   3.008   4.404   7.952 -0.4230  0.7464 -0.0796
   24MOL    C37 7903   2.980   4.294   7.850  0.0896  0.0134  0.2228
   24MOL    C38 7904   2.930   4.324   7.722 -0.5215  0.1256 -0.6838
   24MOL    C39 7905   2.923   4.229   7.624 -0.2198  0.2205  0.2751
   24MOL    C40 7906   2.959   4.098   7.658  0.3742 -0.4460  0.2883
   24MOL    O41 7907   2.961   4.003   7.557 -0.4471 -0.1105 -0.2325
   24MOL    C42 7908   2.999   4.063   7.785  0.3849 -0.3102  0.1569
   24MOL    C43 7909   3.013   4.163   7.886  0.1131 -0.5079 -0.3449
   24MOL    C44 7910   3.143   4.394   8.023  0.0154  0.1274  0.7767
   24MOL    H45 7911   3.018   4.489   7.885  3.8276  1.0148  0.7565
   24MOL    H46 7912   2.896   4.423   7.696  2.5295  0.9894 -1.6268
   24MOL    H47 7913   2.894   4.263   7.526  2.3693 -0.6976 -0.8503
   24MOL    H48 7914   2.906   3.928   7.574  0.6201 -0.9750 -0.5625
   24MOL    H49 7915   3.031   3.963   7.808 -0.4029 -0.5841  0.0674
   24MOL    H50 7916   3.035   4.139   7.989  0.8087  2.4817  0.2455
   24MOL    H51 7917   3.160   4.472   0.060  0.7523 -1.3281  2.1567
   24MOL    H52 7918   3.142   4.302   0.044 -3.4223  0.5326  1.4281
   24MOL    C53 7919   3.265   4.397   7.929  0.2721  0.4411  0.3220
   24MOL    C54 7920   3.270   4.531   7.856 -0.3330  0.3378  0.1038
   24MOL    C55 7921   3.308   4.650   7.923  0.2685  0.0071  0.1711
   24MOL    C56 7922   3.332   4.768   7.852  0.4213 -0.0958 -0.1955
   24MOL    C57 7923   3.296   4.774   7.716 -0.0250  0.0245 -0.6739
   24MOL    O58 7924   3.313   4.892   7.651  0.2254 -0.1151 -0.1766
   24MOL    C59 7925   3.241   4.659   7.651  0.2671 -0.3738 -0.2162
   24MOL    C60 7926   3.243   4.534   7.720  0.0385 -0.6294 -0.3805
   24MOL    C61 7927   3.395   4.358   7.998  0.1939  0.7395  0.2866
   24MOL    H62 7928   3.249   4.325   7.849  0.0774  0.3188  0.4706
   24MOL    H63 7929   3.344   4.651   8.025  0.2151 -0.6228  0.2003
   24MOL    H64 7930   3.369   4.859   7.897  0.8044 -0.3677  0.0346
   24MOL    H65 7931   3.238   4.949   7.649  0.7400  0.6396  1.5315
   24MOL    H66 7932   3.187   4.675   7.558  0.4583  0.9148 -0.1118
   24MOL    H67 7933   3.191   4.453   7.670  0.9866 -1.3584 -0.1832
   24MOL    H68 7934   3.406   4.411   0.055 -2.2542  0.0024  1.0238
   24MOL    H69 7935   3.469   4.409   7.937  0.8312  0.6711  0.9902
   24MOL    C70 7936   3.421   4.202   7.993 -0.4687  0.2332  0.2980
   24MOL    C71 7937   3.529   4.170   0.054 -0.5445  0.7321 -0.3109
   24MOL    C72 7938   3.645   4.249   0.062 -0.5101 -0.1908 -0.1739
   24MOL    C73 7939   3.729   4.235   0.175  0.3418 -0.2944  0.2645
   24MOL    C74 7940   3.705   4.139   0.274 -0.2943 -0.8390 -0.3184
   24MOL    O75 7941   3.774   4.132   0.386  0.0826  0.3997  0.1718
   24MOL    C76 7942   3.601   4.047   0.253 -0.0160  0.4675 -0.5571
   24MOL    C77 7943   3.508   4.066   0.154 -0.0987  0.1958  0.8403
   24MOL    C78 7944   3.443   4.143   7.846 -0.5020 -0.4096 -0.0549
   24MOL    H79 7945   3.328   4.165   8.036 -1.4867  1.2069 -1.0566
   24MOL    H80 7946   3.660   4.332   8.032 -1.5757  1.4482  1.5448
   24MOL    H81 7947   3.809   4.306   0.186  1.3385 -1.4218  0.3370
   24MOL    H82 7948   3.790   4.218   0.421 -0.4160  0.3925  0.4263
   24MOL    H83 7949   3.598   3.966   0.325 -0.6730  1.9952  1.1738
   24MOL    H84 7950   3.428   3.997   0.134  1.0125 -0.7832 -0.3821
   24MOL    H85 7951   3.358   4.168   7.783  1.3980 -0.5447 -2.7944
   24MOL    H86 7952   3.437   4.034   7.856 -1.1111 -0.4669 -0.9487
   24MOL    C87 7953   3.577   4.160   7.773  0.1004 -0.0279 -0.0116
   24MOL    C88 7954   3.605   4.301   7.731 -0.5162 -0.4850 -0.1105
   24MOL    C89 7955   3.725   4.359   7.770 -0.3291 -0.2686  0.3783
   24MOL    C90 7956   3.757   4.488   7.725  0.5381 -0.5600  0.0213
   24MOL    C91 7957   3.668   4.564   7.642 -1.0735  0.5527 -0.6343
   24MOL    O92 7958   3.707   4.684   7.595  0.2569  0.1731  0.2806
   24MOL    C93 7959   3.549   4.509   7.618 -1.3664 -0.0056  0.8003
   24MOL    C94 7960   3.514   4.377   7.654 -0.1918 -0.3629 -0.1588
   24MOL    C95 7961   3.586   4.083   7.639  0.3651 -0.1677  0.4161
   24MOL    H96 7962   3.654   4.125   7.841 -0.2981  1.6907  1.3403
   24MOL    H97 7963   3.800   4.306   7.826 -0.5714 -0.5883  0.4024
   24MOL    H98 7964   3.846   4.541   7.757  0.9131 -0.9744 -0.3276
   24MOL    H99 7965   3.649   4.735   7.541  0.9064  2.1040  1.3184
   24MOL   H100 7966   3.475   4.570   7.566 -2.0332 -1.6031 -0.1752
   24MOL   H101 7967   3.418   4.336   7.628  0.0396  0.3830 -2.3175
   24MOL   H102 7968   3.493   4.092   7.583 -1.1122 -0.9958  2.6707
   24MOL   H103 7969   3.655   4.135   7.572 -0.8346 -1.2737 -1.7652
   24MOL   C104 7970   3.635   3.936   7.632 -0.6504  0.4882 -0.0656
   24MOL   C105 7971   3.771   3.923   7.703 -0.0176 -0.3030 -0.5705
   24MOL   C106 7972   3.877   4.016   7.674 -1.0954 -0.2909 -0.3720
   24MOL   C107 7973   4.000   4.009   7.749  0.9841  0.3014  0.8043
   24MOL   C108 7974   4.009   3.918   7.857 -0.2510  0.3630 -0.4509
   24MOL   O109 7975   4.124   3.919   7.935 -0.3893 -0.4634 -0.1466
   24MOL   C110 7976   3.907   3.824   7.883 -0.5712 -0.3829 -0.2493
   24MOL   C111 7977   3.791   3.827   7.798 -0.5075  0.6154 -0.9917
   24MOL   C112 7978   3.630   3.874   7.493  0.3999 -0.0711 -0.1119
   24MOL   H113 7979   3.562   3.885   7.694 -1.5734  0.0534 -1.4658
   24MOL   H114 7980   3.868   4.086   7.592  1.3444  0.6384  0.1199
   24MOL   H115 7981   4.085   4.074   7.734  0.4324  0.6036 -1.1276
   24MOL   H116 7982   4.194   3.954   7.882 -0.3940  1.7594  1.2306
   24MOL   H117 7983   3.918   3.757   7.967  1.1802  0.3526  0.1244
   24MOL   H118 7984   3.715   3.752   7.811  0.2339  0.0776  0.4110
   24MOL   H119 7985   3.706   3.904   7.421 -1.1872  0.1459 -1.7140
   24MOL   H120 7986   3.541   3.911   7.442  0.3488 -1.1425 -0.8329
   24MOL   C121 7987   3.611   3.720   7.497 -0.3809 -0.4847 -0.9262
   24MOL   C122 7988   3.491   3.677   7.419  0.1543  0.0855  0.2859
   24MOL   C123 7989   3.365   3.707   7.467  0.6873 -0.1985 -0.6638
   24MOL   C124 7990   3.245   3.678   7.390 -0.2414 -0.1895 -0.3623
   24MOL   C125 7991   3.263   3.608   7.272 -0.0769 -0.6020  0.4917
   24MOL   O126 7992   3.158   3.567   7.201 -0.5843 -0.5338 -0.8911
   24MOL   C127 7993   3.390   3.580   7.224 -0.1445 -0.4904 -0.5297
   24MOL   C128 7994   3.504   3.621   7.294 -0.1514  0.3012 -0.3538
   24MOL   C129 7995   3.747   3.642   7.479  0.3179 -0.0941  0.5244
   24MOL   H130 7996   3.578   3.693   7.598  1.1033 -2.0644 -0.8401
   24MOL   H131 7997   3.357   3.768   7.556  1.3623  1.0783 -1.4687
   24MOL   H132 7998   3.146   3.711   7.416  0.2632  0.8014  0.3683
   24MOL   H133 7999   3.081   3.620   7.211 -0.1363  0.0244 -0.4067
   24MOL   H134 8000   3.402   3.535   7.127  1.4299  0.2170 -0.6721
   24MOL   H135 8001   3.599   3.601   7.248  0.6274 -0.7477  1.6327
   24MOL   H136 8002   3.828   3.690   7.534 -0.2202  3.9691 -1.9789
   24MOL   H137 8003   3.793   3.657   7.382 -2.0135 -1.5391 -0.8467
   24MOL   C138 8004   3.739   3.490   7.508  0.1421 -0.7919 -0.0116
   24MOL   C139 8005   3.714   3.462   7.652 -0.0804 -0.0355 -0.0054
   24MOL   C140 8006   3.821   3.468   7.737 -0.3368 -0.2665  0.3690
   24MOL   C141 8007   3.804   3.426   7.876 -0.3456 -0.4520 -0.4598
   24MOL   C142 8008   3.680   3.370   7.916 -0.1406 -0.9329  0.0668
   24MOL   O143 8009   3.665   3.340   0.011  0.0429  0.5787 -0.4647
   24MOL   C144 8010   3.572   3.362   7.824  0.0418  0.1436  0.3455
   24MOL   C145 8011   3.591   3.402   7.690  0.5076  0.0139  0.3831
   24MOL   C146 8012   3.864   3.417   7.450  0.5131  0.0415  0.0282
   24MOL   H147 8013   3.651   3.454   7.457  1.1057 -1.2409 -1.3742
   24MOL   H148 8014   3.919   3.505   7.708 -0.3748 -0.0602  0.4966
   24MOL   H149 8015   3.891   3.435   7.940  0.6050 -2.0849 -1.4796
   24MOL   H150 8016   3.735   3.380   0.062  1.9462 -1.6271 -1.2661
   24MOL   H151 8017   3.482   3.318   7.866  1.4538 -2.0509  1.1943
   24MOL   H152 8018   3.509   3.386   7.621  0.3001 -1.4220  0.9583
   24MOL   H153 8019   3.847   3.321   7.500 -1.2100  1.3902  2.1144
   24MOL   H154 8020   3.954   3.454   7.500  0.5343 -1.0995  0.8658
   24MOL   C155 8021   3.870   3.392   7.299 -0.2713  1.0453  0.0388
   24MOL   C156 8022   3.754   3.316   7.233  0.4931  0.0995  0.0598
   24MOL   C157 8023   3.706   3.363   7.109  0.2701  0.3516 -0.2620
   24MOL   C158 8024   3.604   3.296   7.043  0.3470 -0.5311 -0.5653
   24MOL   C159 8025   3.539   3.181   7.099  0.9306  0.0947  0.6238
   24MOL   O160 8026   3.443   3.110   7.027  0.3594 -0.3062  0.3384
   24MOL   C161 8027   3.589   3.132   7.220 -0.8690 -0.5583 -0.1462
   24MOL   C162 8028   3.691   3.204   7.294  0.1633 -0.0234  0.4835
   24MOL   C163 8029   4.005   3.323   7.266 -0.6022 -0.2239 -0.2237
   24MOL   H164 8030   3.883   3.490   7.253  1.9194  0.1122 -1.3944
   24MOL   H165 8031   3.741   3.456   7.065 -1.0344  1.6730  1.4159
   24MOL   H166 8032   3.571   3.336   6.949 -0.0542  1.2237  0.3018
   24MOL   H167 8033   3.414   3.032   7.072  0.3101  0.4747  1.6832
   24MOL   H168 8034   3.547   3.048   7.272 -1.7896 -1.0632 -1.6932
   24MOL   H169 8035   3.727   3.168   7.390 -0.0753 -0.5101  0.3906
   24MOL   H170 8036   4.023   3.234   7.327  1.2670  0.0788 -0.2985
   24MOL   H171 8037   4.089   3.375   7.312 -1.1943 -1.3057  2.1509
   24MOL   C172 8038   4.027   3.286   7.115  0.2012 -0.4963 -0.5497
   24MOL   C173 8039   4.076   3.141   7.120  0.5235  0.6187 -0.2246
   24MOL   C174 8040   3.980   3.035   7.108  0.3466  0.0381  0.1987
   24MOL   C175 8041   4.019   2.899   7.113 -0.3777 -0.4890 -0.6034
   24MOL   C176 8042   4.159   2.872   7.131 -0.6605 -0.5629  0.2193
   24MOL   O177 8043   4.194   2.740   7.146 -0.4183 -0.4526  0.2906
   24MOL   C178 8044   4.251   2.975   7.147 -0.3220 -0.0634  0.7568
   24MOL   C179 8045   4.212   3.106   7.136  0.1468  0.1286 -0.3368
   24MOL   C180 8046   4.125   3.380   7.041 -0.0288 -0.0228 -0.4510
   24MOL   H181 8047   3.938   3.289   7.053 -0.7280 -2.6659  0.6041
   24MOL   H182 8048   3.876   3.063   7.101  0.2978 -0.4151 -1.0800
   24MOL   H183 8049   3.949   2.819   7.097 -0.5631 -0.3252 -0.6153
   24MOL   H184 8050   4.286   2.729   7.165 -0.2562 -0.3186 -0.4115
   24MOL   H185 8051   4.357   2.956   7.161 -0.4991 -0.2113  1.9539
   24MOL   H186 8052   4.282   3.186   7.154 -0.9550  0.4698  2.7032
   24MOL   H187 8053   4.198   3.324   6.982  2.4314  0.8722  1.6356
   24MOL   H188 8054   4.192   3.424   7.115 -1.3833  3.3666 -1.1626
   24MOL   C189 8055   4.066   3.487   6.957  0.7386  0.2456  0.0009
   24MOL   C190 8056   4.166   3.595   6.931  0.3767 -0.1184 -0.2649
   24MOL   C191 8057   4.267   3.573   6.845 -0.4059 -0.1727  0.1230
   24MOL   C192 8058   4.371   3.665   6.818  0.4076  0.6808  0.1495
   24MOL   C193 8059   4.371   3.786   6.892  0.3576 -0.3663  0.3414
   24MOL   O194 8060   4.473   3.872   6.861  0.5024 -0.1420  0.3861
   24MOL   C195 8061   4.275   3.810   6.994  0.8079 -0.1025  0.2149
   24MOL   C196 8062   4.170   3.715   7.004  0.1752 -0.0900 -0.5580
   24MOL   C197 8063   4.001   3.417   6.830 -0.5249  0.2053 -1.0284
   24MOL   H198 8064   3.990   3.538   7.016 -0.4573 -1.0971 -0.3588
   24MOL   H199 8065   4.278   3.475   6.800  1.5985 -0.3620  0.9494
   24MOL   H200 8066   4.457   3.636   6.760  1.3392  1.7410  0.9883
   24MOL   H201 8067   4.501   3.934   6.926  1.0578 -1.0057  0.9870
   24MOL   H202 8068   4.271   3.901   7.051  0.5045 -0.6637  1.1025
   24MOL   H203 8069   4.094   3.742   7.077 -0.3055 -0.1243 -1.0488
   24MOL   H204 8070   3.921   3.350   6.861  2.0917 -2.6490 -0.2141
   24MOL   H205 8071   4.079   3.346   6.800  0.3627  1.1918 -1.0799
   24MOL   C206 8072   3.951   3.520   6.721  0.2738  0.1846  0.2152
   24MOL   C207 8073   3.862   3.633   6.786  0.3603  0.4215  0.3423
   24MOL   C208 8074   3.902   3.767   6.768 -0.3176 -0.1535 -0.5164
   24MOL   C209 8075   3.832   3.868   6.838  0.5579  0.1543 -0.1750
   24MOL   C210 8076   3.718   3.840   6.918 -0.7573  0.1065 -0.7044
   24MOL   O211 8077   3.651   3.944   6.971 -0.2009  0.2769 -0.0237
   24MOL   C212 8078   3.667   3.707   6.922 -0.3852 -0.1774  0.0528
   24MOL   C213 8079   3.741   3.601   6.857 -0.3971  0.0738  0.3597
   24MOL   C214 8080   3.881   3.455   6.599 -0.0405  0.4078 -0.4436
   24MOL   H215 8081   4.038   3.569   6.676  1.8179 -2.5497  0.0981
   24MOL   H216 8082   3.993   3.798   6.719  0.1972  0.8197  1.0587
   24MOL   H217 8083   3.868   3.965   6.808 -3.9468  1.7427 -0.7577
   24MOL   H218 8084   3.678   4.030   6.944 -1.3646  0.7373  0.2842
   24MOL   H219 8085   3.580   3.674   6.978  0.0965  0.7689  1.3773
   24MOL   H220 8086   3.693   3.504   6.853  1.7587 -0.9978 -1.2871
   24MOL   H221 8087   3.773   3.444   6.596 -0.0897  0.4256  1.0799
   24MOL   H222 8088   3.909   3.349   6.604 -1.8678 -0.0584  0.3588
   24MOL   C223 8089   3.920   3.516   6.458 -0.1706 -0.6161 -0.3267
   24MOL   C224 8090   3.865   3.659   6.445  0.0888 -0.0488 -0.0109
   24MOL   C225 8091   3.956   3.753   6.392  0.1440  0.2685 -0.5757
   24MOL   C226 8092   3.918   3.885   6.393  0.4257  0.4335  0.4838
   24MOL   C227 8093   3.797   3.932   6.444 -0.2303 -0.1608  0.1897
   24MOL   O228 8094   3.771   4.070   6.448  0.0387  0.1859  0.0144
   24MOL   C229 8095   3.703   3.837   6.494  0.2417  0.2577  0.1778
   24MOL   C230 8096   3.741   3.704   6.500 -0.3878  0.4870 -0.5601
   24MOL   C231 8097   3.847   3.436   6.347  0.2721  0.8864  0.0038
   24MOL   H232 8098   4.028   3.519   6.443  0.0737  0.1004  1.4694
   24MOL   H233 8099   4.052   3.731   6.348 -0.1443 -1.3591 -0.4156
   24MOL   H234 8100   3.994   3.954   6.360 -2.7875  2.5831 -2.8710
   24MOL   H235 8101   3.680   4.084   6.425  0.2433  0.3947 -0.6977
   24MOL   H236 8102   3.612   3.859   6.547 -0.7400 -1.6230 -0.6649
   24MOL   H237 8103   3.666   3.632   6.531 -0.1179 -0.0116 -1.0594
   24MOL   H238 8104   3.886   3.334   6.346  0.8383  1.1021 -0.6562
   24MOL   H239 8105   3.744   3.428   6.380 -0.3022  0.6813 -1.7853
   24MOL   C240 8106   3.853   3.486   6.199  0.1064 -0.0942  0.8205
   24MOL   C241 8107   3.989   3.495   6.136 -0.0207  0.6770 -0.3191
   24MOL   C242 8108   4.027   3.609   6.060  1.1231  0.0409  0.3396
   24MOL   C243 8109   4.163   3.643   6.032 -0.6620 -0.3162 -0.2768
   24MOL   C244 8110   4.263   3.547   6.067  0.7588 -0.3032  0.0031
   24MOL   O245 8111   4.398   3.575   6.036 -0.2914  0.6026  0.0839
   24MOL   C246 8112   4.225   3.432   6.139  0.2970 -0.4952 -0.0307
   24MOL   C247 8113   4.090   3.400   6.168 -0.2809  0.0867  0.7268
   24MOL   C248 8114   3.768   3.393   6.107  0.4252  0.4797  0.1597
   24MOL   H249 8115   3.811   3.587   6.196 -1.5471 -0.7521  1.0308
   24MOL   H250 8116   3.951   3.679   6.027  0.7042 -0.5044  0.1447
   24MOL   H251 8117   4.192   3.734   5.981  0.7077 -0.6600 -0.1274
   24MOL   H252 8118   4.459   3.518   6.078 -0.1090  1.4395  0.9705
   24MOL   H253 8119   4.302   3.357   6.153 -0.1089 -0.7042  1.1175
   24MOL   H254 8120   4.058   3.307   6.214  1.3470  0.1499  2.0690
   24MOL   H255 8121   3.828   3.356   6.024  0.3810 -1.9881  1.1721
   24MOL   H256 8122   3.756   3.302   6.166  3.0336  0.9627  1.4987
   24MOL   C257 8123   3.632   3.460   6.065  1.3305 -0.1671 -0.0021
   24MOL   C258 8124   3.659   3.581   5.972  0.1242 -0.2139  0.3100
   24MOL   C259 8125   3.635   3.708   6.017 -0.1271 -0.0254  0.1019
   24MOL   C260 8126   3.647   3.816   5.927  0.6256 -0.3346 -0.1291
   24MOL   C261 8127   3.690   3.791   5.796  0.2937 -0.3987  0.3884
   24MOL   O262 8128   3.700   3.887   5.699  0.3668  0.2166  0.0432
   24MOL   C263 8129   3.714   3.661   5.756 -0.7166 -0.5913  0.4152
   24MOL   C264 8130   3.707   3.553   5.843 -0.0825 -0.1074 -0.2074
   24MOL   C265 8131   3.536   3.357   6.002  0.3595  0.8770  0.5254
   24MOL   H266 8132   3.601   3.499   6.162  0.7873  0.3996 -0.3961
   24MOL   H267 8133   3.602   3.721   6.119  1.5647  0.0485  0.6445
   24MOL   H268 8134   3.629   3.920   5.947 -2.7486 -0.7563 -0.6942
   24MOL   H269 8135   3.648   3.957   5.734  1.3109 -0.0634  2.0446
   24MOL   H270 8136   3.744   3.647   5.654  0.0614  1.1365  0.3903
   24MOL   H271 8137   3.709   3.451   5.809 -2.4158 -0.4565  0.6301
   24MOL   H272 8138   3.570   3.261   6.038  1.1376  0.5339 -1.0869
   24MOL   H273 8139   3.556   3.347   5.895 -2.6753 -0.0899 -0.0004
   24MOL   C274 8140   3.378   3.363   6.021  0.1565  0.0291 -0.1717
   24MOL   C275 8141   3.312   3.240   5.962 -0.0868 -0.4901  0.0345
   24MOL   C276 8142   3.254   3.138   6.043  0.4742 -0.4512  0.0037
   24MOL   C277 8143   3.196   3.028   5.980  0.1112  0.4686  0.3713
   24MOL   C278 8144   3.200   3.015   5.837  0.3852 -0.3799  0.0546
   24MOL   O279 8145   3.142   2.911   5.768  0.2143  0.4790  0.1756
   24MOL   C280 8146   3.245   3.124   5.757 -0.2641  0.4431 -0.1631
   24MOL   C281 8147   3.302   3.236   5.817  0.1862 -0.0749 -0.2018
   24MOL   C282 8148   3.317   3.491   5.974  0.1250  0.2380 -0.1834
   24MOL   H283 8149   3.348   3.365   6.126  0.5981 -0.4518 -0.0352
   24MOL   H284 8150   3.255   3.140   6.151 -1.7728  0.1683  0.0416
   24MOL   H285 8151   3.162   2.952   6.048  1.7604  0.0964  0.8146
   24MOL   H286 8152   3.096   2.848   5.822  2.1189 -1.1729 -0.0387
   24MOL   H287 8153   3.221   3.118   5.652 -3.1627 -0.7255  0.5167
   24MOL   H288 8154   3.337   3.318   5.757  0.2133 -0.4723 -0.7292
   24MOL   H289 8155   3.375   3.563   6.032  2.0516 -0.9843 -0.5204
   24MOL   H290 8156   3.333   3.515   5.869  0.1097  0.2796 -0.1760
   24MOL   C291 8157   3.168   3.534   6.016 -0.4783 -0.2553 -0.3863
   24MOL   C292 8158   3.070   3.484   5.913  0.5163 -0.2332  0.8510
   24MOL   C293 8159   3.036   3.562   5.795  0.6557  0.1445  0.1816
   24MOL   C294 8160   2.946   3.506   5.700  0.1083  0.2548 -0.7136
   24MOL   C295 8161   2.894   3.381   5.721 -0.9141 -0.2685  0.2054
   24MOL   O296 8162   2.797   3.334   5.639  0.6308 -0.7151 -0.3723
   24MOL   C297 8163   2.936   3.307   5.831 -0.6903  0.3804  0.1755
   24MOL   C298 8164   3.020   3.355   5.932 -0.1596  0.3144  0.3349
   24MOL   C299 8165   3.156   3.686   6.054  0.3031 -0.3036 -0.6394
   24MOL   H300 8166   3.141   3.480   6.106  0.1955  1.9569  1.1882
   24MOL   H301 8167   3.077   3.661   5.784  1.6273 -0.3558 -0.8273
   24MOL   H302 8168   2.915   3.568   5.617  1.6137  2.4306  0.3081
   24MOL   H303 8169   2.738   3.389   5.591 -1.8881 -3.8798 -1.1389
   24MOL   H304 8170   2.909   3.203   5.835  0.4395  0.0539 -0.3425
   24MOL   H305 8171   3.058   3.293   6.012  1.8310  0.2061 -0.6523
   24MOL   H306 8172   3.184   3.740   5.964  0.4344 -0.7209 -0.8539
   24MOL   H307 8173   3.241   3.701   6.120  0.4402  0.9258 -1.1014
   24MOL   C308 8174   3.022   3.737   6.115 -0.0513 -0.5066  0.3023
   24MOL   C309 8175   3.010   3.893   6.107  0.5217 -0.0726 -0.2005
   24MOL   C310 8176   2.883   3.952   6.094 -0.2764 -0.0547 -0.0846
   24MOL   C311 8177   2.878   4.093   6.066  0.1274  0.1713  0.1067
   24MOL   C312 8178   2.994   4.169   6.062 -0.4453  0.1060  0.1162
   24MOL   O313 8179   2.977   4.303   6.062 -0.3144 -0.2576  0.8730
   24MOL   C314 8180   3.118   4.114   6.083 -0.2652 -0.3412  0.3989
   24MOL   C315 8181   3.121   3.974   6.110 -0.0107 -0.0212 -0.1922
   24MOL   C316 8182   2.984   3.674   6.257 -0.4992 -0.0215 -0.0056
   24MOL   H317 8183   2.942   3.699   6.051  1.5954 -1.8449 -1.0052
   24MOL   H318 8184   2.791   3.896   6.103 -2.6125  3.8998  2.4397
   24MOL   H319 8185   2.785   4.146   6.052  0.0120 -0.5479 -2.0262
   24MOL   H320 8186   2.900   4.343   6.025  1.0382  1.7250  0.0484
   24MOL   H321 8187   3.209   4.172   6.084 -1.0771  0.9790 -0.9686
   24MOL   H322 8188   3.211   3.917   6.128  0.5860  0.7918 -0.6153
   24MOL   H323 8189   2.985   3.566   6.242 -1.1867  0.2014 -1.9073
   24MOL   H324 8190   2.878   3.700   6.262 -0.9927 -1.8813 -0.1111
   24MOL   C325 8191   3.069   3.725   6.376 -0.5640 -0.7084 -0.3506
   24MOL   C326 8192   3.181   3.621   6.396  0.5111 -0.1916  0.1631
   24MOL   C327 8193   3.157   3.484   6.438  0.1950  0.3097  0.3502
   24MOL   C328 8194   3.265   3.393   6.454  0.5243 -0.6374  0.5241
   24MOL   C329 8195   3.396   3.432   6.419 -0.3670  0.0085  0.3706
   24MOL   O330 8196   3.508   3.350   6.427 -0.3849 -0.2536  0.1811
   24MOL   C331 8197   3.419   3.565   6.379  0.5125 -0.3171 -0.4259
   24MOL   C332 8198   3.314   3.659   6.371  0.3082  0.0196 -0.7726
   24MOL   C333 8199   3.004   3.759   6.517 -0.2597 -0.4841  0.1495
   24MOL   H334 8200   3.123   3.816   6.348 -1.6324 -0.2310 -0.8737
   24MOL   H335 8201   3.057   3.452   6.462  0.6470  0.1450  2.0756
   24MOL   H336 8202   3.249   3.291   6.483  0.4307 -1.4252 -2.1993
   24MOL   H337 8203   3.501   3.288   6.498 -1.4540 -0.2567  0.0698
   24MOL   H338 8204   3.523   3.588   6.359  0.2474  0.9502 -0.3653
   24MOL   H339 8205   3.345   3.759   6.343  0.4298  0.3307  0.4350
   24MOL   H340 8206   2.918   3.820   6.492  0.7175  0.2893 -1.4321
   24MOL   H341 8207   3.070   3.823   6.575  0.6267  0.1223 -1.4797
   24MOL   H342 8208   2.977   3.667   6.570  0.5449 -0.6467  0.2832
   25MOL     C1 8209   7.589   2.076   4.570 -0.4318 -0.0058  0.2086
   25MOL     C2 8210   7.479   2.011   4.657  0.0111 -0.1590  0.4563
   25MOL     C3 8211   7.449   2.069   4.782  0.2159  0.2576  0.1340
   25MOL     C4 8212   7.364   2.015   4.878  0.4490 -0.1611  0.0919
   25MOL     C5 8213   7.298   1.895   4.844  0.1367  0.0058  0.3305
   25MOL     O6 8214   7.203   1.848   4.931  0.1228 -0.2084  0.0186
   25MOL     C7 8215   7.335   1.832   4.723 -0.0509  0.0346  0.5957
   25MOL     C8 8216   7.428   1.885   4.625  0.3490 -0.2425 -0.4657
   25MOL     C9 8217   7.720   1.986   4.601  0.1166  0.4677  0.1182
   25MOL    H10 8218   7.554   2.079   4.467 -2.9091  2.3805  1.0707
   25MOL    H11 8219   7.495   2.165   4.801 -1.1340  1.2804 -1.5935
   25MOL    H12 8220   7.352   2.067   4.971  0.6131  0.9672 -0.5073
   25MOL    H13 8221   7.153   1.777   4.893 -1.0070  0.6498 -0.0852
   25MOL    H14 8222   7.274   1.747   4.697 -0.1561  0.1392  0.5033
   25MOL    H15 8223   7.444   1.832   4.532  0.2818 -1.8457  0.3994
   25MOL    H16 8224   7.709   1.889   4.553  0.7776  0.4275  0.0416
   25MOL    H17 8225   7.719   1.973   4.709 -0.8854 -2.5018 -0.2103
   25MOL    H18 8226   7.602   2.173   4.618 -2.6225 -0.1892  1.2268
   25MOL    C19 8227   7.856   2.057   4.577  0.0404  0.3663 -0.2269
   25MOL    C20 8228   7.886   2.072   4.429 -0.7282  0.2011 -0.5578
   25MOL    C21 8229   7.993   2.159   4.397  0.0887  0.0889 -0.0757
   25MOL    C22 8230   8.035   2.181   4.258  0.4205  0.3311  0.0047
   25MOL    C23 8231   7.953   2.129   4.152  0.3525  0.7502  0.0815
   25MOL    O24 8232   7.990   2.150   4.021 -0.0732 -0.4079  0.5683
   25MOL    C25 8233   7.836   2.045   4.185 -0.2539  0.1259  0.4088
   25MOL    C26 8234   7.809   2.018   4.320  0.7765 -0.3150  0.5546
   25MOL    C27 8235   7.968   1.982   4.654 -0.5901 -0.7073  0.7307
   25MOL    H28 8236   7.859   2.162   4.607  1.3407  1.2878 -3.3988
   25MOL    H29 8237   0.008   2.208   4.477 -1.6440  1.4283  0.2821
   25MOL    H30 8238   0.082   2.244   4.239 -1.0890  2.4200  0.0382
   25MOL    H31 8239   8.036   2.230   4.002 -0.3526  0.2006  2.4136
   25MOL    H32 8240   7.767   2.011   4.109  0.2558 -2.0633  0.8982
   25MOL    H33 8241   7.726   1.950   4.331 -1.3772  2.0711 -0.4854
   25MOL    H34 8242   0.024   2.029   4.624 -1.1554  1.1052  1.6880
   25MOL    H35 8243   7.986   1.877   4.632  1.8075 -0.7131  2.4749
   25MOL    C36 8244   7.960   1.987   4.810 -0.3889  0.7290 -0.2041
   25MOL    C37 8245   7.943   2.129   4.862  0.4345  1.0171  0.3077
   25MOL    C38 8246   0.009   2.222   4.826  0.3017  0.1680  0.3499
   25MOL    C39 8247   8.035   2.355   4.869 -0.7473 -0.0231 -0.0800
   25MOL    C40 8248   7.910   2.404   4.921  0.4517 -0.0924  0.6346
   25MOL    O41 8249   7.892   2.532   4.952 -0.1399 -0.6781  0.0763
   25MOL    C42 8250   7.806   2.313   4.953  0.0931  0.3309  0.3187
   25MOL    C43 8251   7.825   2.178   4.927  1.0609  0.1221 -1.1676
   25MOL    C44 8252   0.042   1.913   4.878 -0.0300 -0.9406 -0.4222
   25MOL    H45 8253   7.871   1.939   4.851 -0.2122 -0.0085 -0.6724
   25MOL    H46 8254   0.100   2.183   4.784 -0.7377 -1.0039 -0.8494
   25MOL    H47 8255   0.077   2.424   4.848 -0.2523 -0.5542  0.0476
   25MOL    H48 8256   7.975   2.577   4.960  1.1554 -3.1550  0.8804
   25MOL    H49 8257   7.721   2.340   5.014  0.7561 -0.6435  1.7163
   25MOL    H50 8258   7.742   2.124   4.969  1.6248  0.4924  0.4341
   25MOL    H51 8259   0.069   1.825   4.821  1.1444  0.4082 -1.9826
   25MOL    H52 8260   0.122   1.987   4.874 -0.2126 -0.7965 -1.5135
   25MOL    C53 8261   0.008   1.874   5.022 -0.4309 -0.1972  0.2767
   25MOL    C54 8262   7.926   1.767   5.038 -0.1041  0.1062  0.4743
   25MOL    C55 8263   7.859   1.713   4.924  1.0703  0.2966  0.0555
   25MOL    C56 8264   7.753   1.625   4.949  0.0751 -0.3974 -0.5813
   25MOL    C57 8265   7.714   1.582   5.075  0.1970  1.0216 -0.4018
   25MOL    O58 8266   7.621   1.479   5.083 -0.2118 -0.2275  0.7049
   25MOL    C59 8267   7.777   1.637   5.190  0.8962 -0.5768  0.4756
   25MOL    C60 8268   7.881   1.734   5.169  0.3621  0.4096  0.5742
   25MOL    C61 8269   0.133   1.826   5.098 -0.4135  0.1727  0.2184
   25MOL    H62 8270   8.008   1.966   5.065 -0.0241  0.2841 -0.3943
   25MOL    H63 8271   7.881   1.736   4.821  1.3432  1.5520  0.3888
   25MOL    H64 8272   7.702   1.579   4.865 -1.0593  2.3125 -1.4182
   25MOL    H65 8273   7.590   1.461   5.170  0.9114  1.3995  1.4650
   25MOL    H66 8274   7.738   1.615   5.288  0.4877  0.4051  0.5401
   25MOL    H67 8275   7.916   1.780   5.260 -0.1121  2.2216 -0.1363
   25MOL    H68 8276   0.113   1.821   5.205  0.8595  0.4164  0.4759
   25MOL    H69 8277   0.214   1.899   5.093 -0.8042  0.6302  0.5088
   25MOL    C70 8278   0.185   1.676   5.057 -0.9750  0.3226 -0.4323
   25MOL    C71 8279   0.251   1.617   5.180 -0.4838 -0.4022 -0.4062
   25MOL    C72 8280   0.186   1.512   5.248 -0.4429  0.2046 -0.0823
   25MOL    C73 8281   0.243   1.448   5.358  0.0530 -1.3537 -0.1213
   25MOL    C74 8282   0.362   1.489   5.416  0.7741 -0.3892  0.0286
   25MOL    O75 8283   0.402   1.421   5.531  0.3235  0.0154 -0.0423
   25MOL    C76 8284   0.419   1.600   5.355 -0.4971  0.0629 -0.0118
   25MOL    C77 8285   0.369   1.661   5.233 -1.4412  0.7463 -0.1952
   25MOL    C78 8286   0.278   1.666   4.931  0.7907  0.0553 -0.1693
   25MOL    H79 8287   0.096   1.618   5.032 -1.1237  0.3300  0.0853
   25MOL    H80 8288   0.086   1.486   5.217  0.8708 -2.0438 -2.6295
   25MOL    H81 8289   0.181   1.374   5.407  0.9745 -1.5968  0.6852
   25MOL    H82 8290   0.411   1.477   5.606  4.9838 -0.8663  0.1744
   25MOL    H83 8291   0.511   1.638   5.397  0.2703 -1.5913 -0.1329
   25MOL    H84 8292   0.430   1.728   5.174  0.4154 -0.7582 -0.0390
   25MOL    H85 8293   0.373   1.714   4.955  0.2030  1.2153 -0.1489
   25MOL    H86 8294   0.238   1.716   4.843  0.9538  0.5118  0.0157
   25MOL    C87 8295   0.301   1.517   4.884  0.1101 -0.4853  0.1935
   25MOL    C88 8296   0.457   1.496   4.889  0.1621  0.3815  0.9192
   25MOL    C89 8297   0.547   1.529   4.780  0.0294  0.2405  0.4664
   25MOL    C90 8298   0.681   1.501   4.794 -0.0456  0.5807 -0.2983
   25MOL    C91 8299   0.732   1.439   4.913 -0.7763  0.4673 -0.3597
   25MOL    O92 8300   0.868   1.418   4.911 -0.5141  0.4699 -0.4625
   25MOL    C93 8301   0.650   1.408   5.023 -0.0901 -0.6733  0.2541
   25MOL    C94 8302   0.511   1.439   5.007 -0.4982  0.9012 -0.1835
   25MOL    C95 8303   0.252   1.487   4.736 -0.1253  0.1851  0.4227
   25MOL    H96 8304   0.247   1.451   4.952  0.9741 -0.9537  0.4355
   25MOL    H97 8305   0.511   1.577   4.690 -0.2669 -1.5815 -0.4189
   25MOL    H98 8306   0.749   1.532   4.716  1.5039 -2.3833 -0.2304
   25MOL    H99 8307   0.904   1.407   4.998 -1.3362  1.5869  0.0453
   25MOL   H100 8308   0.674   1.350   5.111  0.8188  0.1533  0.5642
   25MOL   H101 8309   0.440   1.408   5.083 -3.1836  2.0267 -2.1492
   25MOL   H102 8310   0.280   1.568   4.668 -1.4456 -0.7525 -1.2977
   25MOL   H103 8311   0.321   1.414   4.693  2.4365  2.6353  0.1847
   25MOL   C104 8312   0.114   1.445   4.699  0.9671  0.3844 -0.4358
   25MOL   C105 8313   0.067   1.332   4.791  0.3918  0.1585  0.1148
   25MOL   C106 8314   0.137   1.208   4.799  0.5379  0.1304  0.0711
   25MOL   C107 8315   0.099   1.117   4.895 -0.1156 -0.2278 -0.5039
   25MOL   C108 8316   0.002   1.147   4.993 -0.0736  0.1468  0.0994
   25MOL   O109 8317   8.026   1.055   5.101  0.0500 -0.0365 -0.3504
   25MOL   C110 8318   7.978   1.268   4.989  0.2669  0.5092 -0.0194
   25MOL   C111 8319   8.002   1.362   4.886  0.1751 -0.1001  0.3428
   25MOL   C112 8320   0.101   1.416   4.549 -0.4602 -0.0394 -0.4704
   25MOL   H113 8321   0.048   1.532   4.706  1.5506  0.6418  2.1710
   25MOL   H114 8322   0.216   1.181   4.732  0.7870  0.6113  0.1713
   25MOL   H115 8323   0.143   1.018   4.898  0.2380 -0.0397  1.6343
   25MOL   H116 8324   7.958   1.080   5.162  0.3119 -0.0371 -0.0599
   25MOL   H117 8325   7.904   1.293   5.064 -0.3691 -0.9572 -0.1319
   25MOL   H118 8326   7.950   1.456   4.879  0.9354  0.2384 -1.0116
   25MOL   H119 8327   0.186   1.349   4.539  1.5073  1.9281  2.0116
   25MOL   H120 8328   0.120   1.505   4.488 -0.8846 -0.3967 -1.1277
   25MOL   C121 8329   8.023   1.328   4.504 -0.2573  0.3281  0.0874
   25MOL   C122 8330   7.894   1.396   4.548  0.8222  0.0280 -0.6689
   25MOL   C123 8331   7.841   1.509   4.480 -0.4535  0.4744  0.3094
   25MOL   C124 8332   7.719   1.563   4.511 -0.1051 -0.2113 -0.0893
   25MOL   C125 8333   7.640   1.514   4.612  0.2725  0.9299  0.4614
   25MOL   O126 8334   7.527   1.574   4.649 -0.4921  0.5696  0.5811
   25MOL   C127 8335   7.689   1.405   4.680  0.2606 -0.2065  0.5747
   25MOL   C128 8336   7.809   1.338   4.647 -0.0951 -0.9010 -0.0471
   25MOL   C129 8337   0.000   1.305   4.350 -0.1160 -0.1114 -0.1579
   25MOL   H130 8338   8.020   1.231   4.553 -1.3358  0.1159 -0.3901
   25MOL   H131 8339   7.906   1.546   4.402  0.5215 -3.3480 -0.7902
   25MOL   H132 8340   7.695   1.660   4.469 -1.3431 -0.0177  1.0223
   25MOL   H133 8341   7.501   1.554   4.738  2.1776  0.5949  1.4211
   25MOL   H134 8342   7.628   1.359   4.756  0.1654 -0.1940  0.5050
   25MOL   H135 8343   7.829   1.242   4.691 -1.3308 -0.2682  1.9787
   25MOL   H136 8344   0.105   1.285   4.326 -0.1526 -3.9737  2.5682
   25MOL   H137 8345   8.032   1.409   4.318  0.7657 -0.2362 -0.7296
   25MOL   C138 8346   7.930   1.225   4.269  0.5013 -0.3716 -0.5660
   25MOL   C139 8347   7.905   1.083   4.332  0.2980  0.4601 -0.0304
   25MOL   C140 8348   7.773   1.053   4.380  0.3611  0.0295 -0.3547
   25MOL   C141 8349   7.745   0.920   4.432 -0.2420  0.2544  0.1547
   25MOL   C142 8350   7.846   0.825   4.429  0.6718  0.6307 -0.2382
   25MOL   O143 8351   7.823   0.704   4.486 -0.0785 -0.0265  0.0222
   25MOL   C144 8352   7.980   0.856   4.386  0.5777 -0.0944  0.4316
   25MOL   C145 8353   8.009   0.985   4.337  0.1869 -0.2303 -0.4988
   25MOL   C146 8354   7.964   1.215   4.120 -0.0119  0.7284  0.1829
   25MOL   H147 8355   7.839   1.283   4.284  0.9306  0.1786 -0.0568
   25MOL   H148 8356   7.686   1.116   4.374 -1.6682 -2.7205 -1.1718
   25MOL   H149 8357   7.646   0.892   4.465  0.3657 -1.2536  0.7100
   25MOL   H150 8358   7.889   0.645   4.452 -2.0897 -1.5412 -1.3095
   25MOL   H151 8359   0.034   0.802   4.408  0.7346  0.8586  2.2497
   25MOL   H152 8360   0.072   1.011   4.305  0.6152 -0.4972  0.6019
   25MOL   H153 8361   0.023   1.166   4.112 -0.8093 -0.7226 -0.6478
   25MOL   H154 8362   7.974   1.309   4.065 -0.9346  0.2384 -0.8368
   25MOL   C155 8363   7.855   1.136   4.043  0.0553  0.1799  0.3329
   25MOL   C156 8364   7.909   1.085   3.911  0.1843 -0.5730 -0.5199
   25MOL   C157 8365   7.957   1.175   3.812  0.8627 -0.1453 -0.2973
   25MOL   C158 8366   8.001   1.128   3.685 -0.3479 -0.4722 -0.2336
   25MOL   C159 8367   7.985   0.989   3.656 -0.0930 -0.4524 -0.7009
   25MOL   O160 8368   8.015   0.939   3.531 -0.0890  0.5818  0.0350
   25MOL   C161 8369   7.942   0.902   3.756  0.5265  0.0934  0.7805
   25MOL   C162 8370   7.894   0.950   3.880 -0.0842  1.2506 -1.1420
   25MOL   C163 8371   7.726   1.219   4.020 -0.5055  0.5381 -0.9314
   25MOL   H164 8372   7.823   1.051   4.103 -0.8882  0.5017  0.2973
   25MOL   H165 8373   7.954   1.279   3.840 -0.6565 -0.6450  1.4296
   25MOL   H166 8374   8.023   1.204   3.611 -0.0723  0.6756  1.0153
   25MOL   H167 8375   8.033   0.847   3.542  1.2024  0.6818 -1.0910
   25MOL   H168 8376   7.923   0.798   3.733 -1.3281  0.2076  1.6886
   25MOL   H169 8377   7.848   0.888   3.955 -1.7076  2.3659 -1.1881
   25MOL   H170 8378   7.762   1.308   3.969 -0.2141  0.5839 -0.6437
   25MOL   H171 8379   7.687   1.248   4.117 -1.6510  1.4195 -1.6344
   25MOL   C172 8380   7.615   1.154   3.924  0.5762  0.2697 -0.3862
   25MOL   C173 8381   7.537   1.257   3.845  0.7508  0.6110 -0.6931
   25MOL   C174 8382   7.428   1.332   3.896 -0.7095  0.2718 -0.3624
   25MOL   C175 8383   7.365   1.431   3.823  1.1290 -0.4867 -0.3594
   25MOL   C176 8384   7.407   1.458   3.692  0.4285 -0.2008  0.0582
   25MOL   O177 8385   7.351   1.559   3.615  0.1741 -0.4367 -0.3401
   25MOL   C178 8386   7.504   1.376   3.633 -0.3062  0.4801  0.7934
   25MOL   C179 8387   7.565   1.274   3.706 -0.2197 -0.6904 -0.2451
   25MOL   C180 8388   7.520   1.053   3.991  0.1060 -0.1467 -0.1456
   25MOL   H181 8389   7.665   1.086   3.855  1.0307  0.4672 -0.2531
   25MOL   H182 8390   7.396   1.318   3.998 -0.5836 -0.0857 -0.3690
   25MOL   H183 8391   7.282   1.483   3.868  0.0189 -2.2072 -0.3739
   25MOL   H184 8392   7.387   1.553   3.527  1.3984  1.2991  0.0270
   25MOL   H185 8393   7.532   1.395   3.530  2.1789  0.7131  1.4971
   25MOL   H186 8394   7.640   1.214   3.656 -0.3170 -1.9047  1.0279
   25MOL   H187 8395   7.452   1.107   4.057  2.3904 -0.7491  2.7765
   25MOL   H188 8396   7.579   0.989   4.056  1.2035  1.9758  0.9773
   25MOL   C189 8397   7.445   0.958   3.893  0.2754  0.4601  0.8821
   25MOL   C190 8398   7.538   0.863   3.820 -0.8399 -0.8637 -0.6261
   25MOL   C191 8399   7.599   0.755   3.886 -0.6089 -0.1849  0.4752
   25MOL   C192 8400   7.691   0.671   3.821 -0.2423 -0.6829 -0.9270
   25MOL   C193 8401   7.711   0.679   3.687 -0.3069 -0.4826  0.3198
   25MOL   O194 8402   7.783   0.582   3.625 -0.3112 -0.1946 -0.0171
   25MOL   C195 8403   7.646   0.783   3.614 -0.3461 -0.2345  0.1071
   25MOL   C196 8404   7.557   0.872   3.681  0.1408  0.4533  0.0584
   25MOL   C197 8405   7.325   0.881   3.953  0.6037 -0.1727 -0.2479
   25MOL   H198 8406   7.410   1.030   3.819  0.1101 -1.3478 -0.8427
   25MOL   H199 8407   7.586   0.739   3.992 -1.0532 -0.8707  0.3177
   25MOL   H200 8408   7.735   0.590   3.877  2.2679  0.7074 -0.8375
   25MOL   H201 8409   7.798   0.505   3.679 -0.0348 -1.3682 -1.7283
   25MOL   H202 8410   7.646   0.774   3.506 -1.1514 -1.3921  0.1946
   25MOL   H203 8411   7.503   0.946   3.623  1.0669  0.5464 -0.6945
   25MOL   H204 8412   7.268   0.938   4.026  0.3721  1.2022 -1.4965
   25MOL   H205 8413   7.355   0.802   4.023  0.2374  0.5807  0.7750
   25MOL   C206 8414   7.231   0.810   3.847 -0.0510 -0.1043 -0.2517
   25MOL   C207 8415   7.077   0.821   3.875 -0.0408 -0.5254  0.3929
   25MOL   C208 8416   7.014   0.944   3.842  0.3123 -0.4531 -0.0657
   25MOL   C209 8417   6.876   0.950   3.864 -0.7004 -0.3206  0.1522
   25MOL   C210 8418   6.801   0.840   3.912 -0.0069 -0.2161  1.2364
   25MOL   O211 8419   6.665   0.843   3.923 -0.1687  0.0796  0.5519
   25MOL   C212 8420   6.866   0.723   3.952 -0.3527 -0.1763 -0.1138
   25MOL   C213 8421   7.003   0.709   3.925 -0.3608  0.4940  0.3401
   25MOL   C214 8422   7.276   0.669   3.803  0.0457 -0.6796 -0.5307
   25MOL   H215 8423   7.238   0.864   3.752  0.0666  2.3203  1.1120
   25MOL   H216 8424   7.061   1.035   3.810 -0.8553  0.7108  1.4218
   25MOL   H217 8425   6.821   1.038   3.834  0.6135  0.8291  1.0740
   25MOL   H218 8426   6.627   0.913   3.872 -0.0498 -0.4903 -0.3269
   25MOL   H219 8427   6.803   0.650   4.001 -1.3802  1.7532  1.5091
   25MOL   H220 8428   7.058   0.620   3.952 -1.8334 -0.6122 -0.2598
   25MOL   H221 8429   7.291   0.613   3.895  0.7717 -1.3539 -1.0477
   25MOL   H222 8430   7.375   0.668   3.759  0.5425 -0.5259  0.5688
   25MOL   C223 8431   7.197   0.588   3.694 -0.2073  0.5467  0.0418
   25MOL   C224 8432   7.276   0.457   3.670  0.5168 -0.9554  0.0409
   25MOL   C225 8433   7.229   0.346   3.735 -0.2982  0.1832  0.3021
   25MOL   C226 8434   7.300   0.225   3.729 -0.1748 -0.0918 -0.0759
   25MOL   C227 8435   7.419   0.221   3.661 -0.3081  1.0234 -0.0356
   25MOL   O228 8436   7.495   0.108   3.666  0.5775  0.1809 -0.7777
   25MOL   C229 8437   7.467   0.334   3.595 -0.2822 -0.5373 -0.5356
   25MOL   C230 8438   7.389   0.449   3.592 -0.2028 -0.3412 -0.4267
   25MOL   C231 8439   7.190   0.677   3.564  0.4739  0.1293  0.0047
   25MOL   H232 8440   7.094   0.559   3.718 -0.4410 -0.4503 -2.0225
   25MOL   H233 8441   7.140   0.357   3.796  0.5265 -0.3700  1.6235
   25MOL   H234 8442   7.260   0.145   3.790  0.5777  0.0388  0.6018
   25MOL   H235 8443   7.446   0.050   3.722 -0.2781 -0.0464 -1.7365
   25MOL   H236 8444   7.559   0.331   3.538  0.8838 -4.8321  1.4416
   25MOL   H237 8445   7.414   0.540   3.539 -0.9739 -0.3500 -0.8182
   25MOL   H238 8446   7.127   0.756   3.606  2.8375  1.2757  1.4980
   25MOL   H239 8447   7.286   0.720   3.536  0.7670 -0.8839 -0.5576
   25MOL   C240 8448   7.122   0.617   3.437 -0.4203  0.2824  0.1975
   25MOL   C241 8449   6.982   0.554   3.457  0.3065  0.3372  0.4578
   25MOL   C242 8450   6.887   0.621   3.536  0.0947 -0.2856  0.2807
   25MOL   C243 8451   6.758   0.569   3.547 -0.6243 -0.9360  0.8119
   25MOL   C244 8452   6.717   0.449   3.479 -0.4333  0.2313  0.1295
   25MOL   O245 8453   6.589   0.406   3.494  0.0697  0.3553 -0.4054
   25MOL   C246 8454   6.812   0.382   3.405  0.0735  0.1603 -0.5565
   25MOL   C247 8455   6.938   0.441   3.388  0.3604  0.0564  0.3796
   25MOL   C248 8456   7.111   0.724   3.329  0.5060 -0.8774 -0.5274
   25MOL   H249 8457   7.183   0.540   3.389 -0.9040  0.0381 -0.0228
   25MOL   H250 8458   6.905   0.715   3.587 -1.6429  0.5424 -0.5996
   25MOL   H251 8459   6.689   0.620   3.612 -1.4567 -0.3417 -0.5261
   25MOL   H252 8460   6.572   0.361   3.413  0.2237 -1.6013  0.6218
   25MOL   H253 8461   6.800   0.281   3.369  0.5487 -0.5610  1.2584
   25MOL   H254 8462   7.004   0.391   3.320  0.0380  1.6393 -1.1371
   25MOL   H255 8463   7.039   0.682   3.258  1.3514 -1.1790 -1.2158
   25MOL   H256 8464   7.071   0.816   3.373  1.0225 -0.7981 -0.2259
   25MOL   C257 8465   7.247   0.755   3.258  0.3037  0.4154  0.3567
   25MOL   C258 8466   7.301   0.632   3.180  0.6705  0.7714  0.7009
   25MOL   C259 8467   7.411   0.556   3.232 -0.3184 -0.2371  0.2200
   25MOL   C260 8468   7.454   0.438   3.164  0.3408 -0.5848  0.1053
   25MOL   C261 8469   7.382   0.390   3.046 -0.4475 -0.5011  0.3823
   25MOL   O262 8470   7.420   0.269   2.981  0.8863  0.0918 -0.4544
   25MOL   C263 8471   7.276   0.467   2.998 -0.1275  0.0659  0.1479
   25MOL   C264 8472   7.228   0.586   3.066 -0.4427  0.8688  0.3509
   25MOL   C265 8473   7.234   0.880   3.162 -0.6045  0.5493  0.5461
   25MOL   H266 8474   7.322   0.788   3.330  0.2864 -0.5073  0.8107
   25MOL   H267 8475   7.464   0.586   3.321  0.4790  0.4713 -0.4739
   25MOL   H268 8476   7.529   0.370   3.201  1.6191  1.6126  1.6380
   25MOL   H269 8477   7.454   0.208   3.044 -1.1635  0.7327  1.3122
   25MOL   H270 8478   7.227   0.440   2.905  1.6386 -0.6258 -0.6084
   25MOL   H271 8479   7.148   0.643   3.020 -0.1285  1.4077  0.4644
   25MOL   H272 8480   7.212   0.973   3.215 -0.3711  0.9536 -0.0625
   25MOL   H273 8481   7.149   0.852   3.100  0.1993 -2.1372  0.6012
   25MOL   C274 8482   7.369   0.907   3.081  0.4515  0.5100  0.6706
   25MOL   C275 8483   7.485   0.933   3.179  0.1676  0.2974  0.0786
   25MOL   C276 8484   7.608   0.863   3.176 -0.1342 -0.2275 -0.9936
   25MOL   C277 8485   7.711   0.909   3.267  0.6376  0.2555 -0.5926
   25MOL   C278 8486   7.679   1.009   3.359 -0.1677  0.0212 -0.2593
   25MOL   O279 8487   7.773   1.047   3.444  0.6624  0.4153  0.2242
   25MOL   C280 8488   7.565   1.082   3.360  0.5519 -0.2487 -0.3849
   25MOL   C281 8489   7.466   1.043   3.267 -0.0530  0.5613 -0.6837
   25MOL   C282 8490   7.360   1.018   2.978  0.7779 -0.4469 -0.8888
   25MOL   H283 8491   7.381   0.815   3.023 -1.7660  1.2664 -1.0729
   25MOL   H284 8492   7.624   0.780   3.109  0.0334 -1.0139  0.0084
   25MOL   H285 8493   7.803   0.854   3.279 -0.2907 -0.9683  1.0553
   25MOL   H286 8494   7.861   1.013   3.434  1.0979  2.0912 -2.1185
   25MOL   H287 8495   7.548   1.168   3.423  3.5252  0.5968 -0.6661
   25MOL   H288 8496   7.381   1.109   3.254  0.6684  1.9589  1.3342
   25MOL   H289 8497   7.373   1.115   3.027  1.8848 -1.0150 -0.0447
   25MOL   H290 8498   7.447   1.004   2.913  1.9360  1.1388  0.2741
   25MOL   C291 8499   7.228   1.035   2.901  0.1284  0.9275 -0.9196
   25MOL   C292 8500   7.169   0.906   2.840  0.2757 -0.6346 -0.1708
   25MOL   C293 8501   7.250   0.817   2.766 -0.2494  0.7224  0.4409
   25MOL   C294 8502   7.186   0.699   2.716 -0.1640 -0.3635  0.7470
   25MOL   C295 8503   7.051   0.673   2.728  0.5355 -0.7446 -0.4819
   25MOL   O296 8504   6.997   0.564   2.679 -0.2172 -0.2511 -0.1578
   25MOL   C297 8505   6.967   0.766   2.795 -0.3352  0.8413  0.2493
   25MOL   C298 8506   7.034   0.870   2.860  0.2941 -0.5985  0.0418
   25MOL   C299 8507   7.239   1.138   2.790  0.4045  0.2209 -0.0204
   25MOL   H300 8508   7.156   1.070   2.975  0.3504  0.5698 -0.5328
   25MOL   H301 8509   7.355   0.841   2.752 -0.1902  0.3607  0.2768
   25MOL   H302 8510   7.253   0.621   2.682 -0.9368 -0.5316 -0.4218
   25MOL   H303 8511   7.045   0.522   2.610 -1.0946  1.2067 -1.7042
   25MOL   H304 8512   6.861   0.757   2.816 -0.1766 -0.7697  0.4435
   25MOL   H305 8513   6.964   0.925   2.921 -1.8381 -2.8602 -0.2912
   25MOL   H306 8514   7.333   1.119   2.739 -0.3505  0.0157 -1.3701
   25MOL   H307 8515   7.264   1.237   2.827 -0.5722  0.6637 -0.5203
   25MOL   C308 8516   7.118   1.156   2.687 -0.1825 -0.1704  0.1928
   25MOL   C309 8517   7.174   1.232   2.566 -0.3350 -0.0001 -0.5992
   25MOL   C310 8518   7.212   1.369   2.566  0.0877 -0.5663 -0.0961
   25MOL   C311 8519   7.263   1.436   2.453 -0.1692 -0.3439 -0.5238
   25MOL   C312 8520   7.290   1.357   2.342  0.2607 -0.6444 -0.1590
   25MOL   O313 8521   7.335   1.423   2.235 -0.1187 -0.3308  0.1004
   25MOL   C314 8522   7.263   1.219   2.336  0.1244 -0.4127  0.0134
   25MOL   C315 8523   7.208   1.157   2.450 -0.4190  0.2459 -0.0324
   25MOL   C316 8524   6.990   1.210   2.751 -0.2797  0.0479 -0.7203
   25MOL   H317 8525   7.088   1.060   2.646  3.4289 -1.9385  1.4748
   25MOL   H318 8526   7.184   1.431   2.650  2.5905  1.5738 -0.7479
   25MOL   H319 8527   7.283   1.541   2.442 -0.9582 -0.0648  0.7185
   25MOL   H320 8528   7.357   1.377   2.156  0.4988  1.3697 -0.7326
   25MOL   H321 8529   7.275   1.163   2.244  1.4895  0.1710 -0.1804
   25MOL   H322 8530   7.191   1.051   2.443  1.6549 -0.2749  1.9635
   25MOL   H323 8531   7.017   1.309   2.788  2.8764 -0.2692 -2.0283
   25MOL   H324 8532   6.958   1.153   2.838  1.9586 -0.5167 -0.2371
   25MOL   C325 8533   6.861   1.245   2.669 -0.7260  0.4119  0.6903
   25MOL   C326 8534   6.788   1.123   2.610  0.2917  0.0166  0.3325
   25MOL   C327 8535   6.676   1.059   2.673 -0.2959  0.3604 -0.2937
   25MOL   C328 8536   6.605   0.951   2.615  0.2192 -0.0948 -0.3486
   25MOL   C329 8537   6.651   0.908   2.483 -0.6089 -0.3244  0.2350
   25MOL   O330 8538   6.578   0.814   2.421  0.2839 -0.7538 -0.1090
   25MOL   C331 8539   6.750   0.977   2.419 -0.4856  0.4563  0.3625
   25MOL   C332 8540   6.828   1.073   2.482 -0.3271 -0.5540 -0.1864
   25MOL   C333 8541   6.871   1.369   2.576 -0.1630 -0.5111 -0.6445
   25MOL   H334 8542   6.794   1.276   2.749 -0.7855  0.5818  0.5747
   25MOL   H335 8543   6.628   1.101   2.761 -1.4709 -1.5155 -0.0104
   25MOL   H336 8544   6.529   0.893   2.665  0.3369  0.3234  0.3217
   25MOL   H337 8545   6.582   0.809   2.327  0.4957  1.1228 -0.2301
   25MOL   H338 8546   6.789   0.946   2.323 -1.1691  1.3756 -0.2196
   25MOL   H339 8547   6.916   1.112   2.434 -0.9372  2.1204  0.8016
   25MOL   H340 8548   6.904   1.457   2.631  1.2216 -0.7749 -1.0401
   25MOL   H341 8549   6.777   1.399   2.530 -0.0210  1.0710  0.0341
   25MOL   H342 8550   6.954   1.361   2.506  1.3938  0.2915  1.0542
   26MOL     C1 8551   1.418   7.432   1.902 -0.4757  0.6535  0.0163
   26MOL     C2 8552   1.356   7.377   1.773  0.2896 -0.0481 -0.0401
   26MOL     C3 8553   1.394   7.252   1.734 -0.0556  1.0036 -0.2890
   26MOL     C4 8554   1.351   7.203   1.604  0.3858 -0.4055  0.3983
   26MOL     C5 8555   1.242   7.273   1.543  0.8706 -0.1481 -1.1698
   26MOL     O6 8556   1.191   7.228   1.428  0.5613  0.6072  0.4414
   26MOL     C7 8557   1.192   7.393   1.594 -0.1778 -0.1515 -0.5296
   26MOL     C8 8558   1.261   7.449   1.704  0.4125 -0.0903  0.2686
   26MOL     C9 8559   1.331   7.401   2.014  0.3935 -0.3677  0.1991
   26MOL    H10 8560   1.519   7.390   1.911 -1.4488 -2.2063 -1.8538
   26MOL    H11 8561   1.461   7.193   1.796 -0.0016  1.2886 -0.0753
   26MOL    H12 8562   1.392   7.111   1.565 -0.8754 -0.3153 -1.2369
   26MOL    H13 8563   1.211   7.137   1.414 -0.0326  0.6094 -0.5120
   26MOL    H14 8564   1.105   7.437   1.547  0.1913 -1.5571 -2.5800
   26MOL    H15 8565   1.223   7.538   1.751 -3.7667 -2.5674  1.8690
   26MOL    H16 8566   1.314   7.293   2.011 -1.7937 -0.0789  1.2504
   26MOL    H17 8567   1.238   7.453   1.995  1.0421  1.2463  1.3100
   26MOL    H18 8568   1.446   7.536   1.885 -2.0472  1.0276 -0.3382
   26MOL    C19 8569   1.394   7.451   2.145  0.2041 -0.1672  0.6017
   26MOL    C20 8570   1.535   7.398   2.162  0.3195 -0.0533  0.8305
   26MOL    C21 8571   1.645   7.489   2.153  0.3018 -0.5924  0.3127
   26MOL    C22 8572   1.779   7.442   2.153 -0.1003 -0.1741  0.0403
   26MOL    C23 8573   1.801   7.309   2.186  0.3826  0.7166 -0.4502
   26MOL    O24 8574   1.926   7.264   2.206 -0.0103 -0.4614  0.0761
   26MOL    C25 8575   1.698   7.220   2.213 -0.1835  0.0519  0.3356
   26MOL    C26 8576   1.564   7.262   2.197 -0.0923 -0.3197 -0.1053
   26MOL    C27 8577   1.306   7.410   2.263  0.2870 -0.5582  0.4743
   26MOL    H28 8578   1.397   7.560   2.142 -1.1171 -0.0793  1.9883
   26MOL    H29 8579   1.621   7.594   2.145 -1.9340 -1.1115 -0.3728
   26MOL    H30 8580   1.866   7.503   2.134  0.5190 -1.2918 -0.7324
   26MOL    H31 8581   1.925   7.225   2.292 -1.8629 -1.4936 -0.3779
   26MOL    H32 8582   1.728   7.127   2.260  2.3866  0.9010  0.4415
   26MOL    H33 8583   1.487   7.186   2.206 -1.2274  0.8422  0.1226
   26MOL    H34 8584   1.282   7.305   2.246 -0.2241  0.3469 -5.4887
   26MOL    H35 8585   1.202   7.442   2.270  0.2939 -0.3619 -0.3019
   26MOL    C36 8586   1.363   7.434   2.406 -0.1324  0.4903 -0.1166
   26MOL    C37 8587   1.286   7.332   2.494  0.2805  0.0276 -0.2210
   26MOL    C38 8588   1.146   7.344   2.521 -0.7105 -0.3857 -0.1645
   26MOL    C39 8589   1.076   7.243   2.591 -0.5001  0.4078  0.1044
   26MOL    C40 8590   1.150   7.128   2.638  0.7597 -0.1621  0.0148
   26MOL    O41 8591   1.083   7.036   2.711  0.1582  0.0966  0.0187
   26MOL    C42 8592   1.287   7.123   2.617 -0.6214 -0.3192  0.5873
   26MOL    C43 8593   1.354   7.225   2.552 -0.0756  0.6210 -0.3151
   26MOL    C44 8594   1.350   7.577   2.455  0.3117  0.0021 -0.6128
   26MOL    H45 8595   1.468   7.406   2.411 -0.1303  0.5492  0.1733
   26MOL    H46 8596   1.082   7.425   2.488 -3.0349 -1.7381  0.8732
   26MOL    H47 8597   0.969   7.249   2.608 -0.0417  2.2890  2.6082
   26MOL    H48 8598   0.991   7.059   2.717 -0.4116 -0.8462 -3.6036
   26MOL    H49 8599   1.339   7.034   2.649 -0.4829 -0.7915 -0.9169
   26MOL    H50 8600   1.457   7.213   2.522 -0.2287  0.0244 -0.6012
   26MOL    H51 8601   1.403   7.648   2.391  2.6910  0.0613  1.3310
   26MOL    H52 8602   1.245   7.606   2.443 -0.0232 -1.1228 -0.4307
   26MOL    C53 8603   1.397   7.598   2.610 -0.0127 -0.2733  0.2274
   26MOL    C54 8604   1.530   7.529   2.638 -0.0920 -0.0906  0.0739
   26MOL    C55 8605   1.538   7.429   2.732 -0.1516  0.0460 -0.8853
   26MOL    C56 8606   1.661   7.365   2.753 -0.7037  0.5420  0.9917
   26MOL    C57 8607   1.773   7.395   2.667 -0.0953  1.3317  0.1572
   26MOL    O58 8608   1.892   7.338   2.700 -0.3399  0.2832  0.5906
   26MOL    C59 8609   1.760   7.485   2.560 -0.3802 -0.4649 -0.5513
   26MOL    C60 8610   1.642   7.557   2.554 -0.3061  0.3538 -0.1644
   26MOL    C61 8611   1.403   7.750   2.632  0.6008 -0.0142 -0.6722
   26MOL    H62 8612   1.319   7.547   2.667 -1.1247 -1.1380 -1.9848
   26MOL    H63 8613   1.448   7.394   2.780 -0.2340  0.4330 -0.7561
   26MOL    H64 8614   1.671   7.306   2.843 -0.6901 -0.1951  0.5098
   26MOL    H65 8615   1.970   7.355   2.650  0.6336 -3.5376  0.6251
   26MOL    H66 8616   1.835   7.516   2.488 -0.3124 -0.0668 -0.3156
   26MOL    H67 8617   1.637   7.638   2.483  0.2607 -0.1149 -0.7493
   26MOL    H68 8618   1.304   7.789   2.609  0.0566 -0.2553  1.2169
   26MOL    H69 8619   1.472   7.797   2.561 -0.5573  2.1536 -0.4158
   26MOL    C70 8620   1.427   7.794   2.779 -0.0892 -0.0306  0.3201
   26MOL    C71 8621   1.333   7.731   2.876  0.8613 -0.1047  0.2424
   26MOL    C72 8622   1.381   7.653   2.988 -0.5458 -0.7903  0.3771
   26MOL    C73 8623   1.283   7.595   3.071  0.3770  0.0571 -0.8036
   26MOL    C74 8624   1.145   7.615   3.049 -0.1918  0.5748 -0.1847
   26MOL    O75 8625   1.050   7.556   3.127 -0.4055 -0.6868 -0.0885
   26MOL    C76 8626   1.101   7.696   2.943  0.6866  0.3974 -0.5537
   26MOL    C77 8627   1.195   7.751   2.861  0.3561 -0.5220  0.6328
   26MOL    C78 8628   1.448   7.949   2.792 -0.7127  0.1266  0.0490
   26MOL    H79 8629   1.528   7.759   2.803  1.0803  1.2299 -2.5836
   26MOL    H80 8630   1.484   7.621   2.986 -0.8578 -1.8374  1.1052
   26MOL    H81 8631   1.311   7.523   3.147 -0.1077 -1.2301 -1.8278
   26MOL    H82 8632   0.972   7.602   3.101  0.3491  0.9587  0.4705
   26MOL    H83 8633   0.997   7.720   2.932  0.1482 -1.4799  0.2989
   26MOL    H84 8634   1.152   7.799   2.774 -0.4729 -2.4893 -0.0638
   26MOL    H85 8635   1.361   8.003   2.755 -0.4653 -0.2655 -1.1213
   26MOL    H86 8636   1.531   7.965   2.724 -0.2577 -2.1520  0.0131
   26MOL    C87 8637   1.473   8.017   2.929 -0.2145  0.5250 -0.5195
   26MOL    C88 8638   1.490   0.134   2.917 -0.0798  0.7909 -0.0502
   26MOL    C89 8639   1.442   0.212   3.027  0.3719  0.0612 -0.6879
   26MOL    C90 8640   1.457   0.356   3.032  0.6496  0.3183  0.5338
   26MOL    C91 8641   1.520   0.414   2.924 -0.3612  0.5870 -0.4005
   26MOL    O92 8642   1.526   0.553   2.918  0.0685  0.5195 -0.3294
   26MOL    C93 8643   1.574   0.332   2.820  0.3749  0.1736 -0.2050
   26MOL    C94 8644   1.548   0.199   2.809  0.1946  0.2223  0.4470
   26MOL    C95 8645   1.584   7.954   3.016  0.7055 -0.0432  0.3392
   26MOL    H96 8646   1.378   8.018   2.984 -0.0561 -1.7642 -0.1414
   26MOL    H97 8647   1.404   0.153   3.109  2.9514 -1.4070 -0.4957
   26MOL    H98 8648   1.421   0.406   3.121  1.9900 -0.2913  1.4283
   26MOL    H99 8649   1.511   0.590   3.003  1.1591  0.1216  0.0486
   26MOL   H100 8650   1.629   0.388   2.744  1.2221  0.2344  0.4393
   26MOL   H101 8651   1.583   0.141   2.725 -0.5922 -0.3243  0.4868
   26MOL   H102 8652   1.555   7.986   3.117  0.6435 -0.7291  0.5423
   26MOL   H103 8653   1.582   7.845   3.016  2.1643 -0.0771  0.7902
   26MOL   C104 8654   1.734   8.003   2.998  0.2040  0.2852  0.9984
   26MOL   C105 8655   1.781   7.963   2.854  0.1477 -0.1709  0.5275
   26MOL   C106 8656   1.800   7.828   2.818  0.6661  0.4071 -0.6036
   26MOL   C107 8657   1.857   7.791   2.696 -0.7803 -1.0096  0.0208
   26MOL   C108 8658   1.913   7.886   2.610  0.3453  0.0079  0.1470
   26MOL   O109 8659   1.997   7.864   2.500  0.2221 -0.3658  0.0392
   26MOL   C110 8660   1.891   8.022   2.638 -0.5853  0.1674  0.0129
   26MOL   C111 8661   1.826   0.020   2.760  0.1648 -0.6673  0.2715
   26MOL   C112 8662   1.821   7.927   3.107  0.0208  0.0275 -0.1096
   26MOL   H113 8663   1.743   0.074   3.002  1.0886  0.2646  0.0006
   26MOL   H114 8664   1.770   7.744   2.879  1.5356  1.4058  1.2315
   26MOL   H115 8665   1.863   7.685   2.679 -1.0009 -1.0982  0.4924
   26MOL   H116 8666   2.043   7.945   2.483 -0.9417  0.1453 -0.6684
   26MOL   H117 8667   1.931   0.062   2.575 -1.1337 -1.3458 -2.2609
   26MOL   H118 8668   1.817   0.126   2.782  0.6018 -0.1654 -1.8521
   26MOL   H119 8669   1.803   7.820   3.099  1.1130 -0.1574 -0.1816
   26MOL   H120 8670   1.778   7.960   3.201  1.4781 -2.7157  1.6008
   26MOL   C121 8671   1.968   7.946   3.112  0.2944  0.3714 -0.5840
   26MOL   C122 8672   2.016   0.047   3.086 -0.0846 -0.0247 -0.2327
   26MOL   C123 8673   2.097   0.081   2.971 -0.2887 -0.1976 -0.0346
   26MOL   C124 8674   2.163   0.210   2.959 -0.1427  0.7144  0.5935
   26MOL   C125 8675   2.134   0.307   3.056 -0.1563  0.2612 -0.3414
   26MOL   O126 8676   2.206   0.427   3.052 -0.4088 -0.0943 -0.0041
   26MOL   C127 8677   2.062   0.272   3.171 -0.7355 -0.3620  0.5935
   26MOL   C128 8678   2.000   0.148   3.189 -0.3369 -0.5840  0.2959
   26MOL   C129 8679   2.025   7.880   3.235 -0.1492  0.7183 -0.0594
   26MOL   H130 8680   1.996   7.878   3.032 -1.8092  0.6292 -1.5847
   26MOL   H131 8681   2.116   0.006   2.895 -0.6978 -0.7407  0.3956
   26MOL   H132 8682   2.232   0.240   2.881 -1.2279  0.2984 -0.5498
   26MOL   H133 8683   2.225   0.459   3.138 -1.9835 -0.6893  0.5824
   26MOL   H134 8684   2.052   0.340   3.254 -1.6383 -0.7198  0.7844
   26MOL   H135 8685   1.948   0.120   3.279  0.7752 -0.8019  0.8685
   26MOL   H136 8686   1.948   7.843   3.303 -0.4682  0.3209 -0.6307
   26MOL   H137 8687   2.082   7.956   3.289  1.0956 -1.1748  1.3602
   26MOL   C138 8688   2.125   7.766   3.197 -0.7230 -0.3446  0.3545
   26MOL   C139 8689   2.059   7.650   3.124 -0.3805 -0.6147 -0.0601
   26MOL   C140 8690   1.933   7.597   3.165 -0.6869  0.1162  0.0118
   26MOL   C141 8691   1.887   7.475   3.109  0.4050  0.6941 -0.2753
   26MOL   C142 8692   1.956   7.406   3.010  0.1420  0.6054  0.2235
   26MOL   O143 8693   1.901   7.291   2.969  0.3768  0.4670  0.0667
   26MOL   C144 8694   2.079   7.456   2.966  0.1822 -0.0938 -0.5340
   26MOL   C145 8695   2.126   7.576   3.024 -0.4453 -0.1564 -0.6140
   26MOL   C146 8696   2.219   7.718   3.318  0.2493  0.2747  0.2081
   26MOL   H147 8697   2.193   7.809   3.124 -1.7173  2.6991  1.1136
   26MOL   H148 8698   1.862   7.638   3.236  0.0650  1.3054  0.0900
   26MOL   H149 8699   1.795   7.429   3.143 -0.0576  2.2854  0.7000
   26MOL   H150 8700   1.897   7.277   2.875 -0.8533 -0.2596  0.2042
   26MOL   H151 8701   2.130   7.406   2.886 -0.6545  1.3475 -1.9966
   26MOL   H152 8702   2.223   7.615   2.997  0.4259 -0.8971  1.3374
   26MOL   H153 8703   2.296   7.650   3.283 -1.4573 -0.9002 -1.3704
   26MOL   H154 8704   2.149   7.666   3.383  0.1669 -0.2838 -0.3211
   26MOL   C155 8705   2.294   7.832   3.393 -0.2896 -0.2314 -0.7210
   26MOL   C156 8706   2.362   7.926   3.303  0.1605 -0.2191 -0.5746
   26MOL   C157 8707   2.336   0.026   3.312  0.0373 -0.1049  0.2965
   26MOL   C158 8708   2.415   0.116   3.246  1.0403 -0.1269 -0.3593
   26MOL   C159 8709   2.516   0.071   3.164  0.4680  0.5280 -0.1184
   26MOL   O160 8710   2.586   0.161   3.094 -0.6357  0.1466  0.0131
   26MOL   C161 8711   2.542   7.975   3.146  0.6364  0.4586 -0.0200
   26MOL   C162 8712   2.467   7.882   3.216  0.6110  0.0142 -0.5744
   26MOL   C163 8713   2.389   7.765   3.497  0.3845  0.1993 -0.5191
   26MOL   H164 8714   2.220   7.880   3.457  0.9004  1.0878 -0.3234
   26MOL   H165 8715   2.266   0.072   3.380 -1.8238 -1.4336 -0.7089
   26MOL   H166 8716   2.385   0.218   3.269  1.5451 -0.1307  0.3189
   26MOL   H167 8717   2.571   0.145   3.002  0.9044 -0.1245 -0.2062
   26MOL   H168 8718   2.629   7.944   3.089  0.7120 -0.3259  0.5158
   26MOL   H169 8719   2.497   7.779   3.204  0.4605 -0.2296  0.9388
   26MOL   H170 8720   2.470   7.720   3.439  2.0032  1.9455  0.3435
   26MOL   H171 8721   2.332   7.701   3.565  0.7167 -1.1224 -1.4477
   26MOL   C172 8722   2.458   7.874   3.584 -0.5058  0.4925  0.0090
   26MOL   C173 8723   2.607   7.856   3.587  0.3815  0.6242 -0.4093
   26MOL   C174 8724   2.677   7.765   3.667  0.4480 -0.4061 -0.6518
   26MOL   C175 8725   2.816   7.755   3.659 -0.7093 -0.5909  0.1054
   26MOL   C176 8726   2.887   7.833   3.555  0.7235 -0.5843 -0.1541
   26MOL   O177 8727   3.019   7.812   3.542  0.2375  0.5285 -0.9837
   26MOL   C178 8728   2.825   7.936   3.483  0.5522  0.5135  0.2066
   26MOL   C179 8729   2.686   7.942   3.504  0.4937  0.1409 -1.2545
   26MOL   C180 8730   2.396   7.880   3.723 -0.6206  0.0080 -0.1753
   26MOL   H181 8731   2.434   7.969   3.538 -2.1193 -1.1026 -2.5796
   26MOL   H182 8732   2.624   7.698   3.733 -0.0328 -1.2673 -1.8943
   26MOL   H183 8733   2.868   7.673   3.706  1.3474  0.5006 -0.2236
   26MOL   H184 8734   3.066   7.874   3.489  0.4829  0.4308 -0.8815
   26MOL   H185 8735   2.875   8.014   3.428 -1.4779  1.7816  0.0899
   26MOL   H186 8736   2.629   8.013   3.446  1.8108  0.8859 -1.6401
   26MOL   H187 8737   2.427   7.811   3.802  0.0722 -0.1812 -0.5972
   26MOL   H188 8738   2.290   7.863   3.704 -0.7283  3.2410 -2.7688
   26MOL   C189 8739   2.406   8.029   3.774  0.1429 -0.3725 -0.8416
   26MOL   C190 8740   2.292   0.026   3.872 -0.2191  0.7153 -0.0505
   26MOL   C191 8741   2.272   8.005   4.001 -0.0642 -0.3174  0.2253
   26MOL   C192 8742   2.170   0.025   4.080 -0.1943 -0.8979  0.2901
   26MOL   C193 8743   2.085   0.130   4.034  0.0319 -0.3716 -0.2000
   26MOL   O194 8744   1.996   0.181   4.124 -0.1897  0.4390 -0.0577
   26MOL   C195 8745   2.104   0.186   3.911 -0.0858  0.4096  0.5899
   26MOL   C196 8746   2.201   0.127   3.825  0.2867  0.4535  0.6088
   26MOL   C197 8747   2.535   0.019   3.857 -0.3169 -0.2233 -0.5770
   26MOL   H198 8748   2.398   0.061   3.691  1.1997 -2.2225 -2.5536
   26MOL   H199 8749   2.329   7.922   4.041 -0.2287 -0.5351  0.0104
   26MOL   H200 8750   2.150   8.023   4.178  0.9897  1.5134  1.5284
   26MOL   H201 8751   2.047   0.188   4.203  0.3012  2.7970 -0.5412
   26MOL   H202 8752   2.044   0.272   3.883 -1.1652  0.3707  2.6125
   26MOL   H203 8753   2.196   0.165   3.724  3.1103 -2.2482 -0.6173
   26MOL   H204 8754   2.620   8.022   3.800  2.3754 -0.0966  3.1539
   26MOL   H205 8755   2.547   7.991   3.944 -0.1781  0.9484  0.2958
   26MOL   C206 8756   2.552   0.163   3.901  0.2481 -0.2736  0.1548
   26MOL   C207 8757   2.549   0.258   3.783 -0.0481  0.4975 -0.4151
   26MOL   C208 8758   2.642   0.252   3.676  0.2052  0.0643 -0.8132
   26MOL   C209 8759   2.626   0.335   3.564  0.8020 -0.0801 -0.6821
   26MOL   C210 8760   2.519   0.429   3.555  0.0366  0.0823 -0.0847
   26MOL   O211 8761   2.504   0.515   3.450  0.8663  0.2626 -0.3346
   26MOL   C212 8762   2.426   0.438   3.657  0.3680 -0.0368 -0.7546
   26MOL   C213 8763   2.442   0.348   3.769  0.3691  0.2220 -0.6500
   26MOL   C214 8764   2.673   0.182   3.997 -0.0703 -0.4778  0.7912
   26MOL   H215 8765   2.461   0.192   3.954  0.2268  2.4789 -1.3047
   26MOL   H216 8766   2.709   0.168   3.669  0.0478 -0.1541  0.1967
   26MOL   H217 8767   2.694   0.316   3.482 -1.0097  1.3817 -2.5529
   26MOL   H218 8768   2.584   0.535   3.404  1.9161 -0.7728  1.0106
   26MOL   H219 8769   2.346   0.510   3.661 -0.3939 -0.8802 -0.4684
   26MOL   H220 8770   2.363   0.348   3.844  1.5840 -2.7315  0.7059
   26MOL   H221 8771   2.715   0.283   3.997  2.2724 -1.4215  1.1330
   26MOL   H222 8772   2.752   0.121   3.955  0.1624  0.0550  0.4505
   26MOL   C223 8773   2.653   0.158   4.150  0.6905  0.0177 -0.5670
   26MOL   C224 8774   2.527   0.229   4.209  0.0318  0.7560  0.4340
   26MOL   C225 8775   2.440   0.143   4.284 -0.7701 -0.6345  1.1586
   26MOL   C226 8776   2.317   0.195   4.333 -1.0655  0.0617 -0.0138
   26MOL   C227 8777   2.279   0.322   4.293 -0.0381  0.9155  0.2549
   26MOL   O228 8778   2.158   0.373   4.336  0.1628 -0.0222 -0.6458
   26MOL   C229 8779   2.358   0.403   4.212  0.2753  0.1171 -0.6856
   26MOL   C230 8780   2.483   0.356   4.172  0.4158 -0.0608 -0.8309
   26MOL   C231 8781   2.784   0.184   4.233  0.2198 -1.0532 -0.4240
   26MOL   H232 8782   2.632   0.051   4.156 -2.5296  0.6849  1.4664
   26MOL   H233 8783   2.484   0.047   4.309 -0.1684 -0.8131 -0.5403
   26MOL   H234 8784   2.247   0.143   4.397  0.4533 -0.4642  1.2430
   26MOL   H235 8785   2.130   0.456   4.301  0.5579  0.3097 -0.2007
   26MOL   H236 8786   2.327   0.501   4.178 -3.3004 -0.4006  0.8318
   26MOL   H237 8787   2.540   0.416   4.102 -0.1050  2.1601  0.5835
   26MOL   H238 8788   2.849   0.255   4.180  0.1784 -0.2323  0.6058
   26MOL   H239 8789   2.767   0.231   4.330 -0.5046  0.6183 -1.3392
   26MOL   C240 8790   2.867   0.054   4.257 -0.2045  0.1648 -0.1795
   26MOL   C241 8791   2.933   0.022   4.121 -0.8967  0.3641 -0.7000
   26MOL   C242 8792   2.906   7.943   4.059  0.0657 -0.1438 -0.8806
   26MOL   C243 8793   2.961   7.911   3.931  0.7461 -0.5700 -0.0802
   26MOL   C244 8794   3.040   8.011   3.868  0.3717 -0.4093 -0.6002
   26MOL   O245 8795   3.099   7.995   3.749  0.5829 -0.2628 -0.0313
   26MOL   C246 8796   3.069   0.090   3.928  0.7828 -0.6965 -0.4225
   26MOL   C247 8797   3.022   0.115   4.062  0.4545  0.3472  0.1964
   26MOL   C248 8798   2.974   0.059   4.368 -0.2354  0.8280 -1.1175
   26MOL   H249 8799   2.801   8.009   4.283 -0.7871  0.5285 -0.4814
   26MOL   H250 8800   2.847   7.866   4.106 -0.1440  0.6788  0.2260
   26MOL   H251 8801   2.945   7.813   3.888 -0.6371 -0.5804  0.4423
   26MOL   H252 8802   3.108   7.909   3.712  2.0914 -0.5015  0.8668
   26MOL   H253 8803   3.139   0.150   3.872 -1.0876 -0.2462 -2.3887
   26MOL   H254 8804   3.060   0.201   4.115  1.6519  1.9229 -3.0330
   26MOL   H255 8805   3.018   0.158   4.368  0.8717  0.3435 -2.1369
   26MOL   H256 8806   2.927   0.069   4.466 -0.5483 -2.4115 -0.8813
   26MOL   C257 8807   3.080   7.986   4.370 -0.5923  0.2938 -0.3014
   26MOL   C258 8808   3.167   8.009   4.495  0.2273  0.4081 -0.2580
   26MOL   C259 8809   3.104   7.974   4.617  0.2122  0.4317  0.3860
   26MOL   C260 8810   3.187   7.967   4.731  0.1913  0.0692  0.5175
   26MOL   C261 8811   3.317   8.011   4.729  0.2986 -0.2627 -0.4165
   26MOL   O262 8812   3.393   8.011   4.840  0.4621  0.0837  0.0040
   26MOL   C263 8813   3.376   0.028   4.612 -0.0341 -0.6770  0.0554
   26MOL   C264 8814   3.296   0.019   4.495  0.0174 -0.5970 -0.0681
   26MOL   C265 8815   3.024   7.844   4.357  1.0135 -0.2725 -0.2357
   26MOL   H266 8816   3.137   8.010   4.280  2.2302  0.9751  1.5798
   26MOL   H267 8817   3.002   7.941   4.627  1.3457 -3.2399  0.7122
   26MOL   H268 8818   3.158   7.921   4.825 -0.3917  1.4309  1.0202
   26MOL   H269 8819   3.375   7.930   4.884 -0.1233  1.1095  1.7124
   26MOL   H270 8820   3.480   0.058   4.606  0.1028 -1.4846 -2.0081
   26MOL   H271 8821   3.339   0.055   4.402  1.0885 -1.2843  0.1589
   26MOL   H272 8822   2.923   7.842   4.316  1.0359 -0.1897 -0.2955
   26MOL   H273 8823   3.012   7.801   4.456 -0.4241 -1.1975 -0.7962
   26MOL   C274 8824   3.106   7.743   4.269 -0.3096 -0.1702 -0.6187
   26MOL   C275 8825   3.017   7.621   4.239  0.1116  0.6663  0.2523
   26MOL   C276 8826   2.962   7.549   4.351 -0.4345 -0.4352 -0.0904
   26MOL   C277 8827   2.878   7.437   4.323 -0.2920 -0.2381  0.5131
   26MOL   C278 8828   2.837   7.400   4.191 -0.3620  0.4023 -0.4362
   26MOL   O279 8829   2.761   7.294   4.161 -0.0233 -0.7176 -0.2940
   26MOL   C280 8830   2.899   7.466   4.087 -0.5746  0.1216  0.2509
   26MOL   C281 8831   2.980   7.578   4.107 -0.7608  0.1886 -1.2980
   26MOL   C282 8832   3.230   7.706   4.355 -0.0827 -0.1671  0.1916
   26MOL   H283 8833   3.133   7.793   4.176 -2.3544 -1.9308 -2.2030
   26MOL   H284 8834   2.981   7.579   4.453 -0.7545  2.5218 -0.8522
   26MOL   H285 8835   2.839   7.374   4.401 -0.2943 -0.6317  0.1906
   26MOL   H286 8836   2.725   7.294   4.073 -1.4260 -0.0855  0.2590
   26MOL   H287 8837   2.875   7.444   3.984  1.3343 -0.4264 -0.1040
   26MOL   H288 8838   3.030   7.624   4.023 -0.9091 -0.5229 -1.7721
   26MOL   H289 8839   3.260   7.784   4.425 -2.2324 -0.9991  2.0757
   26MOL   H290 8840   3.213   7.614   4.412  0.5553  0.1690  0.9374
   26MOL   C291 8841   3.357   7.672   4.276 -0.6045  0.6810 -0.0605
   26MOL   C292 8842   3.455   7.627   4.379  0.0637  0.2127 -0.5046
   26MOL   C293 8843   3.502   7.718   4.469  0.1875  0.4164  0.5424
   26MOL   C294 8844   3.589   7.668   4.572 -0.0363  0.1218 -0.6791
   26MOL   C295 8845   3.628   7.531   4.573 -0.1390 -0.0379  0.2884
   26MOL   O296 8846   3.716   7.491   4.675 -0.0391  0.0815  0.3346
   26MOL   C297 8847   3.580   7.442   4.475 -0.1657  0.5944 -0.6891
   26MOL   C298 8848   3.489   7.494   4.382  0.7340  0.4406 -0.0677
   26MOL   C299 8849   3.405   7.795   4.199  0.4832 -0.3729 -0.5661
   26MOL   H300 8850   3.351   7.595   4.199 -1.6642  1.3698 -0.6781
   26MOL   H301 8851   3.467   7.821   4.473 -1.8303 -0.3255  3.2122
   26MOL   H302 8852   3.623   7.743   4.641  1.3350 -2.0812  1.1341
   26MOL   H303 8853   3.736   7.561   4.736 -0.4773 -0.0222  0.6044
   26MOL   H304 8854   3.612   7.340   4.470 -1.6325  0.1511 -1.3843
   26MOL   H305 8855   3.463   7.424   4.304 -0.8621  1.7497 -0.7309
   26MOL   H306 8856   3.514   7.788   4.195  0.5500  0.4595 -0.1020
   26MOL   H307 8857   3.374   7.880   4.259 -0.8589 -0.1195 -1.6013
   26MOL   C308 8858   3.372   7.835   4.049 -0.7528  0.1911 -0.0719
   26MOL   C309 8859   3.367   7.715   3.954 -0.2363 -0.2092 -0.1636
   26MOL   C310 8860   3.465   7.613   3.961 -0.5813  0.9448  0.3717
   26MOL   C311 8861   3.465   7.499   3.877  0.2860  0.3725  0.0096
   26MOL   C312 8862   3.359   7.486   3.782 -0.3051  0.5638 -1.3966
   26MOL   O313 8863   3.347   7.381   3.695 -0.0522 -0.1693 -0.3039
   26MOL   C314 8864   3.263   7.589   3.777 -0.1447 -0.4427 -0.5334
   26MOL   C315 8865   3.272   7.706   3.856  0.7321 -0.2245  0.2232
   26MOL   C316 8866   3.489   7.927   4.002  0.0698 -0.3879  0.5462
   26MOL   H317 8867   3.283   7.898   4.056 -0.7008  0.3748 -0.9981
   26MOL   H318 8868   3.534   7.617   4.043 -1.5024 -3.2430  1.4323
   26MOL   H319 8869   3.536   7.421   3.898 -1.9227 -1.6453  0.1330
   26MOL   H320 8870   3.414   7.318   3.715  0.0512 -0.3943 -1.3331
   26MOL   H321 8871   3.178   7.586   3.710 -0.6430 -0.0091  0.0806
   26MOL   H322 8872   3.192   7.778   3.852 -0.1038 -1.0860  1.0103
   26MOL   H323 8873   3.486   7.912   3.894  0.9709  0.2865  0.4273
   26MOL   H324 8874   3.585   7.890   4.038  0.4341 -0.6335 -0.6535
   26MOL   C325 8875   3.469   0.043   4.027  0.1897  0.7202  0.1562
   26MOL   C326 8876   3.524   0.126   3.914 -1.0319  0.2024 -0.2757
   26MOL   C327 8877   3.470   0.254   3.889 -0.1142  0.3895 -0.3230
   26MOL   C328 8878   3.522   0.346   3.798  0.6333 -0.6469  0.9081
   26MOL   C329 8879   3.631   0.306   3.715 -0.5076 -0.4532  0.4391
   26MOL   O330 8880   3.699   0.396   3.633 -0.2201 -0.1515  0.0957
   26MOL   C331 8881   3.693   0.188   3.741 -0.0649 -0.3175  0.5794
   26MOL   C332 8882   3.642   0.095   3.838 -0.1575  0.5695  0.1466
   26MOL   C333 8883   3.549   0.074   4.147 -0.3463  0.0544  0.6081
   26MOL   H334 8884   3.363   0.068   4.038  0.4271  1.5173  0.6224
   26MOL   H335 8885   3.393   0.274   3.963  0.2513  1.9677 -0.3532
   26MOL   H336 8886   3.484   0.446   3.786  0.9892 -0.2484  2.8807
   26MOL   H337 8887   3.652   0.478   3.644 -0.7733 -0.7252  2.1885
   26MOL   H338 8888   3.782   0.169   3.682 -0.4994 -2.0782  0.4404
   26MOL   H339 8889   3.678   8.033   3.860 -0.8931  0.3115  0.2289
   26MOL   H340 8890   3.532   0.181   4.155  1.4712  0.5795 -1.7352
   26MOL   H341 8891   3.656   0.069   4.125 -0.4188  0.1523  0.2248
   26MOL   H342 8892   3.533   0.019   4.239  0.3315  0.5102  0.9994
   27MOL     C1 8893   0.872   6.616   6.554  0.0682  0.4845  0.2319
   27MOL     C2 8894   0.835   6.674   6.419  0.8677  0.1949  0.7672
   27MOL     C3 8895   0.733   6.774   6.400  0.4537  0.5344  0.9793
   27MOL     C4 8896   0.700   6.811   6.268 -0.4469 -0.2530 -0.2735
   27MOL     C5 8897   0.770   6.761   6.157 -0.2218 -0.2188  0.2010
   27MOL     O6 8898   0.725   6.788   6.036 -0.2493  0.2567  0.0492
   27MOL     C7 8899   0.883   6.677   6.179  0.1949 -0.3841 -0.0956
   27MOL     C8 8900   0.905   6.623   6.309 -0.7567 -0.1986 -0.2875
   27MOL     C9 8901   0.753   6.606   6.650  0.1103  0.0293 -0.0337
   27MOL    H10 8902   0.922   6.519   6.545  0.7729  0.8534  0.1067
   27MOL    H11 8903   0.686   6.818   6.486  1.2679  2.0008  0.6867
   27MOL    H12 8904   0.616   6.877   6.251 -0.8651 -0.3427  1.3698
   27MOL    H13 8905   0.785   6.756   5.971 -1.8744 -2.8733 -0.0066
   27MOL    H14 8906   0.935   6.634   6.095  1.8126  0.0620  0.6523
   27MOL    H15 8907   0.984   6.551   6.319 -1.4689 -1.1058 -1.0841
   27MOL    H16 8908   0.668   6.564   6.597 -0.4788  1.3773 -0.1687
   27MOL    H17 8909   0.714   6.701   6.684 -0.4142  0.6412 -2.2775
   27MOL    H18 8910   0.957   6.664   6.603  1.2088 -1.8787  0.6333
   27MOL    C19 8911   0.782   6.527   6.779 -0.6971 -0.2441  0.9687
   27MOL    C20 8912   0.660   6.542   6.870  0.0968 -1.0928  0.0133
   27MOL    C21 8913   0.629   6.673   6.927  0.0482  0.6054  0.3716
   27MOL    C22 8914   0.510   6.688   7.001 -0.1763  0.0881 -0.3077
   27MOL    C23 8915   0.415   6.580   7.009 -0.4204  0.0981  0.6386
   27MOL    O24 8916   0.290   6.610   7.049 -0.1286 -0.2917  0.1762
   27MOL    C25 8917   0.450   6.456   6.953 -0.6636  0.1479 -0.0226
   27MOL    C26 8918   0.566   6.435   6.886 -0.6360 -0.6724 -0.3792
   27MOL    C27 8919   0.920   6.554   6.844  0.0076 -0.5391 -0.2935
   27MOL    H28 8920   0.788   6.426   6.738 -1.2048  0.9257 -2.1751
   27MOL    H29 8921   0.701   6.752   6.916 -1.4039  1.7410 -1.1272
   27MOL    H30 8922   0.487   6.773   7.063  0.6310 -0.6810  1.0886
   27MOL    H31 8923   0.226   6.543   7.032 -0.0104 -0.5466  0.6936
   27MOL    H32 8924   0.385   6.370   6.965  0.8048 -1.0263 -0.4241
   27MOL    H33 8925   0.574   6.336   6.844 -0.3566 -0.7559 -0.1253
   27MOL    H34 8926   0.922   6.660   6.870 -1.2520 -0.8631  1.1773
   27MOL    H35 8927   0.995   6.547   6.765 -1.2180 -0.1150 -1.5103
   27MOL    C36 8928   0.973   6.470   6.960  0.3752 -0.0106  0.1856
   27MOL    C37 8929   1.118   6.513   6.997  0.2828 -0.1382 -0.3413
   27MOL    C38 8930   1.155   6.552   7.122  0.3098  0.6201 -0.1229
   27MOL    C39 8931   1.296   6.573   7.154  0.5651 -0.2450 -0.4504
   27MOL    C40 8932   1.390   6.567   7.055  0.0655 -0.8731 -0.3099
   27MOL    O41 8933   1.519   6.581   7.094  0.3145 -0.1180 -0.0387
   27MOL    C42 8934   1.357   6.532   6.925  0.5337  0.3008 -0.3538
   27MOL    C43 8935   1.223   6.499   6.897  0.0068 -0.5644 -0.3407
   27MOL    C44 8936   0.955   6.323   6.945 -0.1582 -0.3795  0.7466
   27MOL    H45 8937   0.907   6.493   7.044 -1.3323  2.5829 -1.8130
   27MOL    H46 8938   1.082   6.549   7.202  2.1669 -0.0823  1.6014
   27MOL    H47 8939   1.323   6.591   7.257 -1.0003  0.5425 -0.1622
   27MOL    H48 8940   1.531   6.548   7.181  0.1519 -0.4999 -0.1639
   27MOL    H49 8941   1.429   6.530   6.845  0.9277  1.4931 -0.0420
   27MOL    H50 8942   1.207   6.464   6.796  0.2337 -1.4671 -0.0740
   27MOL    H51 8943   0.848   6.304   6.931 -0.1357  0.2884 -0.4492
   27MOL    H52 8944   1.003   6.277   6.858 -2.3383  0.6031 -1.0372
   27MOL    C53 8945   0.978   6.237   7.069  0.3462  0.2680  0.1905
   27MOL    C54 8946   0.868   6.120   7.078 -0.5232 -0.3095 -0.4528
   27MOL    C55 8947   0.883   6.000   7.003 -0.4111  0.1337 -0.5353
   27MOL    C56 8948   0.780   5.904   7.005 -0.2237 -0.1880  0.0735
   27MOL    C57 8949   0.665   5.926   7.084 -0.0758  0.6699 -0.3017
   27MOL    O58 8950   0.564   5.840   7.089 -0.0258 -0.0976  0.4464
   27MOL    C59 8951   0.664   6.038   7.164 -0.1703 -0.6253 -0.5906
   27MOL    C60 8952   0.754   6.144   7.152  0.5430 -0.7390  0.2924
   27MOL    C61 8953   1.121   6.179   7.084 -0.0124  1.0646  1.0179
   27MOL    H62 8954   0.958   6.304   7.153 -0.3516  0.2670  0.0239
   27MOL    H63 8955   0.974   5.981   6.947 -0.0721 -2.5233  0.8840
   27MOL    H64 8956   0.778   5.815   6.943 -1.1414 -1.3626  1.7530
   27MOL    H65 8957   0.495   5.869   7.147 -1.2735 -0.2891 -0.9184
   27MOL    H66 8958   0.595   6.051   7.245 -0.4737 -1.3952 -0.7271
   27MOL    H67 8959   0.734   6.236   7.206  1.0706 -0.7104  0.4397
   27MOL    H68 8960   1.189   6.264   7.074 -0.3150  1.2788  0.7726
   27MOL    H69 8961   1.141   6.112   7.000  1.4415 -0.6060  2.6427
   27MOL    C70 8962   1.153   6.104   7.216  0.1256 -0.1462 -0.0490
   27MOL    C71 8963   1.101   6.174   7.343  0.3929  0.4669  0.0824
   27MOL    C72 8964   1.000   6.115   7.413  0.2595  0.3987 -0.0357
   27MOL    C73 8965   0.960   6.169   7.538 -0.9780 -0.0673 -0.1950
   27MOL    C74 8966   1.021   6.285   7.591 -0.8697  0.2373 -0.4657
   27MOL    O75 8967   0.987   6.331   7.710  0.1063  0.4568  0.0839
   27MOL    C76 8968   1.113   6.348   7.513  0.1064 -0.6660 -0.4240
   27MOL    C77 8969   1.150   6.295   7.386 -0.0823  0.1266 -0.5108
   27MOL    C78 8970   1.304   6.075   7.231 -0.2725  0.7362  0.3095
   27MOL    H79 8971   1.102   6.009   7.221 -1.6185  0.8406  1.5463
   27MOL    H80 8972   0.957   6.026   7.369  0.9012  0.1757 -0.2249
   27MOL    H81 8973   0.878   6.117   7.586 -0.2452 -1.3180 -0.2480
   27MOL    H82 8974   0.912   6.289   7.749  1.3197 -1.9850 -0.1361
   27MOL    H83 8975   1.140   6.446   7.548 -1.1203 -0.4827  0.0621
   27MOL    H84 8976   1.233   6.340   7.333  0.4220 -0.7354 -0.4557
   27MOL    H85 8977   1.329   6.040   7.331 -1.4746 -0.2280  0.2903
   27MOL    H86 8978   1.357   6.170   7.226 -2.4985  2.0540  0.8465
   27MOL    C87 8979   1.368   5.971   7.126 -0.1212 -0.1147 -0.6610
   27MOL    C88 8980   1.307   5.841   7.153  0.0191  0.9810  0.5027
   27MOL    C89 8981   1.208   5.786   7.064 -0.3743 -0.5135 -0.0491
   27MOL    C90 8982   1.138   5.661   7.097 -0.1456  0.3325 -0.4831
   27MOL    C91 8983   1.158   5.597   7.223 -0.1439 -0.3159  0.0233
   27MOL    O92 8984   1.093   5.481   7.257  0.3412 -0.0072 -0.7256
   27MOL    C93 8985   1.262   5.650   7.301 -0.7327 -0.7150 -0.2441
   27MOL    C94 8986   1.333   5.771   7.275  0.4082 -0.1350  0.3568
   27MOL    C95 8987   1.517   5.971   7.131  0.5737  0.2745 -0.0426
   27MOL    H96 8988   1.328   5.995   7.027 -0.7691  1.8543  0.0547
   27MOL    H97 8989   1.195   5.837   6.970  1.4357  0.4035  0.1798
   27MOL    H98 8990   1.068   5.626   7.022  0.9453  0.6941 -1.6797
   27MOL    H99 8991   1.025   5.458   7.196 -1.5598 -0.8178  1.6285
   27MOL   H100 8992   1.279   5.603   7.397 -3.4213 -1.2333  0.0273
   27MOL   H101 8993   1.399   5.807   7.352  1.9132  0.5849 -1.2232
   27MOL   H102 8994   1.539   6.078   7.138 -0.8637  0.4927  1.5085
   27MOL   H103 8995   1.549   5.924   7.224  0.2754 -0.1510 -0.1518
   27MOL   C104 8996   1.599   5.902   7.015 -0.2984 -0.5371  0.7171
   27MOL   C105 8997   1.571   5.756   6.997  0.3858 -0.2328 -0.0671
   27MOL   C106 8998   1.579   5.669   7.116 -0.0255  0.0414  0.0616
   27MOL   C107 8999   1.558   5.537   7.103 -0.7876  0.1535 -0.3699
   27MOL   C108 9000   1.538   5.481   6.981  0.2836  0.1714 -1.2716
   27MOL   O109 9001   1.515   5.349   6.966  0.3031  0.4655  0.2017
   27MOL   C110 9002   1.533   5.558   6.867  0.2869  0.0772  0.0414
   27MOL   C111 9003   1.551   5.698   6.870  0.0511  0.1144 -0.3119
   27MOL   C112 9004   1.746   5.924   7.028  0.0691 -0.8677 -0.2353
   27MOL   H113 9005   1.579   5.953   6.921  1.7114 -0.9701  0.0174
   27MOL   H114 9006   1.610   5.714   7.209 -1.6192 -1.0610  1.1416
   27MOL   H115 9007   1.563   5.475   7.191  1.8773 -0.6715 -1.0594
   27MOL   H116 9008   1.508   5.305   7.050  0.3460 -0.2795 -0.1839
   27MOL   H117 9009   1.515   5.520   6.768  0.5455  1.1510 -0.4185
   27MOL   H118 9010   1.544   5.756   6.780 -0.5102  1.3079  0.4862
   27MOL   H119 9011   1.781   5.866   6.942 -0.8703 -0.6614 -0.7643
   27MOL   H120 9012   1.778   5.870   7.117  1.8885 -0.3762 -0.5620
   27MOL   C121 9013   1.802   6.070   7.010  0.2700 -0.8217 -0.3790
   27MOL   C122 9014   1.830   6.150   7.139 -0.7868  0.1492  0.3554
   27MOL   C123 9015   1.824   6.287   7.128 -0.5462  0.1783  0.4867
   27MOL   C124 9016   1.866   6.374   7.231 -0.5712 -0.4391  0.2780
   27MOL   C125 9017   1.879   6.320   7.366 -0.3099  0.5605  0.0972
   27MOL   O126 9018   1.917   6.402   7.471 -0.2889  0.1394 -0.5270
   27MOL   C127 9019   1.883   6.178   7.384 -0.0902  0.3394  0.8905
   27MOL   C128 9020   1.862   6.100   7.271  0.3197  0.6145 -0.0138
   27MOL   C129 9021   1.926   6.070   6.926 -0.4362  0.1180  0.1622
   27MOL   H130 9022   1.726   6.122   6.952 -1.9960 -2.5450  0.9456
   27MOL   H131 9023   1.810   6.333   7.031  2.2535 -1.7027 -0.8709
   27MOL   H132 9024   1.874   6.480   7.212  2.3961 -0.9562 -1.7033
   27MOL   H133 9025   1.851   6.466   7.493  2.3975  2.3609  1.4351
   27MOL   H134 9026   1.888   6.148   7.488 -0.3625  2.5217  1.5564
   27MOL   H135 9027   1.854   5.992   7.276  2.1218  0.4391 -0.5558
   27MOL   H136 9028   1.992   5.997   6.973 -1.3299 -0.5156  0.4604
   27MOL   H137 9029   1.983   6.163   6.934  2.6624 -1.7562  0.7708
   27MOL   C138 9030   1.906   6.050   6.774  0.5716  0.6995 -0.7456
   27MOL   C139 9031   2.027   5.992   6.704  0.1088  0.2646  0.3752
   27MOL   C140 9032   2.013   5.901   6.595  0.6423 -0.4595  0.6357
   27MOL   C141 9033   2.123   5.836   6.537  0.2450  0.3223  0.1569
   27MOL   C142 9034   2.247   5.883   6.572 -0.2624 -0.6341  0.2035
   27MOL   O143 9035   2.360   5.849   6.506  0.6535 -0.9276  0.0396
   27MOL   C144 9036   2.264   5.982   6.667  0.0886 -0.1703 -0.3425
   27MOL   C145 9037   2.156   6.032   6.736 -0.8058 -0.1454 -0.3313
   27MOL   C146 9038   1.858   6.178   6.688 -0.3196  0.0727 -0.3018
   27MOL   H147 9039   1.826   5.977   6.760 -1.2582  1.8511  2.9261
   27MOL   H148 9040   1.922   5.866   6.548  0.8211  0.2282 -0.2286
   27MOL   H149 9041   2.107   5.766   6.456  0.5474  1.7670 -1.1844
   27MOL   H150 9042   2.444   5.883   6.534  0.3997 -1.6191  1.6859
   27MOL   H151 9043   2.361   6.024   6.689  0.0835 -1.0721  1.4421
   27MOL   H152 9044   2.193   6.102   6.809  1.1149 -1.4612 -0.0155
   27MOL   H153 9045   1.845   6.150   6.584 -3.1174 -0.4615  0.1635
   27MOL   H154 9046   1.941   6.247   6.703 -0.3168  0.2628 -1.1635
   27MOL   C155 9047   1.740   6.263   6.718 -0.1452 -0.5494 -0.7446
   27MOL   C156 9048   1.611   6.181   6.739  0.3573  0.1432 -0.2003
   27MOL   C157 9049   1.585   6.061   6.671 -0.1237  0.4114  0.2735
   27MOL   C158 9050   1.465   5.991   6.679  0.7685  0.2522 -0.7905
   27MOL   C159 9051   1.363   6.053   6.761  0.2460  0.0819 -0.1413
   27MOL   O160 9052   1.233   6.004   6.767 -0.5153  0.1850  0.3235
   27MOL   C161 9053   1.390   6.167   6.843 -0.0753  0.2428  0.0528
   27MOL   C162 9054   1.515   6.236   6.827 -0.0342  0.5182 -0.5531
   27MOL   C163 9055   1.704   6.373   6.616  0.6222  0.1594  0.0738
   27MOL   H164 9056   1.760   6.311   6.813  2.2116 -1.3231 -0.8097
   27MOL   H165 9057   1.661   6.027   6.601 -0.9543  1.5254 -1.1925
   27MOL   H166 9058   1.441   5.905   6.618  0.5699  0.9202 -1.6587
   27MOL   H167 9059   1.207   5.932   6.712  1.6248  0.9959 -1.8692
   27MOL   H168 9060   1.305   6.195   6.904  0.5785  0.7547  0.7453
   27MOL   H169 9061   1.528   6.327   6.885 -0.9311 -1.2869  2.5840
   27MOL   H170 9062   1.608   6.415   6.644 -0.6475 -1.1767 -2.1339
   27MOL   H171 9063   1.682   6.330   6.518 -0.0519 -0.4110  0.4715
   27MOL   C172 9064   1.798   6.498   6.612  0.6961  0.0133 -0.4344
   27MOL   C173 9065   1.716   6.627   6.583  0.7776  0.3463 -0.4186
   27MOL   C174 9066   1.750   6.745   6.656  0.7646 -0.0350  0.0580
   27MOL   C175 9067   1.686   6.870   6.629 -0.2387 -0.6408 -0.3918
   27MOL   C176 9068   1.586   6.874   6.527  0.3507  0.2326  0.1168
   27MOL   O177 9069   1.526   6.988   6.493  0.0802 -0.3542 -0.3267
   27MOL   C178 9070   1.547   6.757   6.462  0.7007 -0.1343 -0.8042
   27MOL   C179 9071   1.617   6.634   6.482  0.4001 -0.6653 -0.7796
   27MOL   C180 9072   1.920   6.475   6.521  0.0802 -0.4961  0.4316
   27MOL   H181 9073   1.831   6.519   6.714 -0.4821  0.6992 -0.1765
   27MOL   H182 9074   1.821   6.738   6.737 -1.3942  1.5517  2.1764
   27MOL   H183 9075   1.722   6.954   6.687 -0.3775 -0.8665  0.0267
   27MOL   H184 9076   1.573   7.033   6.425 -0.1775 -0.0257 -0.2884
   27MOL   H185 9077   1.467   6.755   6.390 -2.2676 -2.1400  2.3440
   27MOL   H186 9078   1.593   6.544   6.429  1.5291 -0.3095 -1.9193
   27MOL   H187 9079   1.886   6.487   6.418 -0.4476  2.8420  0.9298
   27MOL   H188 9080   1.956   6.373   6.538 -1.4733 -0.9858  0.7997
   27MOL   C189 9081   2.041   6.569   6.544  0.8302 -0.0106 -0.4561
   27MOL   C190 9082   2.094   6.581   6.690  0.3495  0.2093  0.7560
   27MOL   C191 9083   2.131   6.462   6.755  0.1017  0.2075 -0.6938
   27MOL   C192 9084   2.152   6.468   6.894  0.1328  0.5093 -0.6239
   27MOL   C193 9085   2.143   6.587   6.969  0.3776  0.3699  0.7686
   27MOL   O194 9086   2.161   6.596   7.103 -0.0812 -0.1407 -0.2524
   27MOL   C195 9087   2.114   6.706   6.901  0.2938  0.3015 -0.4531
   27MOL   C196 9088   2.097   6.703   6.760 -0.1036  0.7248  0.1935
   27MOL   C197 9089   2.161   6.551   6.446 -0.0236  0.2533 -0.2542
   27MOL   H198 9090   2.003   6.668   6.520 -1.0543 -1.4712 -3.9458
   27MOL   H199 9091   2.129   6.371   6.697  2.0575 -0.0238 -0.4360
   27MOL   H200 9092   2.180   6.378   6.947  3.9458  0.8578 -1.9171
   27MOL   H201 9093   2.212   6.529   7.146 -0.5297 -0.9433 -0.9639
   27MOL   H202 9094   2.111   6.805   6.943 -2.1567  0.2980 -0.5037
   27MOL   H203 9095   2.068   6.795   6.712 -2.2945  0.1827  0.4131
   27MOL   H204 9096   2.232   6.487   6.497 -0.9597  0.8518  1.8431
   27MOL   H205 9097   2.208   6.648   6.431 -2.0259  0.7981 -3.6348
   27MOL   C206 9098   2.122   6.512   6.302 -0.2402  0.3289  0.1106
   27MOL   C207 9099   2.235   6.454   6.217  0.3064  0.0588 -0.8873
   27MOL   C208 9100   2.213   6.323   6.164 -0.6714 -0.3282  0.2650
   27MOL   C209 9101   2.302   6.265   6.082 -0.3864  0.3298 -1.4297
   27MOL   C210 9102   2.430   6.324   6.059  0.2162  0.2658 -0.0123
   27MOL   O211 9103   2.526   6.257   5.986  0.0393  0.1300  0.1633
   27MOL   C212 9104   2.446   6.457   6.108 -0.1811 -1.1131 -0.3229
   27MOL   C213 9105   2.344   6.525   6.179  0.0876  0.7155 -0.4554
   27MOL   C214 9106   2.045   6.629   6.231 -0.7078  0.1262  0.0277
   27MOL   H215 9107   2.055   6.429   6.323 -0.0533  0.3932  0.9605
   27MOL   H216 9108   2.121   6.273   6.194 -1.0902  1.0105  1.2599
   27MOL   H217 9109   2.275   6.166   6.049 -0.0243 -0.1434 -0.3575
   27MOL   H218 9110   2.590   6.312   5.944  0.5419 -0.4694  0.1245
   27MOL   H219 9111   2.534   6.511   6.078  0.5496 -3.0211 -1.7199
   27MOL   H220 9112   2.361   6.624   6.219 -0.0327  0.1994  0.9358
   27MOL   H221 9113   2.114   6.713   6.228 -1.2267  0.5521 -0.2322
   27MOL   H222 9114   1.960   6.656   6.295 -0.8301 -1.9723  0.7853
   27MOL   C223 9115   2.002   6.607   6.081  0.6647  0.5580  0.9066
   27MOL   C224 9116   1.965   6.747   6.025 -0.0829 -0.1659 -0.2353
   27MOL   C225 9117   1.839   6.801   6.047  0.1486  0.2080  0.5521
   27MOL   C226 9118   1.808   6.930   6.005  0.0094 -0.7654  0.3585
   27MOL   C227 9119   1.907   7.006   5.935 -0.1593  0.5285 -1.1664
   27MOL   O228 9120   1.871   7.131   5.887 -0.3347 -0.1990  0.1942
   27MOL   C229 9121   2.037   6.954   5.918  0.3323  0.1011  0.1463
   27MOL   C230 9122   2.065   6.823   5.961 -0.4884 -0.3981 -0.6825
   27MOL   C231 9123   1.900   6.493   6.042 -0.4851  0.4138 -0.3224
   27MOL   H232 9124   2.094   6.590   6.026  0.3913 -0.5342  0.7813
   27MOL   H233 9125   1.784   6.746   6.121  1.0282  0.0457  1.0978
   27MOL   H234 9126   1.711   6.978   6.012 -0.6018 -1.7898 -0.8852
   27MOL   H235 9127   1.938   7.167   5.831 -0.8459 -0.8808 -0.8740
   27MOL   H236 9128   2.114   7.011   5.868 -0.4070  0.4168 -0.6338
   27MOL   H237 9129   2.167   6.787   5.950 -0.4015 -0.7121  1.0611
   27MOL   H238 9130   1.951   6.403   6.076  0.2734  2.0592  3.0150
   27MOL   H239 9131   1.815   6.495   6.109 -0.0182 -0.4566  0.3009
   27MOL   C240 9132   1.856   6.480   5.896  0.5699 -0.0013 -0.0062
   27MOL   C241 9133   1.974   6.461   5.795 -0.9557 -0.4089 -0.9129
   27MOL   C242 9134   1.964   6.522   5.669 -0.1450 -0.2949 -0.2192
   27MOL   C243 9135   2.058   6.483   5.571  0.2274 -0.4437  0.1952
   27MOL   C244 9136   2.168   6.401   5.610  0.3725  0.5161 -0.1654
   27MOL   O245 9137   2.255   6.359   5.512  0.2487 -0.3820  0.2127
   27MOL   C246 9138   2.181   6.348   5.741  0.5176  0.4550  1.2317
   27MOL   C247 9139   2.079   6.379   5.825  0.1586 -0.8417 -0.7475
   27MOL   C248 9140   1.757   6.361   5.877 -0.1537 -0.2184 -0.4467
   27MOL   H249 9141   1.815   6.576   5.866 -2.1118 -1.3587 -0.7608
   27MOL   H250 9142   1.882   6.587   5.639  1.2357  1.9308  0.7113
   27MOL   H251 9143   2.037   6.506   5.468  1.0440 -1.0743 -0.1129
   27MOL   H252 9144   2.239   6.270   5.484 -0.4058 -0.5443  1.1076
   27MOL   H253 9145   2.263   6.281   5.765 -1.1239 -2.0751  0.0172
   27MOL   H254 9146   2.074   6.323   5.917  2.6593 -1.5724 -1.0139
   27MOL   H255 9147   1.760   6.352   5.768  0.2411  1.5122 -0.5766
   27MOL   H256 9148   1.796   6.268   5.920  0.9822  0.6582  0.4266
   27MOL   C257 9149   1.608   6.371   5.915 -0.2239  0.2673 -0.2449
   27MOL   C258 9150   1.557   6.512   5.941  0.1235  0.2743  0.3835
   27MOL   C259 9151   1.540   6.592   5.822 -0.0687  0.0963  0.1461
   27MOL   C260 9152   1.509   6.726   5.835  0.6232  0.5332 -0.1252
   27MOL   C261 9153   1.470   6.771   5.956 -0.3348 -0.2665 -0.4131
   27MOL   O262 9154   1.426   6.900   5.957 -0.2777  0.1019  0.0697
   27MOL   C263 9155   1.477   6.694   6.075  0.5607  0.4580  0.0815
   27MOL   C264 9156   1.518   6.560   6.067 -0.4579  0.0086 -0.2587
   27MOL   C265 9157   1.517   6.291   5.818 -0.5905 -0.8083  0.3344
   27MOL   H266 9158   1.595   6.322   6.012 -0.6501  0.1460 -0.3605
   27MOL   H267 9159   1.577   6.551   5.729 -2.3106  0.8323 -1.1034
   27MOL   H268 9160   1.508   6.791   5.748 -1.1881 -0.9547 -1.2598
   27MOL   H269 9161   1.452   6.953   5.883 -1.0842 -0.6876 -0.7927
   27MOL   H270 9162   1.446   6.736   6.169  0.8316  1.4913 -0.2942
   27MOL   H271 9163   1.522   6.502   6.158 -1.5119  0.1962 -0.0860
   27MOL   H272 9164   1.559   6.193   5.798  0.4942 -0.6214  1.6774
   27MOL   H273 9165   1.511   6.335   5.718  4.7835  1.5842  0.9013
   27MOL   C274 9166   1.371   6.259   5.872 -0.4342 -0.4467 -0.1109
   27MOL   C275 9167   1.376   6.188   6.008 -0.6203 -0.8722 -1.3013
   27MOL   C276 9168   1.434   6.058   6.031 -0.5596 -0.1757  0.2690
   27MOL   C277 9169   1.435   5.996   6.158 -0.0800 -0.0336  0.1929
   27MOL   C278 9170   1.367   6.061   6.266 -0.1882  0.3720  0.3221
   27MOL   O279 9171   1.369   6.011   6.388  0.4987 -0.3981  0.2348
   27MOL   C280 9172   1.300   6.185   6.246  0.0611  0.8469 -0.4095
   27MOL   C281 9173   1.299   6.242   6.118 -0.7311 -0.6239 -0.3429
   27MOL   C282 9174   1.273   6.187   5.776  0.6440  0.1061  0.0112
   27MOL   H283 9175   1.326   6.358   5.878  0.6481  0.0030  0.6530
   27MOL   H284 9176   1.494   6.015   5.952 -0.3302 -1.4355  1.1226
   27MOL   H285 9177   1.498   5.910   6.177  1.2229  0.7069 -0.6783
   27MOL   H286 9178   1.301   6.057   6.435  1.2465 -2.7347  3.8165
   27MOL   H287 9179   1.244   6.235   6.322  2.9358  0.3942  2.1191
   27MOL   H288 9180   1.241   6.331   6.101  1.3939  0.9239  0.3327
   27MOL   H289 9181   1.309   6.093   5.734  1.1278 -1.0001  2.8069
   27MOL   H290 9182   1.187   6.159   5.837 -0.8821 -0.1658 -2.2043
   27MOL   C291 9183   1.197   6.270   5.670  0.2640 -0.1708 -0.1880
   27MOL   C292 9184   1.128   6.397   5.724  0.4104 -0.2571 -1.3194
   27MOL   C293 9185   1.167   6.535   5.692  1.2020 -0.1764 -0.9629
   27MOL   C294 9186   1.107   6.642   5.749  0.5408 -0.5087  0.0703
   27MOL   C295 9187   0.993   6.621   5.830  0.0078  0.1306 -0.6966
   27MOL   O296 9188   0.926   6.729   5.864  0.0942 -0.1943 -0.2042
   27MOL   C297 9189   0.956   6.491   5.867  0.0469 -0.1816  0.9154
   27MOL   C298 9190   1.028   6.384   5.818 -0.1883 -0.4450 -0.2463
   27MOL   C299 9191   1.105   6.181   5.582 -0.6597  0.7129 -0.5015
   27MOL   H300 9192   1.278   6.302   5.605  0.2272  0.6314  0.1554
   27MOL   H301 9193   1.252   6.559   5.631  1.0587 -1.5149 -1.7168
   27MOL   H302 9194   1.142   6.740   5.719  2.1145 -1.2704 -0.6129
   27MOL   H303 9195   0.984   6.801   5.883 -1.2312  0.8649 -0.0738
   27MOL   H304 9196   0.871   6.478   5.932 -0.3523  0.1990  0.4683
   27MOL   H305 9197   1.002   6.282   5.840 -0.4125 -1.1439 -3.4195
   27MOL   H306 9198   1.036   6.127   5.647  0.3976 -0.5158 -0.3967
   27MOL   H307 9199   1.164   6.108   5.528 -0.0432 -1.1245  2.5719
   27MOL   C308 9200   0.997   6.245   5.489 -0.1753 -0.7408  0.2180
   27MOL   C309 9201   0.893   6.151   5.429 -0.8182 -0.0974 -0.2048
   27MOL   C310 9202   0.924   6.075   5.306  0.3979 -0.1258  0.2370
   27MOL   C311 9203   0.826   5.995   5.242  0.8141  0.0593  0.5466
   27MOL   C312 9204   0.701   5.969   5.309  0.2875 -0.4594 -0.0868
   27MOL   O313 9205   0.610   5.874   5.258  0.3952 -0.5132  0.3173
   27MOL   C314 9206   0.676   6.045   5.427  0.3392  0.1795  0.3298
   27MOL   C315 9207   0.768   6.133   5.480 -0.4455  0.8133  0.2861
   27MOL   C316 9208   1.069   6.336   5.389  0.4388 -0.0084  0.6753
   27MOL   H317 9209   0.936   6.313   5.549  0.6645  1.6611 -1.5921
   27MOL   H318 9210   1.021   6.085   5.261 -0.3318  0.8089 -1.1506
   27MOL   H319 9211   0.852   5.948   5.149 -1.5446 -2.0145  0.9049
   27MOL   H320 9212   0.630   5.866   5.166  0.9563 -0.7079  0.4475
   27MOL   H321 9213   0.580   6.043   5.476  0.1408  0.8565 -0.0151
   27MOL   H322 9214   0.732   6.183   5.569 -2.0316  2.0441 -0.9997
   27MOL   H323 9215   1.126   6.270   5.324  2.0777  0.1736  1.9057
   27MOL   H324 9216   1.154   6.395   5.423  0.4743 -0.0188  0.6041
   27MOL   C325 9217   0.968   6.424   5.305  0.2491 -0.1663 -0.1264
   27MOL   C326 9218   1.023   6.446   5.168 -0.1680  0.4277 -0.2080
   27MOL   C327 9219   1.011   6.345   5.068  1.0693 -0.4128 -0.1005
   27MOL   C328 9220   1.065   6.363   4.941  0.2041  0.6171  0.6827
   27MOL   C329 9221   1.152   6.469   4.911  0.5902  0.4068  0.0149
   27MOL   O330 9222   1.211   6.484   4.786  0.4314  0.5800 -0.6954
   27MOL   C331 9223   1.162   6.571   5.002  0.3498  0.2948 -0.2326
   27MOL   C332 9224   1.089   6.565   5.125 -0.0396 -0.1264 -0.1153
   27MOL   C333 9225   0.919   6.558   5.366 -0.4007 -0.4221 -0.6071
   27MOL   H334 9226   0.874   6.372   5.286 -0.9995  0.7947  3.0278
   27MOL   H335 9227   0.946   6.262   5.089  3.0004 -1.9585 -0.1411
   27MOL   H336 9228   1.046   6.287   4.867 -0.9238  0.7101  0.8708
   27MOL   H337 9229   1.242   6.569   4.756  0.0498  0.8096 -0.4447
   27MOL   H338 9230   1.216   6.661   4.976  3.3551 -1.5325 -0.5368
   27MOL   H339 9231   1.105   6.641   5.200 -0.7093 -0.2291  0.1362
   27MOL   H340 9232   0.876   6.539   5.464  0.7600 -0.4947 -0.1060
   27MOL   H341 9233   0.854   6.611   5.297 -2.7875 -2.0516  0.3196
   27MOL   H342 9234   1.006   6.619   5.389  1.1860 -3.2441  1.1967
   28MOL     C1 9235   0.284   0.419   0.648 -1.1321  0.2834  0.0951
   28MOL     C2 9236   0.203   0.541   0.592  0.3532 -0.0816  0.0254
   28MOL     C3 9237   0.264   0.656   0.530 -0.1682 -0.4755  0.1621
   28MOL     C4 9238   0.184   0.759   0.472 -0.0934 -0.5405 -0.7177
   28MOL     C5 9239   0.044   0.753   0.478 -0.7337 -0.1117 -0.1255
   28MOL     O6 9240   8.000   0.851   0.438 -0.3916 -0.4935 -0.2349
   28MOL     C7 9241   8.024   0.648   0.541  0.0637 -0.3016 -0.3827
   28MOL     C8 9242   0.063   0.548   0.601  0.2653 -0.2367 -0.2521
   28MOL     C9 9243   0.221   0.284   0.625  0.1909  0.2007  0.1093
   28MOL    H10 9244   0.381   0.419   0.598 -0.4619  1.6144  1.3680
   28MOL    H11 9245   0.371   0.649   0.515 -0.1563  0.6596 -0.2784
   28MOL    H12 9246   0.238   0.839   0.424 -0.4566 -0.2927 -0.7106
   28MOL    H13 9247   7.912   0.819   0.428 -0.7738 -0.1402  1.7043
   28MOL    H14 9248   7.917   0.639   0.554  0.1196 -1.9390 -0.9040
   28MOL    H15 9249   0.022   0.467   0.660  0.7586  0.9538  1.7867
   28MOL    H16 9250   0.179   0.277   0.524 -2.8656 -2.1224  1.4679
   28MOL    H17 9251   0.135   0.262   0.687 -1.1875  2.1569 -1.0627
   28MOL    H18 9252   0.299   0.441   0.754  0.7847 -1.1179  0.1470
   28MOL    C19 9253   0.321   0.164   0.632  0.0576  0.3603 -1.3238
   28MOL    C20 9254   0.284   0.048   0.532 -0.3207  0.1318  0.3720
   28MOL    C21 9255   0.152   8.036   0.528 -0.5593  0.4774 -0.6091
   28MOL    C22 9256   0.113   7.946   0.430 -0.5412 -0.2097  0.2328
   28MOL    C23 9257   0.210   7.889   0.348 -0.1816  0.8491 -0.2868
   28MOL    O24 9258   0.171   7.793   0.259 -0.0037 -0.4887 -0.3837
   28MOL    C25 9259   0.348   7.930   0.360  0.2839  0.0288  0.5716
   28MOL    C26 9260   0.381   0.001   0.442  0.2845  0.5038  0.1597
   28MOL    C27 9261   0.331   0.118   0.780  0.9519  0.1793  0.3607
   28MOL    H28 9262   0.418   0.198   0.596  1.3521 -1.0225  0.7341
   28MOL    H29 9263   0.083   0.046   0.596 -0.1411 -2.6022  2.0794
   28MOL    H30 9264   0.009   7.919   0.427 -0.7593  0.6310  0.0204
   28MOL    H31 9265   0.079   7.778   0.240  0.2472 -0.9739 -1.1986
   28MOL    H32 9266   0.422   7.896   0.288 -1.2297  0.1780 -1.1139
   28MOL    H33 9267   0.484   0.033   0.448  1.1231 -1.8865 -1.0288
   28MOL    H34 9268   0.268   0.029   0.782  1.4418 -0.2943 -2.9733
   28MOL    H35 9269   0.292   0.191   0.851  1.6983  0.1983  0.7462
   28MOL    C36 9270   0.467   0.078   0.831 -0.0062 -0.2275 -0.4632
   28MOL    C37 9271   0.543   8.012   0.751 -0.6382  0.1018  0.5931
   28MOL    C38 9272   0.681   8.034   0.734  0.5062  0.9766 -0.2588
   28MOL    C39 9273   0.752   7.951   0.649  0.1204  0.3455  0.2681
   28MOL    C40 9274   0.686   7.842   0.592 -0.0016  0.7490 -0.3558
   28MOL    O41 9275   0.764   7.755   0.510  0.1252  0.1869 -0.1524
   28MOL    C42 9276   0.551   7.815   0.614 -0.2804  0.6197 -0.0658
   28MOL    C43 9277   0.482   7.899   0.701  0.0045 -0.1240  0.0117
   28MOL    C44 9278   0.456   0.042   0.978  0.3506  0.7518 -0.0185
   28MOL    H45 9279   0.523   0.171   0.834 -1.7085  0.9253 -2.5289
   28MOL    H46 9280   0.733   0.087   0.764 -0.8010  1.6010  0.1760
   28MOL    H47 9281   0.857   7.966   0.633 -0.3095  1.8985 -1.2199
   28MOL    H48 9282   0.709   7.693   0.464 -0.2186 -0.0781  0.6069
   28MOL    H49 9283   0.505   7.728   0.568 -0.1912 -0.3245  1.5669
   28MOL    H50 9284   0.380   7.875   0.726 -0.5456  1.2429 -0.8710
   28MOL    H51 9285   0.417   0.125   1.037  1.7470 -1.4523  4.1190
   28MOL    H52 9286   0.388   7.996   0.990  1.2724  0.1254  0.9180
   28MOL    C53 9287   0.582   0.010   1.057 -0.4984  0.3398 -0.3228
   28MOL    C54 9288   0.654   0.138   1.098  1.0684  0.2925  0.1210
   28MOL    C55 9289   0.591   0.220   1.197 -0.0408  0.0355 -0.1686
   28MOL    C56 9290   0.662   0.313   1.268 -0.3778  0.1538 -0.4473
   28MOL    C57 9291   0.800   0.330   1.250  0.6807  0.1263  0.8867
   28MOL    O58 9292   0.872   0.413   1.330 -0.2663  0.1076  0.0650
   28MOL    C59 9293   0.864   0.241   1.170  0.5180 -0.7828 -0.1300
   28MOL    C60 9294   0.796   0.146   1.094 -0.2368 -0.3687  0.0285
   28MOL    C61 9295   0.544   7.961   1.181  0.5026 -0.0401  0.0189
   28MOL    H62 9296   0.647   7.987   0.994 -1.0486  0.2098 -0.7724
   28MOL    H63 9297   0.485   0.208   1.213 -0.5487 -1.7687 -4.2919
   28MOL    H64 9298   0.623   0.371   1.350  1.7498  0.7188  0.2039
   28MOL    H65 9299   0.964   0.398   1.312 -0.5141  1.8496 -3.0924
   28MOL    H66 9300   0.971   0.255   1.164  0.8876 -2.7382  1.2960
   28MOL    H67 9301   0.852   0.074   1.035  0.3856 -0.2209  0.4286
   28MOL    H68 9302   0.466   8.002   1.245  0.0754  0.3521 -0.7447
   28MOL    H69 9303   0.632   7.948   1.244  0.4000 -1.7943 -0.1750
   28MOL    C70 9304   0.513   7.810   1.137  0.2752  0.3842 -0.8283
   28MOL    C71 9305   0.365   7.750   1.148 -0.0584 -0.3765 -0.0423
   28MOL    C72 9306   0.271   7.806   1.238  0.3154 -0.1928 -0.1830
   28MOL    C73 9307   0.139   7.754   1.255 -0.6273  0.1535 -0.5202
   28MOL    C74 9308   0.104   7.644   1.177  0.5381 -0.2827 -0.8244
   28MOL    O75 9309   8.031   7.572   1.205 -0.3013  0.2243  0.1110
   28MOL    C76 9310   0.188   7.591   1.075  0.1503  0.8209 -0.0237
   28MOL    C77 9311   0.320   7.643   1.066  0.4521 -0.0755  0.4431
   28MOL    C78 9312   0.625   7.708   1.178  0.2988 -0.2365 -0.2794
   28MOL    H79 9313   0.516   7.806   1.028 -1.8634  0.3234 -0.8968
   28MOL    H80 9314   0.295   7.885   1.307  1.2529 -2.0672  1.6847
   28MOL    H81 9315   0.071   7.810   1.318 -1.3257  0.7264 -1.7741
   28MOL    H82 9316   0.003   7.522   1.285  2.7608 -1.0222 -0.9920
   28MOL    H83 9317   0.153   7.515   1.006 -0.7315  1.9079 -0.7810
   28MOL    H84 9318   0.382   7.597   0.991 -0.1923 -0.6701  0.2730
   28MOL    H85 9319   0.724   7.740   1.144  0.1064  0.5140 -0.1495
   28MOL    H86 9320   0.613   7.621   1.114  3.0090 -2.0631  1.5939
   28MOL    C87 9321   0.629   7.676   1.331 -0.3386  0.1091 -0.9751
   28MOL    C88 9322   0.766   7.705   1.396  0.0280  0.1392  0.0944
   28MOL    C89 9323   0.768   7.825   1.476 -0.5394 -0.6005  0.0405
   28MOL    C90 9324   0.890   7.860   1.539  0.9570 -0.1893 -0.4741
   28MOL    C91 9325   1.005   7.783   1.514 -0.2769 -0.1091 -0.0665
   28MOL    O92 9326   1.122   7.817   1.573 -1.0906  0.8663  0.0847
   28MOL    C93 9327   0.998   7.670   1.430 -0.1131 -0.2970  0.8329
   28MOL    C94 9328   0.881   7.633   1.365  0.0334  0.7481 -0.3501
   28MOL    C95 9329   0.574   7.533   1.351  0.2679 -0.0057 -0.2393
   28MOL    H96 9330   0.556   7.741   1.380 -0.2545 -0.2684 -0.3371
   28MOL    H97 9331   0.678   7.880   1.499 -0.7126 -0.6588 -0.4876
   28MOL    H98 9332   0.899   7.948   1.601  1.1560 -0.0959 -0.6380
   28MOL    H99 9333   1.191   7.764   1.534 -1.0004  1.8755 -1.1550
   28MOL   H100 9334   1.090   7.618   1.406 -0.3086 -0.5758  0.6811
   28MOL   H101 9335   0.866   7.540   1.312  3.9896 -1.2381  1.7731
   28MOL   H102 9336   0.486   7.519   1.288  1.3653  1.0464 -2.0607
   28MOL   H103 9337   0.646   7.464   1.307 -0.9715 -1.8207  0.5208
   28MOL   C104 9338   0.546   7.491   1.501 -0.3714  0.1886  0.3589
   28MOL   C105 9339   0.560   7.340   1.511  0.2450  0.5668 -0.3285
   28MOL   C106 9340   0.639   7.298   1.623  0.3954 -0.0765 -0.2877
   28MOL   C107 9341   0.646   7.160   1.652  0.3470 -0.4219 -0.2694
   28MOL   C108 9342   0.578   7.063   1.578  0.6281  0.0698 -0.8316
   28MOL   O109 9343   0.584   6.930   1.615 -0.3099  0.2786 -0.4418
   28MOL   C110 9344   0.519   7.101   1.455  0.0663  0.2386 -0.1520
   28MOL   C111 9345   0.513   7.236   1.419 -0.2190  0.5428 -0.7950
   28MOL   C112 9346   0.402   7.547   1.546 -0.3206  0.1776 -0.3815
   28MOL   H113 9347   0.624   7.535   1.563 -0.4690 -2.5295  2.5022
   28MOL   H114 9348   0.677   7.369   1.695  0.5841 -1.3635  0.9154
   28MOL   H115 9349   0.708   7.120   1.732  1.4215  0.8835 -0.4313
   28MOL   H116 9350   0.622   6.928   1.701 -0.0160 -3.3160 -0.5820
   28MOL   H117 9351   0.474   7.022   1.397 -1.4600  2.8849 -2.7288
   28MOL   H118 9352   0.469   7.262   1.324 -1.2111 -1.6240 -0.9522
   28MOL   H119 9353   0.343   7.507   1.465 -2.5592  0.4734  1.0505
   28MOL   H120 9354   0.404   7.656   1.557 -1.1505 -0.1198  3.8902
   28MOL   C121 9355   0.347   7.486   1.681  0.7336  0.4842  0.4923
   28MOL   C122 9356   0.422   7.518   1.811 -0.4073  0.0774 -0.2539
   28MOL   C123 9357   0.413   7.424   1.918  0.5326  0.6905  0.7326
   28MOL   C124 9358   0.487   7.453   2.033  0.6311 -0.1190 -0.3156
   28MOL   C125 9359   0.571   7.570   2.043  0.7287  0.0926  1.1138
   28MOL   O126 9360   0.644   7.588   2.158 -0.7846 -0.0410 -0.3625
   28MOL   C127 9361   0.571   7.662   1.933 -0.2299 -0.7310 -0.0642
   28MOL   C128 9362   0.497   7.638   1.817  0.1114 -0.4289  0.2444
   28MOL   C129 9363   0.198   7.518   1.698  0.1897  0.0910  0.0208
   28MOL   H130 9364   0.366   7.379   1.677 -2.0882  0.0070 -0.9136
   28MOL   H131 9365   0.339   7.345   1.916  0.5810  0.6577 -0.1065
   28MOL   H132 9366   0.466   7.394   2.120 -0.9321 -1.6062 -1.6643
   28MOL   H133 9367   0.689   7.671   2.155  0.1142 -0.4664  0.7919
   28MOL   H134 9368   0.626   7.754   1.936 -1.8634  0.2478  0.7881
   28MOL   H135 9369   0.504   7.704   1.733  0.0787  0.6038  1.0382
   28MOL   H136 9370   0.181   7.624   1.719  2.0829  0.0414  1.9440
   28MOL   H137 9371   0.151   7.474   1.786 -1.2796  2.7895  0.6375
   28MOL   C138 9372   0.096   7.473   1.584 -0.1729 -0.1361 -0.1726
   28MOL   C139 9373   8.002   7.541   1.606 -0.7784  0.5433 -0.0498
   28MOL   C140 9374   7.900   7.494   1.694 -0.7023 -0.2811 -0.2299
   28MOL   C141 9375   7.783   7.564   1.726 -0.3019 -0.4042  0.3949
   28MOL   C142 9376   7.766   7.693   1.675 -0.6730 -0.3959 -0.2686
   28MOL   O143 9377   7.656   7.761   1.711 -0.1592 -0.2341  0.4444
   28MOL   C144 9378   7.863   7.751   1.598 -0.1584 -0.4909 -0.4098
   28MOL   C145 9379   7.980   7.679   1.570 -0.9961  0.3284 -0.3550
   28MOL   C146 9380   0.085   7.329   1.572 -0.6214 -0.5747  0.1591
   28MOL   H147 9381   0.133   7.517   1.492  1.8668 -2.1505 -0.3577
   28MOL   H148 9382   7.901   7.402   1.751 -1.3105  0.1389  0.4623
   28MOL   H149 9383   7.706   7.523   1.788  0.1992  0.4511  1.5933
   28MOL   H150 9384   7.660   7.853   1.688  0.5873 -0.4059 -0.1283
   28MOL   H151 9385   7.858   7.850   1.554  1.1677 -0.7939 -1.2641
   28MOL   H152 9386   0.019   7.734   1.518  0.9031 -2.7465 -0.9493
   28MOL   H153 9387   0.036   7.290   1.661 -0.3683  1.0980  1.0605
   28MOL   H154 9388   0.187   7.294   1.585 -0.7828 -0.8870  0.5756
   28MOL   C155 9389   0.030   7.281   1.436  0.2695  0.1845 -0.0727
   28MOL   C156 9390   7.914   7.272   1.432 -0.0291 -0.3162 -0.0563
   28MOL   C157 9391   7.850   7.190   1.529 -0.0471 -0.0353 -0.1842
   28MOL   C158 9392   7.712   7.168   1.522  0.2941  0.0102 -0.2841
   28MOL   C159 9393   7.637   7.224   1.416  0.4786 -0.3526 -0.3621
   28MOL   O160 9394   7.503   7.201   1.422  0.1495  0.0607 -0.0883
   28MOL   C161 9395   7.706   7.279   1.304  0.4948  0.0018  0.4271
   28MOL   C162 9396   7.840   7.311   1.320 -0.6395 -0.2712 -0.3653
   28MOL   C163 9397   0.094   7.143   1.404 -0.2132  0.3035 -0.1240
   28MOL   H164 9398   0.060   7.337   1.348 -0.3564 -0.6117 -0.8049
   28MOL   H165 9399   7.913   7.152   1.607 -0.1803  0.2942  0.0868
   28MOL   H166 9400   7.655   7.109   1.592  0.4261  0.3094  0.0766
   28MOL   H167 9401   7.466   7.262   1.484  3.3568  1.9759  0.0212
   28MOL   H168 9402   7.649   7.312   1.219 -1.8727  0.6611  2.2142
   28MOL   H169 9403   7.878   7.362   1.233 -0.5159  0.5111  0.1465
   28MOL   H170 9404   0.041   7.070   1.465  0.7744  2.0320  2.8883
   28MOL   H171 9405   0.197   7.138   1.437 -0.2060  0.3353 -0.1412
   28MOL   C172 9406   0.090   7.104   1.250 -0.5490 -0.6171  0.2382
   28MOL   C173 9407   0.089   6.953   1.238  0.3713  0.5154 -0.9077
   28MOL   C174 9408   8.035   6.881   1.162  0.0167 -0.1361 -0.2362
   28MOL   C175 9409   0.005   6.740   1.150 -0.0710  0.3454 -0.0620
   28MOL   C176 9410   0.104   6.665   1.221  0.2061 -0.3950  0.4756
   28MOL   O177 9411   0.097   6.529   1.209  0.0733 -0.4656 -0.2001
   28MOL   C178 9412   0.192   6.733   1.301 -0.1657 -0.0458  0.4851
   28MOL   C179 9413   0.184   6.879   1.315  0.0850  0.6093  0.4009
   28MOL   C180 9414   0.200   7.173   1.165 -0.1187 -0.1535  1.1676
   28MOL   H181 9415   8.031   7.132   1.209 -0.1142  1.1274  0.3454
   28MOL   H182 9416   7.961   6.934   1.104 -0.4006 -1.2455 -0.7513
   28MOL   H183 9417   7.965   6.696   1.090 -2.2638  0.4402  2.6310
   28MOL   H184 9418   0.181   6.496   1.238 -0.0714 -0.4164  0.2801
   28MOL   H185 9419   0.270   6.673   1.345 -2.5956 -2.7601  1.2415
   28MOL   H186 9420   0.258   6.929   1.376 -0.0391 -0.4026  1.3822
   28MOL   H187 9421   0.300   7.144   1.198  1.4310  3.0039 -0.5445
   28MOL   H188 9422   0.195   7.282   1.171 -0.4166 -0.2357  2.7903
   28MOL   C189 9423   0.200   7.133   1.013  0.1317  0.0211 -0.0825
   28MOL   C190 9424   0.063   7.121   0.945 -0.3281 -0.5093 -0.1966
   28MOL   C191 9425   8.005   7.220   0.971  0.2189  0.2483  1.3076
   28MOL   C192 9426   7.885   7.216   0.904  0.2661  0.1794  0.2368
   28MOL   C193 9427   7.862   7.122   0.807  0.4146 -0.0891  0.4618
   28MOL   O194 9428   7.748   7.117   0.740  0.3279 -0.0267  0.1252
   28MOL   C195 9429   7.952   7.015   0.779  0.8395  0.5199 -0.1114
   28MOL   C196 9430   0.036   7.022   0.847  0.6384  0.1337  0.2507
   28MOL   C197 9431   0.295   7.208   0.915 -0.0765 -0.1636  0.1817
   28MOL   H198 9432   0.230   7.028   1.015  0.2586  0.0585 -0.0109
   28MOL   H199 9433   8.025   7.295   1.045  3.9518 -0.6022  1.2400
   28MOL   H200 9434   7.813   7.292   0.929  0.2129  0.1647  0.1232
   28MOL   H201 9435   7.757   7.085   0.652  0.7407  1.6955 -0.4820
   28MOL   H202 9436   7.922   6.940   0.708  0.7790  0.2681  0.1757
   28MOL   H203 9437   0.103   6.938   0.838  1.7752  0.9510  1.0154
   28MOL   H204 9438   0.275   7.315   0.927 -1.5710 -0.3665 -0.4942
   28MOL   H205 9439   0.280   7.190   0.809 -2.7915  0.8872  0.3395
   28MOL   C206 9440   0.447   7.171   0.939 -0.1517  0.8306  0.3781
   28MOL   C207 9441   0.538   7.288   0.910 -0.2650  0.3774  0.4631
   28MOL   C208 9442   0.640   7.320   1.002 -0.6445 -0.2424  1.0123
   28MOL   C209 9443   0.711   7.443   0.979 -0.5754 -0.6162 -0.2201
   28MOL   C210 9444   0.706   7.516   0.863 -0.1828 -0.4563 -0.3087
   28MOL   O211 9445   0.775   7.634   0.838 -0.0531  0.9433 -0.1757
   28MOL   C212 9446   0.616   7.469   0.761  0.1309  0.6045  0.0878
   28MOL   C213 9447   0.530   7.359   0.792 -0.3540 -0.2745  0.1711
   28MOL   C214 9448   0.472   7.043   0.855  0.1936  0.6913  0.2934
   28MOL   H215 9449   0.462   7.144   1.044  1.9349  0.1582 -0.0734
   28MOL   H216 9450   0.656   7.270   1.097  2.5156 -0.0004  0.6693
   28MOL   H217 9451   0.795   7.471   1.041 -2.0169  0.4699  1.2793
   28MOL   H218 9452   0.772   7.655   0.746  0.0867  0.9831 -0.1715
   28MOL   H219 9453   0.612   7.510   0.661  2.5266  0.3949 -0.1150
   28MOL   H220 9454   0.445   7.336   0.730 -1.2296 -2.6562  2.1587
   28MOL   H221 9455   0.464   7.072   0.750  1.3418 -0.1262 -0.0315
   28MOL   H222 9456   0.392   6.971   0.862 -3.1257  3.7496 -3.6587
   28MOL   C223 9457   0.600   6.966   0.885 -0.0622  0.3443  0.2017
   28MOL   C224 9458   0.595   6.890   1.022  0.1079  0.6310  0.2377
   28MOL   C225 9459   0.512   6.773   1.038 -0.3338  0.3812  0.5302
   28MOL   C226 9460   0.503   6.718   1.164 -0.4787  0.2823  0.1060
   28MOL   C227 9461   0.581   6.767   1.272  0.7572  1.0773  0.0397
   28MOL   O228 9462   0.552   6.735   1.402  0.0788 -0.7263 -0.0984
   28MOL   C229 9463   0.684   6.864   1.250 -0.1080 -0.1340 -0.3877
   28MOL   C230 9464   0.686   6.921   1.125  0.8509 -0.7886 -0.4010
   28MOL   C231 9465   0.731   7.035   0.836  0.7861 -0.0819 -0.4776
   28MOL   H232 9466   0.588   6.883   0.816  0.0884 -0.5213  1.1996
   28MOL   H233 9467   0.446   6.734   0.961  1.8376  1.0063 -1.6968
   28MOL   H234 9468   0.424   6.646   1.177  0.1671 -0.3397  0.6915
   28MOL   H235 9469   0.576   6.805   1.461 -0.0471  0.8635 -1.8920
   28MOL   H236 9470   0.745   6.894   1.333  0.5251 -0.5459 -0.6939
   28MOL   H237 9471   0.748   7.009   1.117  1.1233 -1.2087 -3.3690
   28MOL   H238 9472   0.706   7.089   0.744 -0.6355 -1.5319 -0.9594
   28MOL   H239 9473   0.755   7.113   0.909 -1.1345 -2.2484  2.5724
   28MOL   C240 9474   0.847   6.939   0.810  0.1569  0.6278  0.4963
   28MOL   C241 9475   0.830   6.849   0.685 -0.6197  0.4523 -0.1011
   28MOL   C242 9476   0.833   6.909   0.551 -0.1038 -0.0893  0.1851
   28MOL   C243 9477   0.833   6.828   0.436  0.1546  0.1797 -0.2952
   28MOL   C244 9478   0.823   6.693   0.451 -0.4466  0.2023  0.4069
   28MOL   O245 9479   0.833   6.624   0.334  0.1655 -0.1184  0.1217
   28MOL   C246 9480   0.808   6.628   0.576  0.0980 -0.8348 -0.0970
   28MOL   C247 9481   0.812   6.709   0.690  0.0526 -0.2604  0.2313
   28MOL   C248 9482   0.983   7.011   0.806 -0.2288  0.0381  0.5116
   28MOL   H249 9483   0.852   6.878   0.900 -0.7197  0.5578  0.4964
   28MOL   H250 9484   0.829   7.017   0.541 -0.7736 -0.0977  0.3067
   28MOL   H251 9485   0.848   6.872   0.338  0.5316 -0.0462 -0.3400
   28MOL   H252 9486   0.856   6.681   0.263  0.2285  0.7909  0.8693
   28MOL   H253 9487   0.812   6.520   0.577 -0.2147 -0.8750 -1.8083
   28MOL   H254 9488   0.815   6.670   0.791  1.3116  2.3395  1.2420
   28MOL   H255 9489   1.055   6.936   0.773  0.0497  0.8847 -0.8818
   28MOL   H256 9490   0.975   7.086   0.727  3.0838  1.0662  1.0630
   28MOL   C257 9491   1.045   7.079   0.939  0.7102  0.0171 -0.1877
   28MOL   C258 9492   1.036   6.995   1.063  0.4086  0.3591  0.3808
   28MOL   C259 9493   1.077   6.853   1.064  0.5466 -0.6900  0.3599
   28MOL   C260 9494   1.066   6.782   1.185 -0.1003 -0.3738 -0.1411
   28MOL   C261 9495   1.017   6.850   1.296 -1.1997  0.8030 -0.0557
   28MOL   O262 9496   0.979   6.775   1.399  0.4223  0.7411  0.3768
   28MOL   C263 9497   0.993   6.989   1.301 -0.0313  0.2141 -0.0266
   28MOL   C264 9498   1.008   7.061   1.183 -0.2614  1.0576 -0.3575
   28MOL   C265 9499   1.183   7.141   0.931  0.5425 -0.5839  0.1402
   28MOL   H266 9500   0.980   7.164   0.960  0.3878 -0.5977  1.3526
   28MOL   H267 9501   1.117   6.811   0.973  3.0973 -1.8847  1.9791
   28MOL   H268 9502   1.093   6.678   1.178  3.0106 -0.0233  4.4473
   28MOL   H269 9503   0.991   6.683   1.379 -0.2642  0.5079  0.9857
   28MOL   H270 9504   0.967   7.030   1.398 -1.7771 -0.0138 -0.3865
   28MOL   H271 9505   0.984   7.167   1.182  1.4997  1.4832 -0.6780
   28MOL   H272 9506   1.248   7.086   0.863  1.0129  0.8859 -0.6321
   28MOL   H273 9507   1.230   7.119   1.027 -0.0413 -0.7166  0.3942
   28MOL   C274 9508   1.178   7.290   0.892  0.4944 -0.8250  0.8232
   28MOL   C275 9509   1.128   7.305   0.747  0.2326 -0.4799 -0.4795
   28MOL   C276 9510   1.020   7.395   0.725 -0.1162  0.0899  0.2148
   28MOL   C277 9511   0.950   7.395   0.600 -0.1373 -0.6877 -0.2917
   28MOL   C278 9512   0.985   7.310   0.496  0.1450  0.2537 -0.3378
   28MOL   O279 9513   0.907   7.299   0.385  0.0635 -0.7045  0.4212
   28MOL   C280 9514   1.101   7.232   0.511  0.0951  0.3357 -0.2786
   28MOL   C281 9515   1.173   7.229   0.637 -0.0873  1.0647  0.0878
   28MOL   C282 9516   1.313   7.360   0.905 -0.3783  0.0721 -0.4339
   28MOL   H283 9517   1.109   7.341   0.959 -0.0962  0.1029 -0.4851
   28MOL   H284 9518   0.977   7.454   0.805 -2.5133 -0.0797 -0.9136
   28MOL   H285 9519   0.879   7.476   0.596 -0.0543 -0.5833  0.2321
   28MOL   H286 9520   0.853   7.375   0.371  2.0564  0.5666 -0.6825
   28MOL   H287 9521   1.137   7.170   0.430  2.6169  0.2014  0.9168
   28MOL   H288 9522   1.253   7.156   0.637 -1.7650 -0.8191 -0.9696
   28MOL   H289 9523   1.348   7.350   1.008 -0.9160  0.5521 -0.2023
   28MOL   H290 9524   1.394   7.311   0.851  1.3362  1.4904  0.7993
   28MOL   C291 9525   1.319   7.506   0.873 -0.2179 -0.9543  0.2521
   28MOL   C292 9526   1.468   7.558   0.848 -0.2739 -0.0968  0.6536
   28MOL   C293 9527   1.527   7.530   0.717 -0.2816 -0.4147 -0.2910
   28MOL   C294 9528   1.661   7.574   0.699 -0.1872  0.5856  0.2163
   28MOL   C295 9529   1.737   7.635   0.804 -0.3038  0.1052  0.3548
   28MOL   O296 9530   1.868   7.680   0.786 -0.1902 -0.2857  0.0691
   28MOL   C297 9531   1.675   7.654   0.921  0.4225  0.2031  0.0952
   28MOL   C298 9532   1.547   7.613   0.954 -0.8454  0.1818  0.0365
   28MOL   C299 9533   1.226   7.591   0.965 -0.3050  0.5885 -0.1668
   28MOL   H300 9534   1.278   7.513   0.772 -2.2475  0.5994  1.1350
   28MOL   H301 9535   1.480   7.471   0.639  0.8356  0.0131 -1.3119
   28MOL   H302 9536   1.704   7.552   0.602 -1.8394  0.8160 -0.5940
   28MOL   H303 9537   1.890   7.766   0.819 -0.9580 -1.3719  3.5828
   28MOL   H304 9538   1.748   7.690   0.992  2.6968 -1.5709 -1.2861
   28MOL   H305 9539   1.511   7.630   1.054 -2.7559  0.2428 -0.6351
   28MOL   H306 9540   1.267   7.581   1.065 -0.7152 -1.2216 -0.1590
   28MOL   H307 9541   1.125   7.550   0.972  0.1269 -0.2991  0.9646
   28MOL   C308 9542   1.229   7.741   0.922  0.5714  0.0961  0.2075
   28MOL   C309 9543   1.187   7.838   1.038 -0.0741 -0.3853  0.0797
   28MOL   C310 9544   1.055   7.866   1.077 -0.4719  0.1939  0.7032
   28MOL   C311 9545   1.014   7.945   1.181  0.2598  0.2751 -0.8197
   28MOL   C312 9546   1.110   7.997   1.264  0.4172  0.6823  0.5081
   28MOL   O313 9547   1.070   0.017   1.379 -0.3376  0.4113 -0.2959
   28MOL   C314 9548   1.248   7.970   1.237  0.3882  0.7368  0.3701
   28MOL   C315 9549   1.284   7.899   1.121  0.3159  0.1284  0.0071
   28MOL   C316 9550   1.155   7.783   0.788 -0.4343  0.6558 -0.2266
   28MOL   H317 9551   1.333   7.772   0.912  0.6601 -0.3785 -0.3871
   28MOL   H318 9552   0.978   7.824   1.015 -0.1461  0.0728  0.3766
   28MOL   H319 9553   0.908   7.953   1.201  0.5940  2.0926  0.3063
   28MOL   H320 9554   1.019   7.995   1.432 -1.1028  1.2547 -0.0623
   28MOL   H321 9555   1.314   8.022   1.306 -0.5401  2.2527  0.1398
   28MOL   H322 9556   1.387   7.882   1.092  0.3414 -0.8603  0.6670
   28MOL   H323 9557   1.132   7.888   0.807 -1.8170  0.0940  1.3069
   28MOL   H324 9558   1.060   7.730   0.784 -0.0537 -0.3452  2.9810
   28MOL   C325 9559   1.234   7.775   0.660 -0.1400 -0.0196 -1.0894
   28MOL   C326 9560   1.301   7.900   0.614 -0.7670 -0.1089  0.1669
   28MOL   C327 9561   1.438   7.894   0.588  0.3394 -0.1973  0.5156
   28MOL   C328 9562   1.506   8.008   0.543  0.1999 -0.6793  1.0199
   28MOL   C329 9563   1.438   0.093   0.524 -0.1856  0.4763 -0.2224
   28MOL   O330 9564   1.501   0.207   0.489 -0.8799 -0.2935 -0.0086
   28MOL   C331 9565   1.299   0.101   0.560  0.4424 -0.1433 -0.1087
   28MOL   C332 9566   1.235   8.021   0.602  0.3335  0.6120  0.4869
   28MOL   C333 9567   1.149   7.718   0.543 -0.6698 -0.1222 -0.1781
   28MOL   H334 9568   1.318   7.711   0.688 -0.7783 -0.1995  0.4310
   28MOL   H335 9569   1.485   7.799   0.607 -0.3227 -0.1609  2.4414
   28MOL   H336 9570   1.612   8.001   0.521  0.2141  0.4875  0.6788
   28MOL   H337 9571   1.587   0.185   0.457 -0.9978 -0.7800  0.0042
   28MOL   H338 9572   1.246   0.192   0.536 -0.4898 -0.9228 -1.1201
   28MOL   H339 9573   1.129   8.031   0.622  0.4260  0.6111  0.9790
   28MOL   H340 9574   1.090   7.631   0.569 -1.1312  0.7931  1.9342
   28MOL   H341 9575   1.217   7.674   0.469 -0.4949  0.9439 -0.6598
   28MOL   H342 9576   1.080   7.787   0.494 -0.3372  2.6980  3.1539
   29MOL     C1 9577   2.256   4.974   0.988 -0.1269 -0.2641 -0.1656
   29MOL     C2 9578   2.229   4.834   0.936  0.7015 -0.0946 -0.0488
   29MOL     C3 9579   2.338   4.747   0.915 -0.1223  0.5444 -0.6088
   29MOL     C4 9580   2.318   4.617   0.854 -0.2206  0.4769  0.4617
   29MOL     C5 9581   2.191   4.578   0.815 -0.0437 -0.4431  0.5312
   29MOL     O6 9582   2.175   4.449   0.774  0.1844 -0.0197  0.5682
   29MOL     C7 9583   2.082   4.667   0.817  0.8870  0.3585  0.2284
   29MOL     C8 9584   2.102   4.794   0.889  0.3973 -0.0069 -1.0006
   29MOL     C9 9585   2.173   5.089   0.905 -0.6231  0.3978 -0.3063
   29MOL    H10 9586   2.226   4.984   1.093 -0.5616 -0.8928 -0.2260
   29MOL    H11 9587   2.435   4.787   0.936 -1.1612  2.5353  0.5075
   29MOL    H12 9588   2.403   4.551   0.863 -0.3855  0.2891  0.6584
   29MOL    H13 9589   2.086   4.423   0.794  0.2923  0.1733  1.3252
   29MOL    H14 9590   1.990   4.636   0.769  1.7120 -2.1670  0.1903
   29MOL    H15 9591   2.022   4.867   0.885 -0.9540 -1.2922  1.3549
   29MOL    H16 9592   2.193   5.182   0.958  2.0113 -0.9311  1.1915
   29MOL    H17 9593   2.067   5.064   0.908 -0.6388  0.5627  1.7369
   29MOL    H18 9594   2.360   5.007   0.991  0.0022 -0.7810  1.8487
   29MOL    C19 9595   2.194   5.115   0.759 -0.6302  0.0498  0.3232
   29MOL    C20 9596   2.336   5.147   0.732  0.4307 -0.6093 -0.2816
   29MOL    C21 9597   2.402   5.244   0.803  0.1111 -0.3743 -0.1689
   29MOL    C22 9598   2.539   5.277   0.781 -0.4909 -0.4726 -0.4673
   29MOL    C23 9599   2.603   5.221   0.670 -0.0253 -0.7402 -0.0309
   29MOL    O24 9600   2.736   5.253   0.661  0.0919 -0.0724 -0.3146
   29MOL    C25 9601   2.532   5.123   0.594  0.1705  0.2818 -0.4282
   29MOL    C26 9602   2.399   5.086   0.628  0.4143 -0.1616 -0.2853
   29MOL    C27 9603   2.085   5.228   0.707  0.3279 -0.1117 -0.4764
   29MOL    H28 9604   2.172   5.019   0.713 -1.1767 -0.0612  0.8165
   29MOL    H29 9605   2.359   5.295   0.888 -2.0390 -0.7618 -1.0098
   29MOL    H30 9606   2.595   5.344   0.845 -2.5258  1.9668 -1.1522
   29MOL    H31 9607   2.762   5.221   0.576  1.3075  0.7208 -0.2525
   29MOL    H32 9608   2.587   5.079   0.511 -2.3218  0.6519 -2.3507
   29MOL    H33 9609   2.345   5.019   0.563 -1.4708  2.0158 -1.0291
   29MOL    H34 9610   2.113   5.247   0.604 -0.5152 -0.2679 -0.7394
   29MOL    H35 9611   2.097   5.328   0.750  1.6075 -0.5124  0.1127
   29MOL    C36 9612   1.935   5.177   0.702  0.5019  0.3171 -0.3412
   29MOL    C37 9613   1.891   5.153   0.554  0.4282 -0.0715  0.7147
   29MOL    C38 9614   1.933   5.039   0.481 -0.0146  0.3570 -0.5338
   29MOL    C39 9615   1.892   5.017   0.347  0.4291  0.2936 -0.1223
   29MOL    C40 9616   1.809   5.112   0.285 -0.3586 -0.1076 -0.8660
   29MOL    O41 9617   1.775   5.098   0.152 -0.3213  0.6497  0.0159
   29MOL    C42 9618   1.772   5.227   0.348 -0.2947  0.1358 -0.2197
   29MOL    C43 9619   1.817   5.251   0.482 -0.2005  0.3846  0.5860
   29MOL    C44 9620   1.831   5.249   0.793 -0.8685  0.0419 -0.0529
   29MOL    H45 9621   1.930   5.078   0.747  3.9757 -0.5220 -1.6369
   29MOL    H46 9622   1.991   4.960   0.526  1.3388  1.0573 -1.0211
   29MOL    H47 9623   1.930   4.930   0.296  0.8775  0.9528 -0.9159
   29MOL    H48 9624   1.760   5.181   0.111  2.0335  0.5147 -1.1942
   29MOL    H49 9625   1.702   5.296   0.303  0.4583  0.5553 -0.7643
   29MOL    H50 9626   1.792   5.344   0.530 -1.4671  0.1084  0.4724
   29MOL    H51 9627   1.879   5.274   0.887 -0.2578 -0.4259 -0.2364
   29MOL    H52 9628   1.812   5.342   0.739  0.0367 -1.5076 -3.1459
   29MOL    C53 9629   1.698   5.175   0.810  0.2157  0.0017 -0.4929
   29MOL    C54 9630   1.737   5.041   0.884 -0.1852 -0.0989  0.4556
   29MOL    C55 9631   1.722   4.917   0.822  0.1399 -0.3711 -0.2196
   29MOL    C56 9632   1.758   4.796   0.889 -0.2754 -0.5020  0.5809
   29MOL    C57 9633   1.801   4.799   1.023  0.3104 -0.1750  0.0728
   29MOL    O58 9634   1.860   4.695   1.082  0.0465 -0.5279  0.0801
   29MOL    C59 9635   1.815   4.918   1.087  0.5174  0.6099  0.1092
   29MOL    C60 9636   1.785   5.043   1.020 -0.0426  0.1062  0.2498
   29MOL    C61 9637   1.578   5.254   0.878  0.9003 -0.3120 -0.0830
   29MOL    H62 9638   1.658   5.156   0.711 -2.9299 -0.7822  0.8423
   29MOL    H63 9639   1.697   4.913   0.717 -0.4784 -1.9986 -0.0235
   29MOL    H64 9640   1.762   4.700   0.841 -0.0326 -0.9987  1.5812
   29MOL    H65 9641   1.910   4.725   1.157  1.1237  0.4120 -0.9834
   29MOL    H66 9642   1.861   4.925   1.184  1.7653 -0.0680 -0.4353
   29MOL    H67 9643   1.804   5.139   1.065 -0.0888  0.3896 -0.3287
   29MOL    H68 9644   1.594   5.298   0.976  0.2117 -0.1814 -0.0330
   29MOL    H69 9645   1.503   5.176   0.885 -0.0528  0.6037 -0.0897
   29MOL    C70 9646   1.518   5.370   0.781 -0.4752  0.3448 -0.2975
   29MOL    C71 9647   1.609   5.492   0.790  0.5462 -0.0888 -0.8994
   29MOL    C72 9648   1.678   5.546   0.681  0.4342  0.0850  0.5138
   29MOL    C73 9649   1.776   5.644   0.699 -0.5701  0.1329  0.0526
   29MOL    C74 9650   1.791   5.702   0.827 -0.2384  0.7073 -0.1603
   29MOL    O75 9651   1.893   5.789   0.844  0.0708 -0.4019 -0.3691
   29MOL    C76 9652   1.719   5.657   0.935  0.0061  0.1464  0.2539
   29MOL    C77 9653   1.621   5.559   0.918 -0.6891 -0.2986 -0.4582
   29MOL    C78 9654   1.377   5.394   0.820  0.3044 -0.1632  0.1158
   29MOL    H79 9655   1.518   5.333   0.679  0.2242  2.6838 -1.1865
   29MOL    H80 9656   1.667   5.502   0.583 -0.8500 -0.6694  0.9867
   29MOL    H81 9657   1.840   5.679   0.620  1.5338  0.1454  1.7214
   29MOL    H82 9658   1.902   5.792   0.938 -1.2408  1.3827 -0.2669
   29MOL    H83 9659   1.733   5.705   1.031 -0.5381 -0.8101  0.8222
   29MOL    H84 9660   1.567   5.521   1.004  1.0389 -0.5833  0.5360
   29MOL    H85 9661   1.372   5.449   0.914 -0.3846 -0.1383  0.0687
   29MOL    H86 9662   1.324   5.301   0.836  0.0291  0.0994  0.7516
   29MOL    C87 9663   1.287   5.467   0.709  1.0035 -0.3082  0.5346
   29MOL    C88 9664   1.274   5.393   0.573 -0.5242 -0.4204 -0.2429
   29MOL    C89 9665   1.165   5.306   0.548 -0.4581  0.4313  0.1509
   29MOL    C90 9666   1.166   5.220   0.433 -0.7261  0.2561 -0.3904
   29MOL    C91 9667   1.273   5.233   0.339 -0.5562 -0.4466  0.2117
   29MOL    O92 9668   1.265   5.163   0.215 -0.1322 -0.2564 -0.7721
   29MOL    C93 9669   1.377   5.321   0.363  0.1107 -0.4714 -0.0098
   29MOL    C94 9670   1.378   5.398   0.480 -0.2901  0.1463  0.3643
   29MOL    C95 9671   1.312   5.619   0.698  0.0416 -0.2211 -0.0174
   29MOL    H96 9672   1.184   5.449   0.741  0.0257  2.0035 -1.1182
   29MOL    H97 9673   1.074   5.303   0.606 -0.8454 -0.2476 -0.4837
   29MOL    H98 9674   1.073   5.171   0.407 -1.2984  1.2973 -0.3445
   29MOL    H99 9675   1.347   5.118   0.201 -0.9281 -2.6804  1.8722
   29MOL   H100 9676   1.464   5.328   0.299  2.5354 -2.7729  2.9092
   29MOL   H101 9677   1.470   5.452   0.496 -0.8528  1.1482  0.2679
   29MOL   H102 9678   1.418   5.638   0.680 -0.3864  3.3329  0.9965
   29MOL   H103 9679   1.267   5.662   0.608  0.1894 -0.2405 -0.1021
   29MOL   C104 9680   1.282   5.719   0.811 -0.0729 -0.2784  0.0694
   29MOL   C105 9681   1.153   5.687   0.889  0.1039 -0.3846  0.0656
   29MOL   C106 9682   1.171   5.660   1.029  0.0411  1.1837 -0.2828
   29MOL   C107 9683   1.066   5.610   1.108 -0.6741 -0.7996 -0.0443
   29MOL   C108 9684   0.934   5.608   1.058  0.1645  0.8690 -0.0514
   29MOL   O109 9685   0.831   5.560   1.131 -0.6011  0.4547  0.0236
   29MOL   C110 9686   0.918   5.651   0.925 -0.9252 -0.3319 -0.7518
   29MOL   C111 9687   1.022   5.692   0.836 -0.2822  0.1969 -0.3912
   29MOL   C112 9688   1.283   5.862   0.759  0.6651 -0.4790 -0.1896
   29MOL   H113 9689   1.356   5.708   0.890  0.2958  2.0361  0.0821
   29MOL   H114 9690   1.264   5.677   1.081  0.6546  1.0060 -1.2941
   29MOL   H115 9691   1.090   5.580   1.209  0.2173 -1.2489 -0.3883
   29MOL   H116 9692   0.767   5.522   1.073 -0.6846  1.4386 -0.5327
   29MOL   H117 9693   0.815   5.645   0.895 -1.1342  0.8509 -0.2998
   29MOL   H118 9694   1.010   5.719   0.732 -3.8954  0.9292  0.1362
   29MOL   H119 9695   1.203   5.880   0.687 -1.1370 -1.7993  1.4177
   29MOL   H120 9696   1.373   5.875   0.698  0.8417 -0.7325  0.0154
   29MOL   C121 9697   1.293   5.970   0.866  0.0448  0.2458 -0.0982
   29MOL   C122 9698   1.412   5.957   0.951 -0.4891  0.5598 -0.6821
   29MOL   C123 9699   1.411   5.949   1.094 -0.4892  0.7382  0.3202
   29MOL   C124 9700   1.521   5.964   1.175 -0.3233 -0.1485  0.0916
   29MOL   C125 9701   1.643   5.998   1.114  0.1886  0.2319 -0.4206
   29MOL   O126 9702   1.758   6.031   1.190  0.4098 -0.2403 -0.2531
   29MOL   C127 9703   1.653   6.000   0.973 -0.3004 -0.0555  0.1482
   29MOL   C128 9704   1.540   5.978   0.893 -0.5392  0.1074  0.5694
   29MOL   C129 9705   1.288   6.117   0.808  0.2138  0.6938 -0.0703
   29MOL   H130 9706   1.205   5.970   0.930 -0.8984 -0.1720 -1.3783
   29MOL   H131 9707   1.312   5.938   1.136 -0.9235  0.4121 -0.7642
   29MOL   H132 9708   1.497   5.951   1.279  1.0498 -1.8500  0.2225
   29MOL   H133 9709   1.833   6.068   1.146 -1.0747  1.8119 -1.1593
   29MOL   H134 9710   1.750   6.006   0.926 -0.1097 -1.4696  0.3188
   29MOL   H135 9711   1.552   5.983   0.786 -1.3635  1.5453  0.5367
   29MOL   H136 9712   1.364   6.132   0.731 -1.4275  2.2462 -1.4330
   29MOL   H137 9713   1.328   6.182   0.886  2.1305 -1.0158  0.4201
   29MOL   C138 9714   1.148   6.171   0.767 -0.2384  0.4270  0.5155
   29MOL   C139 9715   1.160   6.288   0.670 -0.2279 -0.4109 -0.1131
   29MOL   C140 9716   1.134   6.261   0.532 -0.1087 -0.3243 -0.4194
   29MOL   C141 9717   1.134   6.363   0.434  0.1215 -0.1228  0.3679
   29MOL   C142 9718   1.182   6.495   0.474  0.2313 -0.3747  0.0474
   29MOL   O143 9719   1.217   6.593   0.389  0.5942 -0.1519  0.3800
   29MOL   C144 9720   1.217   6.514   0.607  0.2144  0.1838  0.4519
   29MOL   C145 9721   1.208   6.409   0.703  0.5946 -0.5217  1.0855
   29MOL   C146 9722   1.052   6.198   0.889  0.4909  0.1928  0.4942
   29MOL   H147 9723   1.097   6.090   0.715  2.0992  1.0390 -2.8830
   29MOL   H148 9724   1.112   6.158   0.507  1.2838 -0.4808 -1.0611
   29MOL   H149 9725   1.123   6.329   0.332 -0.1797 -1.4325  0.8260
   29MOL   H150 9726   1.230   6.680   0.424  0.0568 -0.4681  1.4113
   29MOL   H151 9727   1.254   6.606   0.649  0.2654  0.2415  0.2761
   29MOL   H152 9728   1.240   6.424   0.805  2.4508 -0.0296  0.4389
   29MOL   H153 9729   1.107   6.225   0.979  2.2126 -1.1915 -0.1203
   29MOL   H154 9730   1.004   6.103   0.914 -0.7247  0.8548  0.7317
   29MOL   C155 9731   0.941   6.303   0.876  0.3298  0.3703 -0.0112
   29MOL   C156 9732   0.876   6.339   1.009  0.2041  0.2296 -0.0215
   29MOL   C157 9733   0.830   6.252   1.114 -0.7650  0.7603 -0.1712
   29MOL   C158 9734   0.755   6.295   1.228  0.4993 -0.3921 -0.0636
   29MOL   C159 9735   0.738   6.435   1.252 -0.3765 -0.4252 -0.3488
   29MOL   O160 9736   0.682   6.488   1.362 -0.2473 -0.4105 -0.1289
   29MOL   C161 9737   0.792   6.524   1.152  0.1727  0.5366  0.1010
   29MOL   C162 9738   0.862   6.475   1.040  0.2355  0.1663 -0.6671
   29MOL   C163 9739   0.820   6.291   0.773 -0.1762  0.4250 -0.4671
   29MOL   H164 9740   0.998   6.392   0.851  1.4568 -0.2456  0.3272
   29MOL   H165 9741   0.848   6.145   1.105  0.1940  0.8134  0.9636
   29MOL   H166 9742   0.723   6.227   1.304  1.6077 -0.6729  0.1571
   29MOL   H167 9743   0.661   6.580   1.368 -4.2619 -1.1611 -0.8083
   29MOL   H168 9744   0.795   6.631   1.166 -0.9999  0.5841  0.0028
   29MOL   H169 9745   0.911   6.552   0.982 -0.3526  1.5202  0.6047
   29MOL   H170 9746   0.870   6.285   0.676  1.5829 -1.5195  0.5055
   29MOL   H171 9747   0.767   6.386   0.772 -0.8135  0.1396  1.9007
   29MOL   C172 9748   0.719   6.185   0.801  0.0419  0.9168  0.7799
   29MOL   C173 9749   0.704   6.098   0.680  0.0432  0.8814 -0.4029
   29MOL   C174 9750   0.737   5.957   0.677  0.8591  0.1270  0.4130
   29MOL   C175 9751   0.715   5.881   0.559  0.5693 -0.4986 -0.5609
   29MOL   C176 9752   0.643   5.949   0.453  0.4231 -0.1846  0.5199
   29MOL   O177 9753   0.607   5.875   0.344  0.0098  0.4262  0.3896
   29MOL   C178 9754   0.599   6.083   0.463 -0.4179 -0.7394 -0.2880
   29MOL   C179 9755   0.635   6.158   0.577 -0.3818 -0.1747  0.3173
   29MOL   C180 9756   0.582   6.243   0.855  0.0478  0.4006  0.1926
   29MOL   H181 9757   0.759   6.123   0.881  0.0220  2.5376  2.0539
   29MOL   H182 9758   0.799   5.914   0.754  1.4958  0.3230  0.0213
   29MOL   H183 9759   0.736   5.775   0.558  0.9144 -0.4239 -1.5617
   29MOL   H184 9760   0.607   5.928   0.266 -0.1035 -0.2393 -0.0677
   29MOL   H185 9761   0.548   6.137   0.385 -0.9825  0.8719  1.1757
   29MOL   H186 9762   0.601   6.260   0.582 -1.3842 -0.3572 -1.8817
   29MOL   H187 9763   0.541   6.315   0.784 -2.6468  0.9984  2.3107
   29MOL   H188 9764   0.606   6.297   0.946 -0.7761  0.5697  0.3111
   29MOL   C189 9765   0.483   6.127   0.875 -0.5278  0.2055 -0.6491
   29MOL   C190 9766   0.536   6.018   0.982  0.1604  0.0892  0.1554
   29MOL   C191 9767   0.558   5.888   0.948  0.4453  0.1993 -0.1653
   29MOL   C192 9768   0.591   5.793   1.047 -0.2494 -0.1009 -0.6164
   29MOL   C193 9769   0.604   5.829   1.179  0.1148 -0.9595 -0.1712
   29MOL   O194 9770   0.631   5.740   1.278  0.0755 -0.2518  0.0339
   29MOL   C195 9771   0.583   5.963   1.219  0.2989  0.5459  0.4541
   29MOL   C196 9772   0.553   6.055   1.117  0.4523  0.5798  0.5166
   29MOL   C197 9773   0.346   6.197   0.922 -0.0835  0.6126 -0.3227
   29MOL   H198 9774   0.461   6.083   0.777  0.0100 -0.5864 -0.4210
   29MOL   H199 9775   0.541   5.863   0.845 -1.5779 -2.8712  0.8560
   29MOL   H200 9776   0.606   5.689   1.021 -0.8079 -0.2933 -0.1765
   29MOL   H201 9777   0.678   5.666   1.244 -0.9945 -1.3209  0.8495
   29MOL   H202 9778   0.594   5.997   1.320  0.1222  2.5434 -0.1727
   29MOL   H203 9779   0.543   6.157   1.152  1.3236  0.2312  1.8192
   29MOL   H204 9780   0.352   6.297   0.881 -1.3204 -0.4703 -3.2980
   29MOL   H205 9781   0.338   6.216   1.029 -2.1477 -0.9634 -0.1677
   29MOL   C206 9782   0.221   6.113   0.879 -0.8231  0.1303 -0.8970
   29MOL   C207 9783   0.097   6.201   0.893 -0.5362 -0.3475  0.2603
   29MOL   C208 9784   0.060   6.252   1.022  0.1646 -0.6926  0.7771
   29MOL   C209 9785   7.989   6.334   1.038 -0.0538  0.6725 -0.1603
   29MOL   C210 9786   7.912   6.377   0.924 -0.0538 -0.4649  0.6916
   29MOL   O211 9787   7.788   6.437   0.944  0.9768  0.0302 -0.5800
   29MOL   C212 9788   7.953   6.332   0.801  0.2309 -0.4171  0.5193
   29MOL   C213 9789   0.023   6.248   0.781 -0.3661  0.1586  0.5996
   29MOL   C214 9790   0.204   5.978   0.966 -0.7080 -0.6719  0.3539
   29MOL   H215 9791   0.242   6.098   0.773 -0.8145  0.5661 -0.9589
   29MOL   H216 9792   0.124   6.219   1.103  3.1700  1.6055 -0.5503
   29MOL   H217 9793   7.949   6.371   1.131  1.5266  0.1989  0.7379
   29MOL   H218 9794   7.791   6.527   0.916  0.3403  0.7947  1.7847
   29MOL   H219 9795   7.902   6.367   0.713  1.5061  0.2877  0.0466
   29MOL   H220 9796   0.040   6.215   0.679 -0.3131 -0.9608  0.9592
   29MOL   H221 9797   0.208   6.015   1.068 -1.2864  3.6602 -1.0939
   29MOL   H222 9798   0.294   5.916   0.973  0.9024  1.7541  1.9528
   29MOL   C223 9799   0.070   5.896   0.937 -0.1352  0.5264  0.6541
   29MOL   C224 9800   0.008   5.840   1.060  0.4848 -0.3585 -1.1090
   29MOL   C225 9801   0.041   5.708   1.114  0.3073  0.8852 -0.0685
   29MOL   C226 9802   0.002   5.671   1.244 -0.1024 -0.7328  0.1559
   29MOL   C227 9803   7.955   5.755   1.322  0.5506  0.0920 -0.6587
   29MOL   O228 9804   7.917   5.725   1.449 -0.4339 -0.0371 -0.2373
   29MOL   C229 9805   7.905   5.874   1.256 -0.0860  0.4576 -0.3411
   29MOL   C230 9806   7.950   5.917   1.130  0.7332  0.4337 -0.1304
   29MOL   C231 9807   0.085   5.777   0.836  0.3065  0.3389 -0.2694
   29MOL   H232 9808   8.033   5.960   0.890 -2.1991 -2.7136 -0.6875
   29MOL   H233 9809   0.116   5.658   1.054 -0.8074  0.2117 -0.9476
   29MOL   H234 9810   0.037   5.577   1.284  1.1588 -1.1152 -1.7553
   29MOL   H235 9811   7.989   5.688   1.498 -0.7027 -1.2379 -0.7243
   29MOL   H236 9812   7.827   5.931   1.304 -0.6876 -2.0852  1.8190
   29MOL   H237 9813   7.912   6.002   1.074 -1.0873 -0.3395 -0.0946
   29MOL   H238 9814   0.184   5.734   0.852 -1.3108 -3.4641  0.0528
   29MOL   H239 9815   0.001   5.708   0.844 -0.3969  1.3370  1.1233
   29MOL   C240 9816   0.088   5.823   0.690  0.5878 -0.1264 -0.2915
   29MOL   C241 9817   0.176   5.731   0.606 -0.4612 -0.1258 -0.4108
   29MOL   C242 9818   0.129   5.613   0.543 -0.3801  0.3997 -0.0040
   29MOL   C243 9819   0.219   5.528   0.476 -0.2660 -0.6411 -0.3203
   29MOL   C244 9820   0.357   5.563   0.465 -0.0159  0.4460 -0.3956
   29MOL   O245 9821   0.447   5.480   0.401  0.3963  0.1991  0.2531
   29MOL   C246 9822   0.403   5.679   0.529  0.7396 -0.6372  0.5585
   29MOL   C247 9823   0.311   5.765   0.598  0.7264  0.6529  0.6074
   29MOL   C248 9824   7.986   5.846   0.636 -0.2651  0.4851  0.0997
   29MOL   H249 9825   0.133   5.921   0.698 -0.3436  0.1962  1.1194
   29MOL   H250 9826   0.025   5.583   0.553 -0.6286  1.6143  1.3588
   29MOL   H251 9827   0.169   5.440   0.441 -1.1423 -0.5389  0.6437
   29MOL   H252 9828   0.401   5.409   0.358  1.6596  0.0853 -0.9490
   29MOL   H253 9829   0.509   5.700   0.524  0.4857  0.3837 -0.7513
   29MOL   H254 9830   0.360   5.853   0.638  0.8321  1.0885 -0.4704
   29MOL   H255 9831   7.927   5.755   0.631  2.1622 -1.0541 -1.4921
   29MOL   H256 9832   7.925   5.914   0.695  0.9198  2.1135 -0.5093
   29MOL   C257 9833   7.976   5.885   0.483  0.2133 -0.2123 -0.1034
   29MOL   C258 9834   7.842   5.864   0.415 -0.3986  1.1270 -0.1557
   29MOL   C259 9835   7.723   5.926   0.453 -0.5670  0.2073  0.1221
   29MOL   C260 9836   7.609   5.904   0.381  0.3611 -0.8026  0.3535
   29MOL   C261 9837   7.609   5.814   0.278  0.0140 -0.0782 -0.5666
   29MOL   O262 9838   7.500   5.792   0.204  0.0645  0.2530 -0.2621
   29MOL   C263 9839   7.730   5.746   0.235 -1.0224  0.1650  0.3970
   29MOL   C264 9840   7.849   5.772   0.308 -0.1740  0.2447 -0.5038
   29MOL   C265 9841   8.021   6.032   0.455 -0.4913 -0.2619 -1.1888
   29MOL   H266 9842   0.020   5.828   0.437 -1.6419 -2.9148 -0.2216
   29MOL   H267 9843   7.725   6.000   0.532  0.6485 -2.5046  2.7399
   29MOL   H268 9844   7.516   5.957   0.396  2.1090  2.3389  0.5210
   29MOL   H269 9845   7.417   5.793   0.251  0.3773  2.5900  0.2806
   29MOL   H270 9846   7.744   5.679   0.151 -1.0597 -0.2215  0.6991
   29MOL   H271 9847   7.942   5.735   0.267 -1.8284 -3.0969 -1.4813
   29MOL   H272 9848   0.080   6.048   0.501 -0.4053  0.1163 -1.4978
   29MOL   H273 9849   7.961   6.102   0.513  0.1249  0.4601 -1.4143
   29MOL   C274 9850   8.020   6.091   0.308 -0.8545 -0.6764 -0.6205
   29MOL   C275 9851   0.049   5.989   0.212  0.3953 -0.2274  0.4683
   29MOL   C276 9852   8.025   5.927   0.099  0.2098  0.2832  0.4101
   29MOL   C277 9853   0.052   5.824   0.032  0.3058  0.7907  0.2869
   29MOL   C278 9854   0.183   5.787   0.067  0.2063 -0.3110  0.3175
   29MOL   O279 9855   0.248   5.692   8.035 -0.0807  0.2221 -0.4262
   29MOL   C280 9856   0.245   5.853   0.172  0.1082  0.3744  0.5959
   29MOL   C281 9857   0.179   5.956   0.242  0.0664 -0.1866 -0.2866
   29MOL   C282 9858   0.032   6.236   0.303 -0.5942  0.0403  0.1642
   29MOL   H283 9859   7.916   6.087   0.275 -0.4158  0.2366 -2.1904
   29MOL   H284 9860   7.926   5.961   0.072 -0.1139  0.5695  1.9369
   29MOL   H285 9861   0.003   5.769   7.991  0.7960  2.4562 -1.2067
   29MOL   H286 9862   0.337   5.693   0.029 -0.8307  0.8542  1.7252
   29MOL   H287 9863   0.347   5.822   0.189  0.9681  2.0914 -1.2581
   29MOL   H288 9864   0.227   6.007   0.324  1.2721  0.7701 -1.5520
   29MOL   H289 9865   0.136   6.249   0.332 -0.9369 -0.4156  1.6382
   29MOL   H290 9866   0.036   6.276   0.202  0.0759  0.7368  0.4599
   29MOL   C291 9867   7.999   6.356   0.387 -0.2203  0.2857  0.4571
   29MOL   C292 9868   7.848   6.338   0.374  0.4272 -0.1985  0.1436
   29MOL   C293 9869   7.769   6.282   0.484 -0.0104 -0.3640  0.3422
   29MOL   C294 9870   7.636   6.236   0.460  0.1563  0.5929  0.0218
   29MOL   C295 9871   7.577   6.244   0.331  0.4562  0.7873  0.7420
   29MOL   O296 9872   7.448   6.207   0.322  0.4108 -0.0445 -0.3468
   29MOL   C297 9873   7.645   6.310   0.230 -0.3194 -0.2578  0.2457
   29MOL   C298 9874   7.776   6.361   0.255 -0.0001 -0.5487 -0.4351
   29MOL   C299 9875   0.015   6.494   0.352 -0.5138 -0.7503  0.0154
   29MOL   H300 9876   8.030   6.349   0.492 -0.6168 -0.8838  0.5064
   29MOL   H301 9877   7.811   6.275   0.583 -0.2387 -0.7697  0.4105
   29MOL   H302 9878   7.593   6.166   0.530  2.3001 -0.0112  0.7966
   29MOL   H303 9879   7.415   6.129   0.361  0.8932  0.2184  0.5976
   29MOL   H304 9880   7.585   6.322   0.141  0.6276 -3.4296 -0.8910
   29MOL   H305 9881   7.836   6.410   0.180  0.0343  3.2966  1.9837
   29MOL   H306 9882   7.980   6.566   0.390 -2.1240 -2.7848  0.8582
   29MOL   H307 9883   0.004   6.499   0.243  0.3321 -1.7823 -0.1205
   29MOL   C308 9884   0.160   6.536   0.391  0.4482 -0.1025 -0.5191
   29MOL   C309 9885   0.170   6.558   0.544 -0.0720  0.4235 -0.1675
   29MOL   C310 9886   0.071   6.608   0.635  0.0054  0.2272  0.4637
   29MOL   C311 9887   0.098   6.616   0.774 -0.0018  0.1594  0.5511
   29MOL   C312 9888   0.226   6.575   0.822  0.0323 -0.1390  0.2587
   29MOL   O313 9889   0.243   6.574   0.956  0.3494 -0.1852 -0.0821
   29MOL   C314 9890   0.327   6.528   0.731 -0.2817  0.3795  0.2567
   29MOL   C315 9891   0.295   6.513   0.596  0.1954 -0.1086 -0.2680
   29MOL   C316 9892   0.215   6.651   0.304 -0.3636  0.3138  0.4665
   29MOL   H317 9893   0.222   6.449   0.368  2.4613  1.3858 -0.8604
   29MOL   H318 9894   8.021   6.652   0.588  0.0315  2.0001  2.0141
   29MOL   H319 9895   0.013   6.643   0.834  0.3498  2.2967  0.1406
   29MOL   H320 9896   0.162   6.546   0.995  0.1957 -1.2288 -1.1116
   29MOL   H321 9897   0.423   6.500   0.772  0.1351  2.7369  1.0104
   29MOL   H322 9898   0.373   6.477   0.530 -0.2911 -0.8142 -0.4670
   29MOL   H323 9899   0.307   6.685   0.351  1.4501 -2.2841 -1.0747
   29MOL   H324 9900   0.146   6.735   0.307 -1.1442 -0.3457  1.6151
   29MOL   C325 9901   0.242   6.618   0.162 -0.1564  0.3964  0.4012
   29MOL   C326 9902   0.358   6.522   0.139 -0.5654  0.7403 -1.0857
   29MOL   C327 9903   0.333   6.424   0.041  0.0184 -0.6600 -0.2863
   29MOL   C328 9904   0.430   6.332   0.001 -0.0866  0.2829  0.3060
   29MOL   C329 9905   0.560   6.342   0.061  0.0387 -0.1903  0.3906
   29MOL   O330 9906   0.652   6.251   0.016 -0.2901  0.0788  0.0592
   29MOL   C331 9907   0.592   6.446   0.144  0.5323  0.1738  0.5125
   29MOL   C332 9908   0.490   6.539   0.184 -0.3101 -0.1265  0.1246
   29MOL   C333 9909   0.269   6.744   0.074 -0.3856  0.0809  0.5791
   29MOL   H334 9910   0.146   6.587   0.121 -0.5186  0.6407  1.0702
   29MOL   H335 9911   0.235   6.400   0.001 -2.9456  3.0629  4.1636
   29MOL   H336 9912   0.418   6.251   7.969  0.7060 -0.7858  1.3888
   29MOL   H337 9913   0.741   6.273   0.037 -1.0073  2.0637  1.1063
   29MOL   H338 9914   0.693   6.451   0.183  0.4599 -1.9806  1.0169
   29MOL   H339 9915   0.517   6.608   0.263 -2.0759 -0.5337  1.0991
   29MOL   H340 9916   0.248   6.726   8.006 -2.2954  0.9666  0.7769
   29MOL   H341 9917   0.367   6.791   0.084  0.5874 -1.6407 -0.6713
   29MOL   H342 9918   0.203   6.823   0.111  0.7614  2.1817 -1.6750
   30MOL     C1 9919   7.635   6.741   2.494 -0.4028  0.0710 -0.0924
   30MOL     C2 9920   7.696   6.849   2.578  0.4675  0.1820  0.2276
   30MOL     C3 9921   7.781   6.944   2.521  0.2308 -0.7950 -0.1355
   30MOL     C4 9922   7.852   7.039   2.599  0.7367 -0.0603 -0.1599
   30MOL     C5 9923   7.839   7.034   2.738 -0.5478  0.1298 -0.3638
   30MOL     O6 9924   7.912   7.128   2.810 -0.5532  0.1349 -0.1694
   30MOL     C7 9925   7.754   6.941   2.802 -0.3734 -0.3508 -0.0152
   30MOL     C8 9926   7.681   6.848   2.720  0.6710 -0.0124  0.3141
   30MOL     C9 9927   7.492   6.778   2.438  0.7051 -0.7540 -0.4159
   30MOL    H10 9928   7.705   6.706   2.418  0.1407  0.9511 -0.0087
   30MOL    H11 9929   7.804   6.942   2.416  1.6187  0.1571  0.1383
   30MOL    H12 9930   7.926   7.097   2.546  0.6137  1.3240  1.1273
   30MOL    H13 9931   7.934   7.094   2.895 -2.0118  0.3229  0.2888
   30MOL    H14 9932   7.739   6.943   2.908 -0.6213 -0.2304 -0.0533
   30MOL    H15 9933   7.614   6.778   2.768  0.3803 -0.3054 -0.5085
   30MOL    H16 9934   7.424   6.812   2.515  1.4673 -1.1387  0.4353
   30MOL    H17 9935   7.460   6.682   2.398 -0.5884  0.6419 -2.8503
   30MOL    H18 9936   7.618   6.652   2.555  2.3269 -1.4769 -1.4518
   30MOL    C19 9937   7.479   6.875   2.312 -0.4621  0.1237  0.3122
   30MOL    C20 9938   7.458   7.020   2.352 -0.4161  0.1997 -0.4701
   30MOL    C21 9939   7.345   7.062   2.429 -0.7639  0.5559  0.2037
   30MOL    C22 9940   7.321   7.198   2.438  0.2271  0.2685 -0.3131
   30MOL    C23 9941   7.417   7.287   2.398  0.2539  0.0073  0.2215
   30MOL    O24 9942   7.405   7.421   2.419 -0.2349 -0.3230 -0.3072
   30MOL    C25 9943   7.528   7.250   2.320  0.0829  0.2408  0.6771
   30MOL    C26 9944   7.557   7.117   2.315 -0.4222  0.8027  0.5910
   30MOL    C27 9945   7.359   6.830   2.219  0.1141 -1.0397  0.0483
   30MOL    H28 9946   7.566   6.859   2.249 -0.6368 -0.4288  0.2040
   30MOL    H29 9947   7.275   6.988   2.464  0.3557 -0.7715 -0.3243
   30MOL    H30 9948   7.235   7.233   2.494 -0.1962 -0.6331 -0.3752
   30MOL    H31 9949   7.450   7.432   2.501  0.1409 -1.7733 -0.3025
   30MOL    H32 9950   7.598   7.314   2.269  0.9313 -0.5709  0.8058
   30MOL    H33 9951   7.640   7.084   2.256  0.7104  0.4347  2.3685
   30MOL    H34 9952   7.265   6.848   2.272 -0.2019 -0.1500 -0.7939
   30MOL    H35 9953   7.374   6.722   2.219 -0.5111 -1.1359  1.0005
   30MOL    C36 9954   7.363   6.898   2.080 -0.1564 -0.7426 -0.5769
   30MOL    C37 9955   7.221   6.936   2.034  0.3128  0.0520 -0.3134
   30MOL    C38 9956   7.139   6.840   1.973 -0.3476  0.6255 -1.0100
   30MOL    C39 9957   7.018   6.880   1.911  0.9068 -0.2522 -0.4189
   30MOL    C40 9958   6.982   7.015   1.893  0.8802  0.1765 -0.8497
   30MOL    O41 9959   6.868   7.058   1.829 -0.4421  0.6821  0.3003
   30MOL    C42 9960   7.070   7.108   1.951  0.6334 -0.0193 -0.3599
   30MOL    C43 9961   7.187   7.075   2.017 -0.2982 -0.6747  0.7330
   30MOL    C44 9962   7.445   6.822   1.972 -0.0755 -0.3890 -0.1796
   30MOL    H45 9963   7.408   6.997   2.092 -0.0839 -0.9425  0.9441
   30MOL    H46 9964   7.155   6.734   1.984 -0.6291  0.5144 -1.6746
   30MOL    H47 9965   6.951   6.800   1.883  0.8576 -0.6012  0.6935
   30MOL    H48 9966   6.806   6.989   1.818  0.2612  0.4672 -2.8736
   30MOL    H49 9967   7.042   7.210   1.934 -0.6921 -0.0172  1.6479
   30MOL    H50 9968   7.255   7.148   2.060  1.3539 -1.5927 -0.2631
   30MOL    H51 9969   7.538   6.786   2.016  0.8535  1.7493 -0.3534
   30MOL    H52 9970   7.378   6.740   1.948 -0.8262  0.1136  0.1906
   30MOL    C53 9971   7.483   6.909   1.845  0.0849 -0.1706 -0.5560
   30MOL    C54 9972   7.545   7.041   1.884 -0.1459  0.5206 -0.0715
   30MOL    C55 9973   7.488   7.158   1.838 -0.2180  0.5638 -0.2598
   30MOL    C56 9974   7.538   7.286   1.879 -0.0624  0.4717  0.1845
   30MOL    C57 9975   7.649   7.293   1.964  0.5135  0.2570  0.9662
   30MOL    O58 9976   7.686   7.412   2.021  0.5905  0.5792  0.1179
   30MOL    C59 9977   7.708   7.174   2.004  0.4744  0.5705  0.0211
   30MOL    C60 9978   7.656   7.049   1.966 -0.5935  0.1863  0.0633
   30MOL    C61 9979   7.577   6.822   1.752  0.2768  0.3306  0.0977
   30MOL    H62 9980   7.390   6.939   1.795 -0.1746  0.0546  0.0515
   30MOL    H63 9981   7.401   7.156   1.774 -1.1739  0.5677  1.0075
   30MOL    H64 9982   7.487   7.380   1.866 -2.7389 -0.8156  1.1625
   30MOL    H65 9983   7.607   7.457   2.047 -1.0868 -2.5687  0.6335
   30MOL    H66 9984   7.793   7.171   2.071  0.0667 -0.2952  0.4906
   30MOL    H67 9985   7.711   6.963   2.001 -0.5889 -0.1961 -0.8646
   30MOL    H68 9986   7.615   6.735   1.806 -1.1090 -1.5866 -1.8948
   30MOL    H69 9987   7.655   6.889   1.717 -1.2471  1.8615 -0.4443
   30MOL    C70 9988   7.503   6.769   1.621 -0.1629 -0.3366 -0.2941
   30MOL    C71 9989   7.372   6.690   1.661 -0.3771  0.1355 -0.2802
   30MOL    C72 9990   7.384   6.551   1.710 -0.6936  0.0244 -0.3806
   30MOL    C73 9991   7.271   6.474   1.736 -0.5894 -0.2271  0.2908
   30MOL    C74 9992   7.140   6.531   1.723 -0.6676  0.3210  0.3836
   30MOL    O75 9993   7.025   6.466   1.765  0.4471 -0.0939  0.2397
   30MOL    C76 9994   7.129   6.658   1.656  0.3260  0.4703  0.5448
   30MOL    C77 9995   7.243   6.741   1.633 -0.3710  0.1901  0.6440
   30MOL    C78 9996   7.591   6.674   1.535 -0.6832  0.2724  0.5386
   30MOL    H79 9997   7.473   6.852   1.557  2.2316 -0.2902 -1.4275
   30MOL    H80 9998   7.479   6.505   1.732 -0.2413  0.5046 -1.3135
   30MOL    H81 9999   7.270   6.374   1.777  0.3967 -0.4612 -0.2606
   30MOL    H8210000   7.048   6.374   1.770  1.2044 -0.0219 -1.5438
   30MOL    H8310001   7.027   6.688   1.636  0.6648  0.7188 -0.8776
   30MOL    H8410002   7.225   6.832   1.577  0.4468  1.0325  1.7229
   30MOL    H8510003   7.530   6.620   1.462 -1.1790 -1.6149  2.2922
   30MOL    H8610004   7.623   6.592   1.598  2.0627  1.8518  1.2580
   30MOL    C8710005   7.708   6.749   1.458  0.6677  1.1701  0.2568
   30MOL    C8810006   7.683   6.777   1.307 -0.3680 -0.4956 -0.4870
   30MOL    C8910007   7.711   6.905   1.258 -0.2796  0.5854  0.5724
   30MOL    C9010008   7.713   6.932   1.122  0.1223  0.8488  0.9491
   30MOL    C9110009   7.672   6.836   1.026 -0.5240  0.6073  0.3423
   30MOL    O9210010   7.674   6.863   0.891  0.2125  0.0005 -0.3411
   30MOL    C9310011   7.622   6.713   1.077 -0.5441 -0.0317  0.0233
   30MOL    C9410012   7.634   6.685   1.216 -0.3600  0.1158 -0.1099
   30MOL    C9510013   7.842   6.675   1.470 -0.3960  0.0988 -0.4898
   30MOL    H9610014   7.725   6.847   1.503  0.9657  0.7420  1.0787
   30MOL    H9710015   7.752   6.977   1.327 -0.3440  1.0308  0.1511
   30MOL    H9810016   7.743   7.027   1.080 -1.1044  0.2616 -1.3700
   30MOL    H9910017   7.700   6.950   0.864  1.6536  0.7330  3.2260
   30MOL   H10010018   7.577   6.647   1.006 -0.1971 -1.1871  0.8689
   30MOL   H10110019   7.600   6.588   1.248  1.7132 -1.0246 -1.2477
   30MOL   H10210020   7.837   6.588   1.404  0.9297 -0.5921  0.2923
   30MOL   H10310021   7.922   6.729   1.419 -0.6776  1.1949  0.2303
   30MOL   C10410022   7.881   6.612   1.602  0.0088 -0.3253 -0.1096
   30MOL   C10510023   8.026   6.646   1.635 -0.1627 -0.6168  0.0471
   30MOL   C10610024   0.101   6.574   1.585  0.6967 -0.2032  0.4475
   30MOL   C10710025   0.232   6.605   1.610  0.3314 -0.3643  0.4720
   30MOL   C10810026   0.261   6.725   1.678 -0.5796 -0.5516  0.0699
   30MOL   O10910027   0.391   6.760   1.704 -0.1047 -0.0050 -0.0116
   30MOL   C11010028   0.159   6.800   1.731  0.0101 -0.4385  0.1787
   30MOL   C11110029   0.024   6.764   1.706 -0.1634 -0.4278  0.5697
   30MOL   C11210030   7.863   6.459   1.598  0.3866 -0.9287 -0.3991
   30MOL   H11310031   7.818   6.647   1.684 -0.5526 -2.2383  0.3112
   30MOL   H11410032   0.084   6.484   1.527  2.0380  0.3497 -0.8124
   30MOL   H11510033   0.310   6.533   1.591  1.4467  1.0593 -0.4177
   30MOL   H11610034   0.456   6.706   1.662 -0.2048  0.4945 -0.8202
   30MOL   H11710035   0.172   6.895   1.781  1.2373 -0.4896 -0.0409
   30MOL   H11810036   7.986   6.832   1.745 -2.4851 -2.2066 -0.7157
   30MOL   H11910037   7.925   6.428   1.514  1.4507  0.2716 -0.0718
   30MOL   H12010038   7.762   6.430   1.568  0.2189 -0.0774 -0.6830
   30MOL   C12110039   7.900   6.377   1.724 -0.4479 -0.5059  0.2216
   30MOL   C12210040   7.840   6.425   1.857  0.1756 -0.0013  0.7193
   30MOL   C12310041   7.707   6.425   1.883 -0.4050  0.1493  0.1215
   30MOL   C12410042   7.656   6.469   2.004  0.6771  0.2760  0.1446
   30MOL   C12510043   7.747   6.496   2.108 -0.2044 -0.1508  0.7365
   30MOL   O12610044   7.693   6.523   2.229  0.0665  0.1135  0.2014
   30MOL   C12710045   7.887   6.494   2.090 -0.2227  0.1923 -0.4798
   30MOL   C12810046   7.927   6.456   1.961  0.3371 -0.1437 -0.4638
   30MOL   C12910047   7.861   6.229   1.707 -0.0183 -0.4235  0.0077
   30MOL   H13010048   8.008   6.391   1.734 -0.4535  0.6146 -1.1911
   30MOL   H13110049   7.640   6.399   1.803  1.6148 -0.3180 -1.4601
   30MOL   H13210050   7.551   6.481   2.026  0.4594  1.2083 -1.2853
   30MOL   H13310051   7.635   6.455   2.260 -0.4081  1.6165  2.7157
   30MOL   H13410052   7.959   6.506   2.169  1.1713 -4.1591 -0.9651
   30MOL   H13510053   8.032   6.435   1.950  0.9211  0.9992  2.3083
   30MOL   H13610054   7.754   6.214   1.719  0.1311  1.0107  3.5678
   30MOL   H13710055   7.908   6.186   1.795  0.4613 -0.4644 -0.2648
   30MOL   C13810056   7.918   6.159   1.582  0.7290 -0.2203  1.0425
   30MOL   C13910057   7.818   6.147   1.470  0.2048  0.0124  0.5015
   30MOL   C14010058   7.703   6.069   1.489 -1.2815  0.6287  0.5871
   30MOL   C14110059   7.602   6.069   1.395  0.7695  0.5008  0.4242
   30MOL   C14210060   7.626   6.127   1.264 -0.2022  0.1542  0.1898
   30MOL   O14310061   7.549   6.095   1.161  0.1057 -0.6154  0.0693
   30MOL   C14410062   7.736   6.219   1.250 -0.0427  0.4565  0.0911
   30MOL   C14510063   7.834   6.220   1.351 -0.4474 -0.1674 -0.5277
   30MOL   C14610064   7.990   6.025   1.608  0.2087 -0.3306  0.6032
   30MOL   H14710065   7.994   6.226   1.542 -1.0815  0.3557 -1.5894
   30MOL   H14810066   7.697   6.017   1.583 -0.6826  1.6577  1.2039
   30MOL   H14910067   7.519   6.005   1.422 -0.2011  0.3183 -2.7656
   30MOL   H15010068   7.567   6.142   1.081 -1.2702  3.1315  1.8204
   30MOL   H15110069   7.759   6.255   1.151  0.5649 -1.7551 -0.6040
   30MOL   H15210070   7.922   6.279   1.331 -0.0363 -1.2344 -1.9127
   30MOL   H15310071   7.996   5.985   1.506 -2.3895 -2.0220  1.0609
   30MOL   H15410072   7.918   5.958   1.655 -2.3054  2.2584  0.6193
   30MOL   C15510073   0.091   6.048   1.685  0.2445 -0.3474  0.2205
   30MOL   C15610074   0.198   6.110   1.587  0.2056  0.0129  1.0640
   30MOL   C15710075   0.200   6.089   1.444 -0.0507 -0.5039 -0.0902
   30MOL   C15810076   0.284   6.167   1.366 -0.5881  0.5320  0.2066
   30MOL   C15910077   0.368   6.270   1.417  0.1953 -1.5206  0.2960
   30MOL   O16010078   0.447   6.350   1.342 -0.2699 -0.3141  0.1357
   30MOL   C16110079   0.373   6.286   1.555 -0.3837  0.3860 -0.2065
   30MOL   C16210080   0.287   6.211   1.636 -0.1168 -0.1524  0.0930
   30MOL   C16310081   0.152   5.921   1.751 -1.0701 -0.1325 -0.9698
   30MOL   H16410082   0.078   6.122   1.764  0.8996  0.3097 -0.2811
   30MOL   H16510083   0.142   6.007   1.405  0.3398 -0.9820  0.3272
   30MOL   H16610084   0.281   6.145   1.261  1.1643  0.2965  0.1855
   30MOL   H16710085   0.532   6.372   1.377  0.0630  0.8490 -1.3415
   30MOL   H16810086   0.429   6.364   1.604 -0.6273 -0.9228  2.2437
   30MOL   H16910087   0.286   6.226   1.743  1.6262 -3.1426  0.5780
   30MOL   H17010088   0.247   5.952   1.794 -1.2133 -1.2736  0.1991
   30MOL   H17110089   0.201   5.855   1.679 -0.1106  1.5010 -1.8282
   30MOL   C17210090   0.067   5.837   1.850  0.0088  0.2143 -0.0261
   30MOL   C17310091   7.995   5.913   1.931  0.6809 -0.0816  0.0413
   30MOL   C17410092   7.859   5.881   1.914 -0.1513 -0.3509 -0.0576
   30MOL   C17510093   7.764   5.961   1.968  0.0381  0.4172 -1.0780
   30MOL   C17610094   7.801   6.084   2.035  0.0869  0.4729  0.2779
   30MOL   O17710095   7.700   6.168   2.067 -0.1664  0.0111 -0.2210
   30MOL   C17810096   7.936   6.112   2.060 -0.4230  0.3516  0.0790
   30MOL   C17910097   8.036   6.021   2.016 -0.1825 -0.3533 -0.0814
   30MOL   C18010098   0.162   5.744   1.939 -0.1297 -0.4040  0.4934
   30MOL   H18110099   0.017   5.776   1.774  0.6938 -0.6286  0.1983
   30MOL   H18210100   7.826   5.804   1.845  1.0386 -0.5512 -0.4177
   30MOL   H18310101   7.661   5.931   1.956  0.7134 -1.9437 -1.2576
   30MOL   H18410102   7.733   6.256   2.052 -0.0793 -0.2453 -1.5805
   30MOL   H18510103   7.961   6.202   2.113  1.1659 -0.3705  0.5883
   30MOL   H18610104   0.102   6.045   2.032  0.2851 -0.1256 -3.1015
   30MOL   H18710105   0.192   5.814   2.017 -1.7007 -1.6256  2.2421
   30MOL   H18810106   0.252   5.717   1.885 -1.9362 -2.8395 -1.3737
   30MOL   C18910107   0.098   5.623   1.997  0.1059 -0.2051  0.5183
   30MOL   C19010108   0.049   5.541   1.884 -0.0477  0.5090 -0.0088
   30MOL   C19110109   0.136   5.464   1.799  0.1094 -0.0320  0.0163
   30MOL   C19210110   0.083   5.395   1.690  0.3295  0.5223 -0.2545
   30MOL   C19310111   7.980   5.395   1.668  0.5934  0.0192  0.4692
   30MOL   O19410112   7.925   5.332   1.559 -0.6989 -0.1206 -0.2415
   30MOL   C19510113   7.895   5.460   1.760 -0.9936  0.1608  0.0203
   30MOL   C19610114   7.950   5.536   1.864  0.0038  1.6816  0.0989
   30MOL   C19710115   0.187   5.545   2.100 -0.1001 -0.6386 -0.2755
   30MOL   H19810116   0.009   5.659   2.049  0.5405  1.5649  0.0497
   30MOL   H19910117   0.244   5.468   1.805  0.1975 -2.2891  0.5159
   30MOL   H20010118   0.154   5.344   1.626  0.3835  0.2478  0.0187
   30MOL   H20110119   7.978   5.273   1.507  2.2859  3.0108 -0.9307
   30MOL   H20210120   7.789   5.473   1.745 -0.7869  0.6039 -1.0735
   30MOL   H20310121   7.880   5.579   1.934  0.2620 -0.6881  1.8642
   30MOL   H20410122   0.211   5.610   2.184 -1.0235 -0.5909 -0.0459
   30MOL   H20510123   0.284   5.531   2.053 -0.8962 -2.8374 -1.3206
   30MOL   C20610124   0.129   5.410   2.148  0.3620  0.5965 -0.9332
   30MOL   C20710125   0.056   5.423   2.283 -0.7994  0.3175 -0.7263
   30MOL   C20810126   0.124   5.479   2.394 -0.1499 -0.4183 -0.2297
   30MOL   C20910127   0.059   5.465   2.523 -0.4122 -0.4949  0.3582
   30MOL   C21010128   7.976   5.408   2.536  0.1748  0.2911  0.3212
   30MOL   O21110129   7.929   5.391   2.665 -0.0911  0.3618  0.1224
   30MOL   C21210130   7.899   5.375   2.422 -0.4217  0.1533 -0.5151
   30MOL   C21310131   7.955   5.384   2.294 -0.1653 -0.6304 -0.2975
   30MOL   C21410132   0.232   5.290   2.156 -0.5919  0.0272  0.2471
   30MOL   H21510133   0.058   5.378   2.073  1.0422 -1.9800 -0.5267
   30MOL   H21610134   0.226   5.513   2.386  0.2045 -1.8601 -2.2962
   30MOL   H21710135   0.109   5.498   2.613  0.3359 -1.6061  0.3511
   30MOL   H21810136   7.985   5.427   2.732  0.2792 -0.0451  0.0338
   30MOL   H21910137   7.800   5.330   2.420 -0.5728  0.2738  2.5216
   30MOL   H22010138   7.907   5.347   2.205 -1.7017 -0.0843  0.2930
   30MOL   H22110139   0.288   5.306   2.248 -0.5840 -0.2155  0.2851
   30MOL   H22210140   0.308   5.300   2.079  1.8781 -2.2204  2.3104
   30MOL   C22310141   0.186   5.143   2.149  0.0525  0.1059  0.1307
   30MOL   C22410142   0.260   5.055   2.252  0.2486  0.0194 -0.2608
   30MOL   C22510143   0.400   5.059   2.248 -0.3400  0.2162  0.2139
   30MOL   C22610144   0.475   4.978   2.336  0.2474 -0.6338 -0.5399
   30MOL   C22710145   0.405   4.888   2.422  0.4343 -0.5318 -0.1436
   30MOL   O22810146   0.473   4.797   2.502 -0.3690  0.0923  0.2637
   30MOL   C22910147   0.265   4.883   2.419 -0.3411  0.0025  0.8400
   30MOL   C23010148   0.193   4.969   2.331 -0.2591 -0.0264 -0.0266
   30MOL   C23110149   0.176   5.069   2.008 -0.5649 -0.4704 -0.0211
   30MOL   H23210150   0.081   5.140   2.178 -0.0561 -3.7423 -0.4447
   30MOL   H23310151   0.445   5.121   2.171  0.3735 -0.3591  0.1560
   30MOL   H23410152   0.582   4.977   2.323  0.1814 -0.5343 -1.0647
   30MOL   H23510153   0.567   4.807   2.494 -0.5978  0.7341 -2.1321
   30MOL   H23610154   0.222   4.810   2.485  0.3465  0.0162  1.3081
   30MOL   H23710155   0.085   4.962   2.328 -0.4236  0.6518  2.7443
   30MOL   H23810156   0.181   5.137   1.923  3.4031 -0.4432  0.1599
   30MOL   H23910157   0.270   5.016   1.993  0.4500  1.4217 -0.4734
   30MOL   C24010158   0.059   4.976   2.007 -0.1388  0.7447  0.3590
   30MOL   C24110159   7.959   5.053   2.003  0.4070  0.4805 -0.1733
   30MOL   C24210160   7.928   5.126   1.886  0.4218 -0.1484  0.2864
   30MOL   C24310161   7.799   5.182   1.875  0.5794 -0.2423 -0.1723
   30MOL   C24410162   7.711   5.184   1.983  0.1608 -0.6111  0.0970
   30MOL   O24510163   7.592   5.250   1.979 -0.4322  0.3319 -0.3189
   30MOL   C24610164   7.746   5.114   2.101  0.0518 -0.0258 -0.5487
   30MOL   C24710165   7.865   5.048   2.109  0.0280 -0.2182 -0.0862
   30MOL   C24810166   0.086   4.879   1.894  0.0453 -0.2240  0.1170
   30MOL   H24910167   0.060   4.914   2.096 -2.4257 -1.4391 -1.1042
   30MOL   H25010168   7.983   5.129   1.793 -2.6485  0.6569 -1.5725
   30MOL   H25110169   7.758   5.221   1.783  2.0853 -3.0195 -2.0973
   30MOL   H25210170   7.540   5.217   2.050 -1.0651 -0.5719 -1.1803
   30MOL   H25310171   7.675   5.104   2.182 -0.4832 -1.9060 -1.2114
   30MOL   H25410172   7.887   4.986   2.194  0.6412  0.5041  0.2808
   30MOL   H25510173   0.095   4.945   1.808 -0.2646  0.8375  0.8893
   30MOL   H25610174   0.180   4.824   1.900  0.7444  0.7136 -1.9162
   30MOL   C25710175   8.008   4.784   1.867  0.4963 -0.6833 -0.2593
   30MOL   C25810176   7.996   4.745   1.724  0.3546 -0.3261  0.0220
   30MOL   C25910177   0.037   4.647   1.665  0.5953 -0.4178  0.2040
   30MOL   C26010178   0.013   4.612   1.524  0.0032 -0.1391  0.2991
   30MOL   C26110179   7.973   4.687   1.441  0.4900 -0.5112 -0.0108
   30MOL   O26210180   7.972   4.676   1.307  0.0981  0.5116 -0.0554
   30MOL   C26310181   7.903   4.796   1.502  0.2712 -0.4016  0.7779
   30MOL   C26410182   7.912   4.820   1.639  0.2178 -0.5247  0.5177
   30MOL   C26510183   8.002   4.656   1.962 -0.1473 -0.1637  0.7412
   30MOL   H26610184   7.917   4.841   1.885  1.2647  1.2836 -2.2273
   30MOL   H26710185   0.097   4.590   1.734 -0.7646 -2.5422 -0.3144
   30MOL   H26810186   0.076   4.535   1.482  1.1701  0.3713  1.0834
   30MOL   H26910187   7.983   4.588   1.274 -3.1710 -0.5118  1.4571
   30MOL   H27010188   7.861   4.875   1.443  0.8876  0.5454  1.5781
   30MOL   H27110189   7.858   4.905   1.678 -1.1067 -1.2987  0.4040
   30MOL   H27210190   7.998   4.692   2.065 -2.1265 -1.9532  1.3216
   30MOL   H27310191   0.051   4.592   1.952 -0.9467 -1.2842  0.9119
   30MOL   C27410192   7.875   4.565   1.938 -0.7484  0.6579  0.8678
   30MOL   C27510193   7.744   4.634   1.976  0.4378 -0.1288 -0.7084
   30MOL   C27610194   7.639   4.644   1.887 -0.7135 -0.2497  0.1017
   30MOL   C27710195   7.514   4.697   1.922 -0.8519  0.8716 -0.1920
   30MOL   C27810196   7.502   4.757   2.048  0.4371 -0.5926 -0.1801
   30MOL   O27910197   7.381   4.820   2.074 -0.1631 -0.2456  0.4804
   30MOL   C28010198   7.610   4.755   2.134  0.6621  0.9361 -0.6411
   30MOL   C28110199   7.730   4.694   2.101  0.4422 -0.3886  0.0735
   30MOL   C28210200   7.885   4.434   2.021  0.2385 -0.1024  0.4870
   30MOL   H28310201   7.879   4.538   1.832  1.7568  4.3669 -0.0874
   30MOL   H28410202   7.645   4.592   1.792 -0.2153  1.0640 -0.5917
   30MOL   H28510203   7.432   4.698   1.852 -1.6567  0.2208  0.7331
   30MOL   H28610204   7.331   4.849   1.998 -1.4251 -0.1882  1.3158
   30MOL   H28710205   7.592   4.790   2.234 -0.3173  1.3179 -0.9434
   30MOL   H28810206   7.805   4.682   2.178 -0.2755  0.1882  0.8699
   30MOL   H28910207   7.909   4.465   2.123  0.4568  0.1917  0.3497
   30MOL   H29010208   7.787   4.390   2.004 -0.2013  0.3379  1.7804
   30MOL   C29110209   7.988   4.315   1.977 -0.1482 -0.3369  1.3656
   30MOL   C29210210   7.940   4.246   1.846 -0.3180  0.4746 -0.4406
   30MOL   C29310211   7.821   4.168   1.842 -0.0956 -0.0886 -0.0614
   30MOL   C29410212   7.781   4.117   1.717  0.1509  0.5326 -0.1690
   30MOL   C29510213   7.854   4.136   1.598  0.5461  0.5165  0.1123
   30MOL   O29610214   7.808   4.077   1.481 -0.1796  0.6328  0.0953
   30MOL   C29710215   7.966   4.217   1.605  0.4092  0.1098 -0.3543
   30MOL   C29810216   8.016   4.259   1.728 -0.0267 -0.0768 -0.2503
   30MOL   C29910217   8.006   4.199   2.082 -0.0665 -0.8114  0.3906
   30MOL   H30010218   0.046   4.362   1.958 -0.3457 -1.0042 -1.6381
   30MOL   H30110219   7.764   4.134   1.928  0.0890  0.7563  0.4047
   30MOL   H30210220   7.688   4.061   1.718  0.3570  0.2081  1.2522
   30MOL   H30310221   7.765   4.000   1.515 -0.6841  1.2817  0.9715
   30MOL   H30410222   8.027   4.246   1.521 -0.8981  1.1876 -0.9467
   30MOL   H30510223   0.069   4.318   1.732 -0.3035  0.3485 -0.2183
   30MOL   H30610224   0.051   4.144   2.039 -0.9113 -2.4137  0.7651
   30MOL   H30710225   7.916   4.137   2.072  0.2736 -1.2707  0.1539
   30MOL   C30810226   8.020   4.236   2.232  0.4536  0.5874  0.6481
   30MOL   C30910227   0.110   4.321   2.261  0.2069  0.3617 -0.2218
   30MOL   C31010228   0.110   4.461   2.285  0.1846  0.3446  0.1035
   30MOL   C31110229   0.231   4.526   2.316 -0.0934 -0.0143 -0.1726
   30MOL   C31210230   0.352   4.460   2.298 -1.0517  0.1264 -0.0753
   30MOL   O31310231   0.467   4.536   2.312  0.9021  0.0450 -0.5189
   30MOL   C31410232   0.359   4.323   2.274  0.1919  0.4738  0.5893
   30MOL   C31510233   0.233   4.255   2.254  0.4130 -0.2324  0.4131
   30MOL   C31610234   8.024   4.119   2.331 -0.1331  0.0266  0.4375
   30MOL   H31710235   7.932   4.292   2.263 -1.2909 -1.3660 -0.7006
   30MOL   H31810236   0.016   4.515   2.289 -0.1400 -0.3144  1.6031
   30MOL   H31910237   0.222   4.632   2.332 -1.1063  0.0742 -1.2956
   30MOL   H32010238   0.446   4.595   2.383  0.5348  0.5368 -1.0311
   30MOL   H32110239   0.457   4.277   2.271  1.2737  2.7602 -0.3285
   30MOL   H32210240   0.234   4.152   2.222  0.0050  0.6396 -2.5632
   30MOL   H32310241   0.082   4.067   2.336  0.7471  1.7094  1.5628
   30MOL   H32410242   7.961   4.045   2.282  1.1369  0.1661 -1.4803
   30MOL   C32510243   7.970   4.146   2.475  0.4511 -0.3007 -0.4135
   30MOL   C32610244   0.003   4.266   2.537  0.9266  0.0271 -0.4175
   30MOL   C32710245   0.138   4.258   2.584  0.0553  0.5212  0.4827
   30MOL   C32810246   0.201   4.367   2.646 -0.2174  1.0088 -0.0820
   30MOL   C32910247   0.125   4.486   2.654 -0.2386 -0.7657 -0.4263
   30MOL   O33010248   0.175   4.601   2.716 -0.0264 -0.5683 -0.1147
   30MOL   C33110249   8.024   4.496   2.612 -0.4132  0.3525 -0.0589
   30MOL   C33210250   7.968   4.383   2.556  0.3573 -0.2102  0.1112
   30MOL   C33310251   7.978   4.022   2.569  0.3821 -0.2455  0.1056
   30MOL   H33410252   7.868   4.183   2.462  0.3522 -0.0652  0.9979
   30MOL   H33510253   0.189   4.165   2.559 -0.9879  0.6627 -2.3502
   30MOL   H33610254   0.304   4.360   2.676  0.2091  2.8983 -1.0148
   30MOL   H33710255   0.116   4.662   2.758  0.2933 -0.1993 -0.1956
   30MOL   H33810256   7.974   4.592   2.618  0.0931  0.6554 -0.6123
   30MOL   H33910257   7.867   4.401   2.522  1.1852  2.2315 -1.1702
   30MOL   H34010258   7.920   3.938   2.531 -1.1964  1.4300 -1.2638
   30MOL   H34110259   7.935   4.055   2.664 -0.5715 -0.3321 -0.2907
   30MOL   H34210260   0.043   3.988   2.587  0.2920 -0.6806 -0.2150
   31MOL     C110261   6.643   7.404   4.862 -0.0896 -0.1253 -0.4835
   31MOL     C210262   6.672   7.537   4.933 -0.9710  0.0806 -0.0969
   31MOL     C310263   6.792   7.554   5.001  0.0614  0.4233  0.1865
   31MOL     C410264   6.813   7.672   5.071 -0.2511  0.1456  0.7778
   31MOL     C510265   6.713   7.774   5.067  0.3081 -0.6153  0.0318
   31MOL     O610266   6.731   7.892   5.137 -0.3442  0.0248 -0.0155
   31MOL     C710267   6.592   7.760   4.991  0.3202 -0.2133 -0.0447
   31MOL     C810268   6.572   7.637   4.931 -0.3456  0.2795 -0.3163
   31MOL     C910269   6.707   7.394   4.720  0.4831  0.5403 -0.3585
   31MOL    H1010270   6.674   7.321   4.924 -0.1661  0.0835 -0.1656
   31MOL    H1110271   6.858   7.470   4.987 -0.9351 -0.4713  0.6920
   31MOL    H1210272   6.900   7.688   5.133 -1.1952 -1.0700  2.4807
   31MOL    H1310273   6.652   7.939   5.159  0.3053  1.1949 -0.1716
   31MOL    H1410274   6.513   7.831   4.970 -0.7096 -1.4362 -0.3563
   31MOL    H1510275   6.477   7.614   4.885 -0.2857  0.1725 -0.3877
   31MOL    H1610276   6.814   7.410   4.722  0.3618  1.3243 -0.1136
   31MOL    H1710277   6.663   7.473   4.658 -0.8480 -0.3620 -0.6014
   31MOL    H1810278   6.535   7.388   4.857  0.0206 -1.2044  0.6801
   31MOL    C1910279   6.677   7.250   4.652 -0.1847 -0.3882  0.1308
   31MOL    C2010280   6.772   7.209   4.540 -0.3079  0.6305 -0.3176
   31MOL    C2110281   6.812   7.307   4.445  0.2432 -0.3630 -0.5498
   31MOL    C2210282   6.911   7.285   4.358 -0.7780  0.1137  0.4150
   31MOL    C2310283   6.975   7.159   4.359 -0.7509 -0.1608  0.0502
   31MOL    O2410284   7.090   7.132   4.293  0.0336  0.0119  0.0571
   31MOL    C2510285   6.922   7.055   4.436 -0.5081 -0.4440  0.2412
   31MOL    C2610286   6.825   7.084   4.536  0.2168 -0.4104 -0.3102
   31MOL    C2710287   6.532   7.240   4.603 -0.0663  0.8210  0.2568
   31MOL    H2810288   6.695   7.180   4.734  0.5278  0.4979  0.7402
   31MOL    H2910289   6.761   7.401   4.461 -2.5532 -1.8902 -0.0635
   31MOL    H3010290   6.944   7.367   4.295 -1.6591  0.2902  0.1698
   31MOL    H3110291   7.136   7.075   4.353  1.5851  0.6705 -0.4843
   31MOL    H3210292   6.976   6.962   4.424 -0.8088 -0.7101  0.9183
   31MOL    H3310293   6.794   7.003   4.600 -1.2559 -0.3969 -0.9706
   31MOL    H3410294   6.522   7.278   4.501 -0.3950  0.1328  0.0276
   31MOL    H3510295   6.467   7.298   4.669  0.1944 -1.1073  2.2719
   31MOL    C3610296   6.451   7.102   4.615  0.9234 -0.2236 -0.2091
   31MOL    C3710297   6.402   7.064   4.477  0.0365  0.1263 -0.1156
   31MOL    C3810298   6.449   6.954   4.407 -0.0241 -0.4368 -0.1352
   31MOL    C3910299   6.405   6.927   4.277 -0.2876 -0.2661 -0.2042
   31MOL    C4010300   6.301   7.004   4.220  0.1710 -0.0016  0.3281
   31MOL    O4110301   6.267   6.987   4.087  0.4854 -0.0400 -0.1543
   31MOL    C4210302   6.259   7.116   4.289 -0.1635 -1.3512  0.1036
   31MOL    C4310303   6.311   7.152   4.415 -0.5289  0.3478 -0.1243
   31MOL    C4410304   6.321   7.100   4.708 -0.3219 -0.2283  0.2543
   31MOL    H4510305   6.520   7.020   4.637  1.4230 -0.0277 -1.0555
   31MOL    H4610306   6.527   6.888   4.444 -0.2714 -1.0129 -0.6228
   31MOL    H4710307   6.448   6.841   4.227 -0.9154 -0.5130 -0.3301
   31MOL    H4810308   6.217   7.058   4.048  2.6544  1.4820 -0.2318
   31MOL    H4910309   6.183   7.184   4.251  0.8205  0.6058  1.5588
   31MOL    H5010310   6.282   7.249   4.452  0.9299  0.9696 -0.5845
   31MOL    H5110311   6.261   7.190   4.705 -2.3001 -1.5025  0.7100
   31MOL    H5210312   6.248   7.025   4.677 -2.6352  1.3940  1.6381
   31MOL    C5310313   6.354   7.070   4.854  0.7417 -0.2883  0.0508
   31MOL    C5410314   6.250   7.122   4.950 -0.0970  0.6399 -0.0235
   31MOL    C5510315   6.288   7.211   5.054 -0.3880  0.3983  0.1938
   31MOL    C5610316   6.197   7.239   5.154  0.2523 -0.4657  0.0724
   31MOL    C5710317   6.070   7.179   5.155 -0.4542 -0.2470 -0.0727
   31MOL    O5810318   5.983   7.214   5.253  0.8445 -0.0891  0.5261
   31MOL    C5910319   6.036   7.088   5.051  0.4584 -0.1154  0.0342
   31MOL    C6010320   6.120   7.059   4.954  0.0535  0.0081  0.0754
   31MOL    C6110321   6.370   6.922   4.880  0.3066 -0.5057  0.1750
   31MOL    H6210322   6.447   7.122   4.878  0.1262  1.2862 -0.9517
   31MOL    H6310323   6.385   7.257   5.061 -1.1984  2.3356 -0.7570
   31MOL    H6410324   6.217   7.310   5.233  0.7488 -1.1332  0.5502
   31MOL    H6510325   5.900   7.169   5.253  0.4610  0.6091  0.9698
   31MOL    H6610326   5.935   7.049   5.044  0.4187  0.2520 -1.5145
   31MOL    H6710327   6.095   6.988   4.877  1.0273  0.4846 -0.6969
   31MOL    H6810328   6.441   6.888   4.804  1.1173  2.0476 -0.2595
   31MOL    H6910329   6.279   6.864   4.865  0.8439 -0.6083 -3.0182
   31MOL    C7010330   6.426   6.889   5.021 -0.0036 -0.3566 -0.4022
   31MOL    C7110331   6.561   6.951   5.061 -0.0208 -1.2074 -0.7666
   31MOL    C7210332   6.581   6.997   5.194 -0.0708 -0.5722  0.5449
   31MOL    C7310333   6.704   7.036   5.239  0.5616  0.5923  0.1016
   31MOL    C7410334   6.813   7.037   5.153  0.2853 -0.2858 -0.6058
   31MOL    O7510335   6.933   7.090   5.196  0.2956  0.3366 -0.3105
   31MOL    C7610336   6.797   6.993   5.022  0.0331 -0.3791 -0.2261
   31MOL    C7710337   6.673   6.953   4.975 -0.3502 -0.9032  0.1205
   31MOL    C7810338   6.434   6.730   5.044 -0.5718 -0.1865 -0.4511
   31MOL    H7910339   6.353   6.927   5.093 -0.5493  1.0644 -1.6712
   31MOL    H8010340   6.496   6.995   5.260  1.1876 -0.1030  2.2139
   31MOL    H8110341   6.713   7.075   5.340  0.9429 -2.0251  1.1274
   31MOL    H8210342   6.996   7.080   5.127  1.4509 -0.9881  0.8981
   31MOL    H8310343   6.874   6.980   4.948 -2.9926 -2.1928 -3.2092
   31MOL    H8410344   6.668   6.909   4.876 -2.5065  0.6765 -0.5144
   31MOL    H8510345   6.511   6.717   5.121 -1.4076  1.7458  0.7358
   31MOL    H8610346   6.485   6.694   4.955 -0.3462  1.8429 -1.1563
   31MOL    C8710347   6.299   6.657   5.090 -0.2618  0.1654  0.0282
   31MOL    C8810348   6.243   6.694   5.222 -0.2554 -0.4732 -0.2864
   31MOL    C8910349   6.124   6.770   5.225 -0.2848  0.2845 -0.2416
   31MOL    C9010350   6.049   6.791   5.343 -0.2085  0.5256 -0.2547
   31MOL    C9110351   6.106   6.746   5.465 -0.7484 -0.3356 -0.0344
   31MOL    O9210352   6.035   6.771   5.585  0.0038  0.1938 -0.1374
   31MOL    C9310353   6.231   6.675   5.467  0.2229 -0.1385 -0.1975
   31MOL    C9410354   6.294   6.650   5.345 -0.2313 -0.1680 -0.2033
   31MOL    C9510355   6.300   6.499   5.065  0.2763  0.5596 -0.4388
   31MOL    H9610356   6.230   6.696   5.014  0.3999 -0.7275 -1.0555
   31MOL    H9710357   6.091   6.820   5.134  0.1831  0.1467 -0.4898
   31MOL    H9810358   5.964   6.858   5.349 -1.5391 -1.1077 -0.4195
   31MOL    H9910359   5.966   6.834   5.577  1.2184  1.7513  1.0947
   31MOL   H10010360   6.278   6.649   5.561  0.0740  0.7885  0.1432
   31MOL   H10110361   6.388   6.597   5.345  1.9289  3.5341 -0.0898
   31MOL   H10210362   6.390   6.463   5.016  1.4913  1.4499  1.1058
   31MOL   H10310363   6.283   6.447   5.159 -1.2722  0.0550 -0.9789
   31MOL   C10410364   6.189   6.446   4.971 -0.3447  0.0812 -0.0116
   31MOL   C10510365   6.214   6.514   4.832  0.4476  0.1341  0.1678
   31MOL   C10610366   6.124   6.615   4.789  0.4644  0.4894  0.6575
   31MOL   C10710367   6.145   6.673   4.667 -0.1694 -0.6952  0.4888
   31MOL   C10810368   6.245   6.622   4.582  0.2074  0.2888  0.6838
   31MOL   O10910369   6.271   6.685   4.466 -0.0348 -0.4041  0.4258
   31MOL   C11010370   6.327   6.516   4.620  0.5676 -0.0320 -0.3936
   31MOL   C11110371   6.318   6.466   4.745  0.5057  0.2835  0.1499
   31MOL   C11210372   6.045   6.449   5.023 -1.1879 -0.0837 -0.2289
   31MOL   H11310373   6.220   6.343   4.957  1.4627  0.5796  0.1600
   31MOL   H11410374   6.049   6.660   4.852 -0.3155  2.1972 -1.4055
   31MOL   H11510375   6.074   6.747   4.634  0.2763 -0.6497 -0.3852
   31MOL   H11610376   6.213   6.760   4.463  1.8517  1.0932  0.3567
   31MOL   H11710377   6.402   6.480   4.552  1.1271  0.3005  0.0431
   31MOL   H11810378   6.389   6.392   4.780  0.8367 -0.0550 -1.2081
   31MOL   H11910379   5.976   6.418   4.945 -0.3635  2.9308 -2.2572
   31MOL   H12010380   6.025   6.555   5.039 -0.7449 -0.3353  2.3563
   31MOL   C12110381   6.014   6.398   5.157  0.6805  0.3328 -0.4504
   31MOL   C12210382   5.886   6.469   5.209  0.1678 -0.2398  0.0434
   31MOL   C12310383   5.881   6.517   5.341  0.7544  0.1353 -0.3153
   31MOL   C12410384   5.783   6.604   5.387  0.5699  0.0790  0.1517
   31MOL   C12510385   5.676   6.633   5.301 -0.7016 -0.5564  0.1476
   31MOL   O12610386   5.576   6.709   5.342 -0.3832 -0.3848  0.8281
   31MOL   C12710387   5.667   6.573   5.172 -0.7485  0.3247 -0.0549
   31MOL   C12810388   5.777   6.495   5.123  0.2032 -0.0217 -0.2245
   31MOL   C12910389   6.002   6.247   5.157  0.4822  0.1335  0.2811
   31MOL   H13010390   6.091   6.427   5.229 -0.4901 -2.4157  2.0332
   31MOL   H13110391   5.955   6.485   5.412  1.4100  1.4749 -0.3834
   31MOL   H13210392   5.788   6.647   5.486 -0.3305  2.3872 -0.7904
   31MOL   H13310393   5.604   6.745   5.424 -0.1834 -0.9881  1.0276
   31MOL   H13410394   5.583   6.583   5.105  0.9742  0.7673 -2.2083
   31MOL   H13510395   5.770   6.457   5.023  0.9879  0.8080 -0.6076
   31MOL   H13610396   6.097   6.206   5.122  0.7238  1.1913 -0.3323
   31MOL   H13710397   5.927   6.231   5.080  1.8043  2.1918 -1.4990
   31MOL   C13810398   5.969   6.173   5.294 -0.0008 -0.2815  0.3336
   31MOL   C13910399   6.067   6.203   5.405  0.0401  0.0430 -0.9037
   31MOL   C14010400   6.205   6.190   5.384  0.4154 -0.5803  0.5211
   31MOL   C14110401   6.292   6.198   5.491 -0.9156  0.1701 -0.1427
   31MOL   C14210402   6.245   6.203   5.618  1.0266  0.5673 -0.3497
   31MOL   O14310403   6.341   6.199   5.718  0.0149 -0.2588 -0.0758
   31MOL   C14410404   6.105   6.215   5.643  0.2993  0.1816  0.0854
   31MOL   C14510405   6.017   6.225   5.533 -0.5392 -0.5753 -0.4636
   31MOL   C14610406   5.976   6.021   5.263 -0.8113  0.2996  0.4265
   31MOL   H14710407   5.871   6.199   5.335 -0.0790  1.6325 -0.9573
   31MOL   H14810408   6.251   6.169   5.289 -1.1761  1.4386 -0.7318
   31MOL   H14910409   6.399   6.197   5.476 -1.0071 -2.4057 -0.9646
   31MOL   H15010410   6.428   6.179   5.690 -0.2478  0.4481 -1.4732
   31MOL   H15110411   6.061   6.223   5.742  0.3802 -1.4784  0.2587
   31MOL   H15210412   5.913   6.241   5.561  0.2580  0.8664  1.8557
   31MOL   H15310413   5.996   5.967   5.356  0.7762  1.8111  0.9887
   31MOL   H15410414   6.072   6.008   5.215 -1.0184  1.0473 -0.1971
   31MOL   C15510415   5.861   5.946   5.196 -0.1572  1.0134  0.3574
   31MOL   C15610416   5.768   6.030   5.111 -0.3184 -0.0303 -0.3507
   31MOL   C15710417   5.786   6.040   4.973  0.2761 -0.0251  0.2361
   31MOL   C15810418   5.705   6.121   4.898  0.2174  0.0110 -0.0927
   31MOL   C15910419   5.594   6.192   4.951 -0.4479  0.3040  0.4470
   31MOL   O16010420   5.525   6.280   4.876 -0.2213 -0.7644 -0.5888
   31MOL   C16110421   5.583   6.190   5.089 -0.0223 -0.1339 -0.1287
   31MOL   C16210422   5.669   6.113   5.171 -0.5433  1.2949 -0.4187
   31MOL   C16310423   5.786   5.826   5.273 -0.5848 -0.2533  0.1493
   31MOL   H16410424   5.916   5.891   5.119 -2.1994 -0.3507 -0.1627
   31MOL   H16510425   5.862   5.980   4.925 -0.4364 -1.0990  0.4418
   31MOL   H16610426   5.716   6.133   4.791 -2.3706 -0.3777 -0.4335
   31MOL   H16710427   5.582   6.301   4.803  1.3732 -0.3262  0.7638
   31MOL   H16810428   5.513   6.258   5.135 -1.2457  0.6026 -2.9441
   31MOL   H16910429   5.647   6.124   5.276  3.5485  0.5725  0.6007
   31MOL   H17010430   5.864   5.755   5.301 -1.0639 -0.5811  0.6541
   31MOL   H17110431   5.715   5.776   5.208  0.0638 -2.0147  0.7574
   31MOL   C17210432   5.716   5.874   5.401  0.5744 -0.2389  0.2103
   31MOL   C17310433   5.802   5.852   5.525 -0.0569 -0.4135 -0.4986
   31MOL   C17410434   5.801   5.949   5.626  0.2903 -0.5532  0.2841
   31MOL   C17510435   5.880   5.933   5.741  0.3194  0.0570  0.2697
   31MOL   C17610436   5.964   5.820   5.753 -0.1847 -0.1491  0.3550
   31MOL   O17710437   6.046   5.805   5.854  0.6037  0.0850  0.8320
   31MOL   C17810438   5.970   5.723   5.649  0.5409  0.2440 -0.0811
   31MOL   C17910439   5.881   5.733   5.544 -0.0408 -0.0370 -0.2103
   31MOL   C18010440   5.586   5.794   5.420  0.7097 -0.2281 -0.2081
   31MOL   H18110441   5.687   5.979   5.402 -2.2298 -0.9507  0.5881
   31MOL   H18210442   5.755   6.044   5.605 -0.0282 -0.3803  1.6753
   31MOL   H18310443   5.887   6.012   5.815 -0.2114  1.0893 -0.7719
   31MOL   H18410444   6.057   5.888   5.898 -2.1056  0.5795  0.6481
   31MOL   H18510445   6.056   5.659   5.656  0.9017  0.9703  2.8338
   31MOL   H18610446   5.905   5.661   5.467  0.4287 -0.9254  0.7630
   31MOL   H18710447   5.599   5.757   5.522 -0.2414 -0.3903 -0.1379
   31MOL   H18810448   5.576   5.707   5.356  0.0102 -0.1731 -0.1788
   31MOL   C18910449   5.456   5.878   5.414  0.7565 -0.6058  0.2741
   31MOL   C19010450   5.340   5.789   5.390  0.3957  0.0290 -0.0276
   31MOL   C19110451   5.312   5.680   5.479 -0.5654  0.1219 -0.0143
   31MOL   C19210452   5.211   5.588   5.447 -0.5715 -0.3732 -0.3104
   31MOL   C19310453   5.141   5.605   5.327 -0.0496 -0.2504 -0.0042
   31MOL   O19410454   5.047   5.508   5.296 -0.8216 -0.9368  0.4152
   31MOL   C19510455   5.168   5.709   5.237 -0.2234  0.4170 -0.1985
   31MOL   C19610456   5.279   5.796   5.267 -0.3126  0.3102 -0.3322
   31MOL   C19710457   5.435   5.968   5.537 -0.3199 -0.0382  0.8227
   31MOL   H19810458   5.465   5.943   5.328  2.1341 -1.6853 -0.4197
   31MOL   H19910459   5.373   5.674   5.568  0.5918  1.2064 -0.7137
   31MOL   H20010460   5.185   5.507   5.512 -0.6907  1.2996  1.7747
   31MOL   H20110461   4.984   5.521   5.227  0.9689  0.9111 -0.9480
   31MOL   H20210462   5.115   5.716   5.142 -1.3244  1.3957  0.4666
   31MOL   H20310463   5.310   5.871   5.196  1.0014  0.3596  0.2765
   31MOL   H20410464   5.522   6.026   5.567  0.9725 -0.8900 -1.2168
   31MOL   H20510465   5.431   5.896   5.619  0.0670 -1.6667 -0.5776
   31MOL   C20610466   5.314   6.051   5.546 -0.3519 -0.0638  1.6247
   31MOL   C20710467   5.321   6.176   5.459 -0.0748 -0.5041  0.3655
   31MOL   C20810468   5.213   6.228   5.391 -0.0885 -0.2345  0.0031
   31MOL   C20910469   5.223   6.356   5.325  0.5241  0.4607 -0.2121
   31MOL   C21010470   5.337   6.433   5.331 -0.7718  0.2565  1.0064
   31MOL   O21110471   5.352   6.556   5.279  0.5476 -0.0566 -0.3984
   31MOL   C21210472   5.444   6.377   5.401 -0.8442  0.6551 -0.2568
   31MOL   C21310473   5.436   6.254   5.472  0.1699  0.7190  0.0744
   31MOL   C21410474   5.294   6.091   5.691 -0.1933  0.3754 -0.3111
   31MOL   H21510475   5.228   6.001   5.501  0.2614 -0.4136  0.8338
   31MOL   H21610476   5.123   6.171   5.378 -0.1038 -0.5698  1.5138
   31MOL   H21710477   5.138   6.399   5.274 -0.1245  0.4272  0.8065
   31MOL   H21810478   5.432   6.603   5.294  0.0181  1.4794 -2.2381
   31MOL   H21910479   5.530   6.443   5.394  0.1284 -0.5514  0.1109
   31MOL   H22010480   5.525   6.233   5.528 -0.0344 -1.1633 -0.3039
   31MOL   H22110481   5.255   6.193   5.690 -0.1752  0.4125  0.8912
   31MOL   H22210482   5.391   6.090   5.742 -0.5356 -0.0811  0.3397
   31MOL   C22310483   5.187   6.008   5.775 -0.2699  0.5550  0.9208
   31MOL   C22410484   5.130   6.078   5.894 -0.3749 -0.5467  0.0029
   31MOL   C22510485   5.011   6.149   5.881  0.2936 -0.6985  0.5804
   31MOL   C22610486   4.973   6.238   5.982  0.2959  0.4742  0.1553
   31MOL   C22710487   5.052   6.246   6.094  0.2323 -0.3917 -0.0939
   31MOL   O22810488   5.018   6.328   6.196 -0.1431 -0.0348 -0.9585
   31MOL   C22910489   5.166   6.173   6.112 -0.9477 -0.5444 -0.5519
   31MOL   C23010490   5.211   6.094   6.013  0.4205 -0.0063  0.3514
   31MOL   C23110491   5.227   5.863   5.798  0.4066  0.3140  0.1464
   31MOL   H23210492   5.114   5.997   5.695  0.6019 -1.0995  0.3236
   31MOL   H23310493   4.956   6.155   5.788  1.7798  1.9873 -0.1589
   31MOL   H23410494   4.887   6.299   5.960  0.6695  0.7518 -0.5483
   31MOL   H23510495   4.930   6.359   6.190 -0.2925 -0.3200 -0.3418
   31MOL   H23610496   5.229   6.198   6.196 -1.6280 -2.8806  0.7125
   31MOL   H23710497   5.307   6.043   6.018 -0.3007 -1.3774  0.4657
   31MOL   H23810498   5.257   5.836   5.697 -1.1227 -1.4533  0.1365
   31MOL   H23910499   5.304   5.856   5.875  0.6293  1.5172  0.0562
   31MOL   C24010500   5.102   5.781   5.852 -0.2079  0.5775 -0.6354
   31MOL   C24110501   4.969   5.811   5.789  0.2112  0.0464  0.2660
   31MOL   C24210502   4.953   5.801   5.655  0.0183 -0.3763 -0.0494
   31MOL   C24310503   4.825   5.824   5.599 -0.3094 -0.6918  0.2404
   31MOL   C24410504   4.719   5.868   5.686  0.0204 -0.3873  0.4385
   31MOL   O24510505   4.590   5.885   5.641 -0.6180  0.8910 -0.5201
   31MOL   C24610506   4.739   5.881   5.821  0.6170  0.8017 -0.5304
   31MOL   C24710507   4.864   5.848   5.870  0.6714 -0.2186 -0.1248
   31MOL   C24810508   5.125   5.622   5.852  0.0299 -0.3597  0.2861
   31MOL   H24910509   5.096   5.810   5.957  3.9618  0.0823 -0.1959
   31MOL   H25010510   5.036   5.768   5.594  0.3422  1.2818 -0.5237
   31MOL   H25110511   4.801   5.809   5.495 -1.4291  1.8919  0.0767
   31MOL   H25210512   4.574   5.838   5.561 -0.7591 -2.1370  1.1835
   31MOL   H25310513   4.661   5.897   5.894  0.4449  3.0712 -1.1894
   31MOL   H25410514   4.878   5.846   5.977 -0.7352  2.2249  0.1366
   31MOL   H25510515   5.036   5.571   5.890  0.7028  0.3351  2.8879
   31MOL   H25610516   5.136   5.583   5.751  2.1724  1.3426 -0.1643
   31MOL   C25710517   5.238   5.578   5.941 -1.0515  0.1023  0.7502
   31MOL   C25810518   5.194   5.490   6.056 -0.9546  0.7791  0.2727
   31MOL   C25910519   5.197   5.539   6.191  0.0799 -0.2721  0.2477
   31MOL   C26010520   5.156   5.457   6.293 -0.7994  0.2971  0.0838
   31MOL   C26110521   5.133   5.322   6.273  0.1676  0.9528  0.0789
   31MOL   O26210522   5.117   5.244   6.379 -0.2485  1.1930  0.4021
   31MOL   C26310523   5.135   5.266   6.141  0.3833 -0.2817  0.7289
   31MOL   C26410524   5.167   5.354   6.034 -0.0480 -0.5345  0.1458
   31MOL   C26510525   5.346   5.501   5.848  0.5561 -0.1432 -0.0316
   31MOL   H26610526   5.287   5.664   5.988  0.2558 -1.2767  1.9307
   31MOL   H26710527   5.237   5.638   6.206 -0.9710  0.0970  0.6578
   31MOL   H26810528   5.160   5.501   6.392 -3.4745  0.2425  0.2612
   31MOL   H26910529   5.163   5.163   6.364 -1.3989  0.3310  1.3124
   31MOL   H27010530   5.113   5.161   6.127  1.4957 -0.0161 -3.8601
   31MOL   H27110531   5.162   5.311   5.935  2.1475 -1.1327  0.2691
   31MOL   H27210532   5.387   5.573   5.777  2.7062  0.3243  1.6326
   31MOL   H27310533   5.294   5.426   5.788 -0.1878  0.4618 -0.1494
   31MOL   C27410534   5.469   5.449   5.927 -0.3060  0.4795 -0.0895
   31MOL   C27510535   5.538   5.564   6.011  0.0578  0.7242 -0.6587
   31MOL   C27610536   5.530   5.566   6.153  0.0675 -0.2441  0.4646
   31MOL   C27710537   5.581   5.669   6.229 -0.1642 -0.3363 -0.0635
   31MOL   C27810538   5.650   5.774   6.162 -0.0785 -0.4726  0.0645
   31MOL   O27910539   5.694   5.881   6.235  0.4281  0.1474 -0.2155
   31MOL   C28010540   5.654   5.770   6.022  0.3704  0.1515 -0.5630
   31MOL   C28110541   5.600   5.666   5.946 -1.1679  0.9635  0.5705
   31MOL   C28210542   5.575   5.388   5.830  0.4313 -0.1133 -0.1352
   31MOL   H28310543   5.448   5.368   5.998 -0.0974 -0.8691 -1.5388
   31MOL   H28410544   5.475   5.490   6.208 -1.4091  0.4813  0.0001
   31MOL   H28510545   5.570   5.670   6.336 -1.7342 -1.3658 -0.1832
   31MOL   H28610546   5.686   5.963   6.189  2.4322 -0.1923 -1.2351
   31MOL   H28710547   5.702   5.854   5.975 -1.8756  1.1828 -1.0736
   31MOL   H28810548   5.613   5.662   5.839  0.6538 -1.3012  0.8547
   31MOL   H28910549   5.592   5.465   5.755  1.3170  0.1349  0.3057
   31MOL   H29010550   5.675   5.379   5.874 -0.5624 -1.6061  1.8747
   31MOL   C29110551   5.546   5.251   5.763 -0.1256  0.1172 -0.0821
   31MOL   C29210552   5.526   5.137   5.857  0.2385 -0.8830 -0.2918
   31MOL   C29310553   5.629   5.071   5.921 -0.4100 -0.4669 -0.3519
   31MOL   C29410554   5.607   4.957   6.009 -0.3147 -0.0222 -0.3044
   31MOL   C29510555   5.478   4.907   6.021  0.0200 -1.3998 -0.4793
   31MOL   O29610556   5.455   4.792   6.088 -0.3356 -0.3932  0.1538
   31MOL   C29710557   5.370   4.977   5.962 -0.1589  0.3226 -0.7855
   31MOL   C29810558   5.400   5.084   5.876  0.1300  0.2744  0.5146
   31MOL   C29910559   5.657   5.207   5.657  0.0230 -0.5521 -0.1270
   31MOL   H30010560   5.450   5.263   5.713 -1.4397 -1.8151  1.8673
   31MOL   H30110561   5.730   5.110   5.928 -1.0182  1.2754 -0.8838
   31MOL   H30210562   5.683   4.896   6.054 -0.4324 -0.7171 -1.0372
   31MOL   H30310563   5.372   4.772   6.128  0.2431 -1.7871  0.6816
   31MOL   H30410564   5.267   4.950   5.981 -0.2809  0.9447 -0.5461
   31MOL   H30510565   5.308   5.135   5.852  0.0616  0.6958  1.6873
   31MOL   H30610566   5.645   5.099   5.658 -0.7519 -0.4804  3.2223
   31MOL   H30710567   5.751   5.213   5.712 -0.7952  0.0119  1.2089
   31MOL   C30810568   5.659   5.267   5.518 -0.2844 -0.1374 -0.4503
   31MOL   C30910569   5.542   5.237   5.436  0.4148 -0.1089 -0.0530
   31MOL   C31010570   5.437   5.328   5.409  0.0802  0.0457 -0.1784
   31MOL   C31110571   5.338   5.286   5.319  0.1919 -0.0217  0.2828
   31MOL   C31210572   5.333   5.154   5.263 -0.5814 -0.4321  0.1714
   31MOL   O31310573   5.241   5.117   5.175  0.0271  0.6318  0.1124
   31MOL   C31410574   5.435   5.062   5.303  0.0408  0.1838  0.0586
   31MOL   C31510575   5.538   5.106   5.392  0.5833 -0.5838  0.3799
   31MOL   C31610576   5.787   5.237   5.442 -0.0068  0.0775 -0.7026
   31MOL   H31710577   5.655   5.375   5.536  1.4717 -0.5597  2.9413
   31MOL   H31810578   5.439   5.427   5.454  1.5253 -0.8664  1.8641
   31MOL   H31910579   5.268   5.360   5.286  0.7066  1.1165  1.7120
   31MOL   H32010580   5.177   5.185   5.167 -1.8606 -0.7530  2.7577
   31MOL   H32110581   5.439   4.962   5.263 -0.7057  1.1316 -2.4959
   31MOL   H32210582   5.611   5.032   5.417  0.7015  0.0958  2.1002
   31MOL   H32310583   5.761   5.210   5.340 -0.4679 -3.6857  0.3323
   31MOL   H32410584   5.818   5.136   5.468  0.3711  0.0472 -1.2598
   31MOL   C32510585   5.898   5.345   5.443  0.2903  0.0048 -0.3449
   31MOL   C32610586   5.928   5.402   5.305  0.9229 -0.3070  0.4100
   31MOL   C32710587   6.041   5.363   5.234 -0.5429  0.3679 -0.6076
   31MOL   C32810588   6.078   5.430   5.117  0.1845  0.5673 -0.7128
   31MOL   C32910589   5.993   5.519   5.055  0.2295  0.4358 -0.0821
   31MOL   O33010590   6.023   5.594   4.945 -0.0785  0.7651 -0.2262
   31MOL   C33110591   5.864   5.541   5.115  0.5877 -0.5140  0.0934
   31MOL   C33210592   5.836   5.490   5.243  0.5843  0.4993  0.0489
   31MOL   C33310593   6.020   5.302   5.526 -0.3293 -0.0667 -0.1732
   31MOL   H33410594   5.852   5.428   5.497 -3.5409 -2.0753 -0.2222
   31MOL   H33510595   6.110   5.293   5.277 -0.7275  0.2041 -0.5782
   31MOL   H33610596   6.176   5.418   5.073  0.4206  0.6500 -0.2099
   31MOL   H33710597   6.115   5.603   4.927  0.0605  0.4800  0.3209
   31MOL   H33810598   5.796   5.614   5.072 -0.0607 -1.4132 -0.4455
   31MOL   H33910599   5.744   5.518   5.291  0.6181 -0.0541  0.4405
   31MOL   H34010600   6.100   5.376   5.527  0.9326 -1.4083 -1.3887
   31MOL   H34110601   6.060   5.212   5.480 -1.9160 -0.8340 -0.1144
   31MOL   H34210602   5.994   5.281   5.630  1.0229 -0.4788  0.0835
   32MOL     C110603   3.534   0.221   1.583  0.8868 -0.3604 -0.3753
   32MOL     C210604   3.592   0.106   1.505  0.1205 -0.3847 -0.3108
   32MOL     C310605   3.517   0.004   1.435  0.1447  0.1353 -0.2244
   32MOL     C410606   3.575   7.943   1.360  0.2149  0.3227  0.4616
   32MOL     C510607   3.715   7.935   1.353  0.9122  0.0425  0.1837
   32MOL     O610608   3.774   7.850   1.264 -0.1926 -0.4785  0.4176
   32MOL     C710609   3.791   8.037   1.414 -0.1419 -0.1021 -0.2219
   32MOL     C810610   3.733   0.103   1.492 -0.0996 -0.4509 -1.0833
   32MOL     C910611   3.555   0.213   1.737 -1.1881  0.7780  0.5150
   32MOL    H1010612   3.586   0.309   1.546 -0.5645  0.7187  0.1123
   32MOL    H1110613   3.410   0.019   1.443 -0.0294 -0.6903 -0.8873
   32MOL    H1210614   3.513   7.869   1.311  2.1300 -0.6111 -0.5877
   32MOL    H1310615   3.735   7.768   1.240 -0.0635 -0.5716  0.5276
   32MOL    H1410616   3.897   0.008   1.430 -0.4188  3.4201  0.0709
   32MOL    H1510617   3.797   0.156   1.560 -2.9070  2.9160 -0.9029
   32MOL    H1610618   3.663   0.200   1.738 -1.2073  0.5185 -0.4903
   32MOL    H1710619   3.513   0.116   1.764 -0.2716 -0.4285 -2.2635
   32MOL    H1810620   3.428   0.222   1.555  0.9439 -3.6225 -0.9324
   32MOL    C1910621   3.510   0.338   1.817  0.2994 -0.4504  0.0405
   32MOL    C2010622   3.579   0.463   1.765 -0.3526  0.4092 -0.3515
   32MOL    C2110623   3.716   0.493   1.783 -0.0861 -0.0161  0.4732
   32MOL    C2210624   3.781   0.610   1.748  0.8273  0.3538 -0.1963
   32MOL    C2310625   3.701   0.715   1.701  0.5191 -0.1936  0.1858
   32MOL    O2410626   3.761   0.840   1.682 -0.2257  0.2450 -0.1064
   32MOL    C2510627   3.564   0.692   1.687  0.0887  0.0277 -0.3650
   32MOL    C2610628   3.500   0.570   1.711 -0.5224 -0.7435  0.0801
   32MOL    C2710629   3.507   0.327   1.973  0.1019 -0.1361 -0.0581
   32MOL    H2810630   3.403   0.346   1.797  0.5139  1.1939 -0.5423
   32MOL    H2910631   3.772   0.416   1.834 -0.3733 -0.7108 -0.2466
   32MOL    H3010632   3.885   0.628   1.771  0.7124  2.7877 -1.3764
   32MOL    H3110633   3.697   0.909   1.691 -1.2960 -1.0251  2.7176
   32MOL    H3210634   3.511   0.773   1.640  0.9763  2.2683  2.3849
   32MOL    H3310635   3.394   0.558   1.693 -0.4688 -1.4832  0.2403
   32MOL    H3410636   3.613   0.343   1.992 -0.1485  0.6868  0.6791
   32MOL    H3510637   3.471   0.225   1.985 -1.3283  0.1203 -1.9225
   32MOL    C3610638   3.427   0.422   2.063 -0.1305  0.8036 -0.6843
   32MOL    C3710639   3.436   0.574   2.028 -0.0935  0.0429  0.4967
   32MOL    C3810640   3.322   0.648   1.983 -0.3572 -0.0137 -0.2237
   32MOL    C3910641   3.336   0.787   1.962  0.4049  0.8850 -0.0097
   32MOL    C4010642   3.463   0.845   1.979 -0.3456 -0.6464  0.1509
   32MOL    O4110643   3.472   0.981   1.957 -0.6886 -0.1552  0.1258
   32MOL    C4210644   3.572   0.771   2.027  0.3043 -0.4080  0.4832
   32MOL    C4310645   3.565   0.635   2.058 -0.4242  0.3007 -0.2245
   32MOL    C4410646   3.452   0.403   2.212  0.9077 -0.1764 -1.3217
   32MOL    H4510647   3.325   0.392   2.038  0.2303 -0.8038 -0.2868
   32MOL    H4610648   3.232   0.593   1.962 -0.3794 -0.0716  0.0238
   32MOL    H4710649   3.242   0.840   1.950 -0.9086 -1.3630 -0.1004
   32MOL    H4810650   3.384   1.008   1.976 -1.1164  0.3041 -2.3453
   32MOL    H4910651   3.670   0.813   2.042 -0.0005 -0.0327  1.5241
   32MOL    H5010652   3.650   0.575   2.088 -1.6934 -1.2202  0.4358
   32MOL    H5110653   3.556   0.421   2.235  0.4649  1.4129 -0.5558
   32MOL    H5210654   3.401   0.490   2.252  1.3781 -0.7226  0.5176
   32MOL    C5310655   3.391   0.279   2.278  0.3273  0.4797 -0.1275
   32MOL    C5410656   3.484   0.159   2.262  0.0643  0.5726 -0.4898
   32MOL    C5510657   3.440   0.045   2.194 -0.2317 -0.6661 -0.0519
   32MOL    C5610658   3.524   7.974   2.179 -0.1257  0.5420  0.7950
   32MOL    C5710659   3.652   7.974   2.234  0.4235  1.1044  0.2320
   32MOL    O5810660   3.728   7.860   2.228 -0.4552 -0.4651 -0.1411
   32MOL    C5910661   3.702   0.053   2.296  0.4328 -0.2910  0.2487
   32MOL    C6010662   3.617   0.163   2.310  0.2555 -0.3910 -0.4669
   32MOL    C6110663   3.381   0.310   2.432  0.1321  0.5509 -0.4399
   32MOL    H6210664   3.299   0.241   2.234  0.0210 -1.9038  2.4455
   32MOL    H6310665   3.340   0.035   2.156  0.4412  0.3471 -2.2074
   32MOL    H6410666   3.486   7.891   2.121  0.0864  0.4962  0.7222
   32MOL    H6510667   3.682   7.781   2.253 -1.1863 -0.6936 -2.1137
   32MOL    H6610668   3.803   0.073   2.327  0.3691 -0.5478  0.6267
   32MOL    H6710669   3.650   0.258   2.349  3.3991 -2.3144  1.6978
   32MOL    H6810670   3.336   0.405   2.461  0.2679  0.2959  0.6108
   32MOL    H6910671   3.476   0.331   2.480  0.2162 -0.4690 -0.1565
   32MOL    C7010672   3.306   0.203   2.517  0.2123 -0.3918  0.1230
   32MOL    C7110673   3.161   0.194   2.472  0.3594  0.6086  1.0100
   32MOL    C7210674   3.121   0.082   2.394 -0.0935  0.3237  0.4272
   32MOL    C7310675   2.984   0.055   2.377  0.6725  0.3218  0.0797
   32MOL    C7410676   2.889   0.157   2.420 -0.0839 -0.6094  0.2987
   32MOL    O7510677   2.753   0.139   2.401  0.5148  0.8895 -0.2627
   32MOL    C7610678   2.932   0.273   2.486 -0.1539 -0.4198  0.3290
   32MOL    C7710679   3.070   0.285   2.511  0.0951 -0.0515 -0.4846
   32MOL    C7810680   3.317   0.224   2.674 -0.8289 -0.0301 -0.0803
   32MOL    H7910681   3.350   0.108   2.488 -1.0399 -0.5050 -1.4481
   32MOL    H8010682   3.201   0.015   2.368  1.4886  1.7930  1.4155
   32MOL    H8110683   2.940   8.010   2.323  1.5313 -0.0703 -0.0368
   32MOL    H8210684   2.703   0.201   2.452 -1.1615 -0.1217 -0.6473
   32MOL    H8310685   2.868   0.348   2.532  0.1410  1.4724 -2.2354
   32MOL    H8410686   3.111   0.361   2.576 -1.5537  0.4074  0.0341
   32MOL    H8510687   3.223   0.189   2.717 -1.2426  0.8659 -0.2541
   32MOL    H8610688   3.309   0.330   2.697  2.6827  0.2599  0.1225
   32MOL    C8710689   3.442   0.159   2.738 -0.8762  0.4310  0.0095
   32MOL    C8810690   3.448   0.003   2.711 -0.0150 -0.0112 -0.5752
   32MOL    C8910691   3.556   7.981   2.645 -0.1219 -0.5962  0.2193
   32MOL    C9010692   3.554   7.848   2.606 -1.2369  0.5837 -0.0380
   32MOL    C9110693   3.447   7.767   2.636  0.8757 -0.0592  0.4249
   32MOL    O9210694   3.451   7.634   2.611  0.8304  0.1336 -0.2284
   32MOL    C9310695   3.342   7.819   2.717 -0.7161 -0.1254 -0.0308
   32MOL    C9410696   3.349   7.958   2.760  0.1553  0.1861  0.0665
   32MOL    C9510697   3.449   0.181   2.889 -0.4748  0.3139  0.3682
   32MOL    H9610698   3.529   0.203   2.689 -1.4250 -0.6284 -1.9485
   32MOL    H9710699   3.631   0.013   2.608 -0.3447 -0.3824  0.1687
   32MOL    H9810700   3.637   7.812   2.546 -1.7099  2.2022 -1.7073
   32MOL    H9910701   3.372   7.591   2.639  0.5050  0.7969 -0.1309
   32MOL   H10010702   3.265   7.749   2.746 -1.6036  1.1621  0.7686
   32MOL   H10110703   3.262   7.984   2.818  1.2550  1.5137  1.1399
   32MOL   H10210704   3.348   0.179   2.930  0.1760 -0.6986  1.9392
   32MOL   H10310705   3.512   0.101   2.928  1.0656  1.0060 -0.6305
   32MOL   C10410706   3.518   0.319   2.924  0.1788  0.9341  0.2294
   32MOL   C10510707   3.657   0.326   2.864  0.3685 -0.1714  0.2895
   32MOL   C10610708   3.747   0.212   2.860  0.1214  0.8540 -0.2720
   32MOL   C10710709   3.880   0.225   2.807  0.8776  0.1207 -0.4867
   32MOL   C10810710   3.919   0.354   2.769 -0.8703 -0.6109 -0.0865
   32MOL   O10910711   4.055   0.376   2.747  0.5526 -0.3978 -0.1067
   32MOL   C11010712   3.829   0.462   2.759  0.5630 -0.3146  0.2929
   32MOL   C11110713   3.696   0.447   2.803  0.0126 -0.1482  0.1491
   32MOL   C11210714   3.510   0.362   3.074  0.7865  0.0818 -0.0717
   32MOL   H11310715   3.460   0.390   2.866 -0.8198 -0.8240 -0.9999
   32MOL   H11410716   3.711   0.119   2.901 -1.3092  1.0986 -0.9085
   32MOL   H11510717   3.936   0.132   2.803 -1.7054 -1.5234  0.5200
   32MOL   H11610718   4.079   0.466   2.730 -1.6929  0.8421  2.8671
   32MOL   H11710719   3.853   0.558   2.717 -2.1108 -1.0289 -3.0857
   32MOL   H11810720   3.630   0.533   2.805  2.7073  2.0191 -0.7218
   32MOL   H11910721   3.599   0.423   3.091  0.3816  1.0181 -1.2134
   32MOL   H12010722   3.522   0.281   3.145  0.8862 -0.1538 -0.3547
   32MOL   C12110723   3.400   0.457   3.097  0.5816 -0.9774 -0.6597
   32MOL   C12210724   3.267   0.386   3.069  0.3048 -0.2214  0.1637
   32MOL   C12310725   3.177   0.430   2.968  0.4948 -0.3834 -0.0986
   32MOL   C12410726   3.059   0.354   2.942  0.2297  0.6577  0.2583
   32MOL   C12510727   3.021   0.247   3.026 -0.3633  0.7649 -0.8251
   32MOL   O12610728   2.905   0.177   2.999  0.2463 -0.1866  0.4921
   32MOL   C12710729   3.094   0.210   3.136 -0.0187 -0.4272  1.1220
   32MOL   C12810730   3.221   0.280   3.155  0.4242 -0.5181 -0.4592
   32MOL   C12910731   3.404   0.520   3.235 -0.3936 -0.0580  0.2548
   32MOL   H13010732   3.413   0.538   3.025 -0.6030  0.7274  0.9809
   32MOL   H13110733   3.206   0.517   2.911  0.7022  0.8100  1.7836
   32MOL   H13210734   2.982   0.390   2.875 -0.2895  0.2372  0.6356
   32MOL   H13310735   2.875   0.128   3.074  1.1198 -0.8544  0.4136
   32MOL   H13410736   3.073   0.125   3.199  1.0423 -1.6466 -0.1466
   32MOL   H13510737   3.286   0.243   3.233  0.2367 -1.7990 -0.9039
   32MOL   H13610738   3.502   0.564   3.254 -0.7362  1.4015 -1.2442
   32MOL   H13710739   3.393   0.431   3.298  2.6098 -0.1681  0.6739
   32MOL   C13810740   3.291   0.620   3.268  0.3624 -0.3478  0.2260
   32MOL   C13910741   3.275   0.736   3.169  0.1972 -0.0636 -0.1296
   32MOL   C14010742   3.382   0.829   3.150 -0.6171  0.4427  0.1232
   32MOL   C14110743   3.361   0.928   3.055  0.6104  0.0636  0.2074
   32MOL   C14210744   3.240   0.943   2.977 -0.1362 -0.2655 -0.6536
   32MOL   O14310745   3.230   1.047   2.890 -0.6674  0.8689  0.0934
   32MOL   C14410746   3.139   0.851   3.003  0.0068  0.1220  0.8234
   32MOL   C14510747   3.160   0.747   3.095  0.2472 -0.1007  0.0870
   32MOL   C14610748   3.318   0.686   3.405  0.4551 -0.5930  0.8297
   32MOL   H14710749   3.195   0.573   3.286  1.0650 -1.2067  1.8723
   32MOL   H14810750   3.478   0.815   3.196 -0.3221 -0.6361 -0.7915
   32MOL   H14910751   3.440   0.996   3.028  1.5021 -0.6143  1.0920
   32MOL   H15010752   3.141   1.073   2.874 -1.5417 -2.5611 -1.1685
   32MOL   H15110753   3.039   0.858   2.962  0.5931  2.0085 -0.3565
   32MOL   H15210754   3.074   0.684   3.108  0.4133  0.0215  1.9768
   32MOL   H15310755   3.245   0.765   3.420 -0.2062 -0.8929 -0.6908
   32MOL   H15410756   3.415   0.735   3.393  0.3056 -0.5695 -0.3303
   32MOL   C15510757   3.334   0.601   3.528 -0.5639  0.4482 -0.2104
   32MOL   C15610758   3.226   0.483   3.533 -0.1228  0.2854  0.5437
   32MOL   C15710759   3.090   0.508   3.514  0.3301  0.0741 -0.7117
   32MOL   C15810760   2.996   0.397   3.541 -0.5394 -0.0175  0.3308
   32MOL   C15910761   3.043   0.270   3.587 -0.2991  0.0414  0.1849
   32MOL   O16010762   2.953   0.167   3.603 -0.5660 -0.1072 -0.8662
   32MOL   C16110763   3.180   0.249   3.602 -0.3399  0.4452  0.5600
   32MOL   C16210764   3.272   0.352   3.566  0.7331 -0.1417 -0.1618
   32MOL   C16310765   3.334   0.688   3.656  0.3351  0.9370  0.3550
   32MOL   H16410766   3.435   0.561   3.520 -0.4116  0.3004  1.9329
   32MOL   H16510767   3.052   0.605   3.484  0.3983  0.0755 -0.7937
   32MOL   H16610768   2.891   0.420   3.525  0.0815  1.8983 -1.3063
   32MOL   H16710769   2.999   0.099   3.651  1.8756  2.1619  0.1142
   32MOL   H16810770   3.226   0.160   3.641  0.3235 -0.0898 -1.3500
   32MOL   H16910771   3.376   0.337   3.586  0.4716 -0.6870  0.7920
   32MOL   H17010772   3.360   0.616   3.733 -1.5506 -0.5450 -0.3312
   32MOL   H17110773   3.232   0.715   3.685  0.1426 -0.0006  0.5770
   32MOL   C17210774   3.409   0.808   3.656 -0.9086 -0.1036  0.0153
   32MOL   C17310775   3.556   0.777   3.633 -0.2838 -0.2852  0.3135
   32MOL   C17410776   3.628   0.833   3.523  0.5569  0.6579 -0.7481
   32MOL   C17510777   3.767   0.834   3.522 -0.3031 -0.0829  0.6137
   32MOL   C17610778   3.836   0.762   3.625  0.0068  0.0620  0.3435
   32MOL   O17710779   3.972   0.758   3.622  0.1348  0.3535 -0.2378
   32MOL   C17810780   3.765   0.699   3.733  0.6647  0.1247 -0.5509
   32MOL   C17910781   3.625   0.713   3.739 -0.2569 -0.3815 -0.0652
   32MOL   C18010782   3.376   0.896   3.782  0.3133 -0.7179 -0.6583
   32MOL   H18110783   3.377   0.865   3.569 -0.3259  0.7753  0.3703
   32MOL   H18210784   3.576   0.888   3.446 -2.4682 -0.9878  0.0603
   32MOL   H18310785   3.817   0.886   3.441  1.5673 -3.0010 -0.1768
   32MOL   H18410786   4.015   0.736   3.704  0.8329 -0.9910 -0.9507
   32MOL   H18510787   3.817   0.648   3.813 -2.1234  0.1874  1.3689
   32MOL   H18610788   3.579   0.669   3.826 -2.7088  1.4218 -0.4071
   32MOL   H18710789   3.406   0.837   3.868 -1.3284  0.5153  0.7879
   32MOL   H18810790   3.267   0.898   3.793  0.3833  0.0229 -0.1079
   32MOL   C18910791   3.457   1.022   3.783  0.5144  0.5418 -0.1703
   32MOL   C19010792   3.415   1.115   3.666 -0.1568  0.1327  0.6899
   32MOL   C19110793   3.518   1.185   3.597 -0.0411  0.1693  0.8982
   32MOL   C19210794   3.483   1.277   3.496 -0.7644 -0.7972  0.4436
   32MOL   C19310795   3.350   1.296   3.456  0.0914 -0.1024 -0.4379
   32MOL   O19410796   3.309   1.384   3.360 -0.3248  0.3258  0.0094
   32MOL   C19510797   3.249   1.229   3.525 -0.0621 -0.1891  0.1809
   32MOL   C19610798   3.281   1.135   3.630  0.2767 -0.1528  0.6831
   32MOL   C19710799   3.453   1.104   3.914  0.5649 -0.4489  0.0484
   32MOL   H19810800   3.562   0.996   3.765 -0.1941 -1.5345 -1.3874
   32MOL   H19910801   3.621   1.156   3.614 -0.8572 -2.0686  2.3159
   32MOL   H20010802   3.555   1.324   3.432 -2.0362 -0.4515 -0.7640
   32MOL   H20110803   3.381   1.446   3.351  0.8519 -1.0495 -0.3596
   32MOL   H20210804   3.144   1.245   3.506 -0.2056 -2.6734 -1.3913
   32MOL   H20310805   3.205   1.085   3.688  0.8190 -3.0959 -1.0444
   32MOL   H20410806   3.352   1.113   3.953  0.8726 -0.7275  0.9224
   32MOL   H20510807   3.473   1.208   3.887  0.0535 -0.4070 -0.1866
   32MOL   C20610808   3.561   1.067   4.020  0.9745  0.6092  0.0058
   32MOL   C20710809   3.536   0.931   4.088  0.6361  0.1828  0.8333
   32MOL   C20810810   3.407   0.887   4.121  1.2406  0.2000 -0.3081
   32MOL   C20910811   3.383   0.768   4.193 -0.2076 -0.3927 -0.4080
   32MOL   C21010812   3.492   0.683   4.215  0.2916  0.4004 -0.4350
   32MOL   O21110813   3.464   0.558   4.266 -0.3944 -0.4563 -0.3629
   32MOL   C21210814   3.621   0.724   4.189 -0.2602  0.2372  0.2278
   32MOL   C21310815   3.645   0.846   4.122  0.7603  0.0943 -0.6451
   32MOL   C21410816   3.564   1.175   4.134 -0.3629 -0.5433 -0.2463
   32MOL   H21510817   3.659   1.061   3.973  2.0961  2.2316  2.0612
   32MOL   H21610818   3.327   0.952   4.091  0.7709  0.9783  2.4512
   32MOL   H21710819   3.282   0.737   4.212 -0.2357  0.7031  1.3162
   32MOL   H21810820   3.386   0.517   4.231 -1.2084 -1.0059  2.0300
   32MOL   H21910821   3.705   0.666   4.222  1.0616  2.0762  0.2009
   32MOL   H22010822   3.743   0.887   4.106 -0.0948  2.4233 -0.1380
   32MOL   H22110823   3.608   1.141   4.227 -1.9263  1.3322  1.2362
   32MOL   H22210824   3.465   1.200   4.174 -0.7460 -0.9667 -0.9076
   32MOL   C22310825   3.634   1.306   4.098 -0.0860  0.1930  0.3502
   32MOL   C22410826   3.784   1.292   4.122 -0.5005 -0.4421 -0.1371
   32MOL   C22510827   3.841   1.246   4.245 -0.4303 -0.1758 -0.1113
   32MOL   C22610828   3.982   1.237   4.256  0.4088  0.2066  0.1557
   32MOL   C22710829   4.064   1.280   4.153  0.3210  0.3020  0.5174
   32MOL   O22810830   4.197   1.301   4.169  0.8538 -0.0672 -0.2001
   32MOL   C22910831   4.011   1.341   4.038  0.2647 -0.8642  0.8509
   32MOL   C23010832   3.870   1.342   4.018  0.3162 -0.2464 -0.0861
   32MOL   C23110833   3.586   1.425   4.184 -0.1180 -0.8938  0.1213
   32MOL   H23210834   3.622   1.322   3.990  0.4699 -1.4217  0.0418
   32MOL   H23310835   3.777   1.231   4.331 -0.1350  1.9867  0.4961
   32MOL   H23410836   4.010   1.201   4.354  0.8925  3.7756  1.3878
   32MOL   H23510837   4.245   1.307   4.088  0.9269 -1.2981 -0.2427
   32MOL   H23610838   4.079   1.385   3.966 -0.5881  0.9624  1.1367
   32MOL   H23710839   3.827   1.376   3.925 -1.4455 -1.3606  0.3121
   32MOL   H23810840   3.540   1.397   4.278  1.5069  1.2116  1.5785
   32MOL   H23910841   3.670   1.480   4.225 -0.8002  2.3686 -2.5912
   32MOL   C24010842   3.492   1.531   4.105  0.2383  0.0069 -0.6382
   32MOL   C24110843   3.358   1.465   4.081 -0.0160  0.1699  0.7072
   32MOL   C24210844   3.291   1.401   4.182 -0.6834 -0.3408  0.1390
   32MOL   C24310845   3.187   1.317   4.152  0.0663 -0.2183  0.3730
   32MOL   C24410846   3.144   1.296   4.020 -0.5607 -0.3922 -0.5095
   32MOL   O24510847   3.039   1.216   3.992 -0.8295 -0.3850 -0.3652
   32MOL   C24610848   3.205   1.368   3.914  0.6866 -0.0936 -0.0138
   32MOL   C24710849   3.320   1.449   3.946  0.1511  0.2312 -0.1050
   32MOL   C24810850   3.468   1.665   4.188  0.0948 -0.0705  0.1736
   32MOL   H24910851   3.541   1.556   4.011 -0.0073  1.9247 -0.2797
   32MOL   H25010852   3.322   1.407   4.285  1.2769  1.6016 -0.5425
   32MOL   H25110853   3.140   1.270   4.237 -1.1429  0.0196 -0.1466
   32MOL   H25210854   2.977   1.249   3.929  0.7811  0.3539 -1.5983
   32MOL   H25310855   3.185   1.353   3.809 -0.6501 -0.4601  0.2812
   32MOL   H25410856   3.384   1.492   3.869  1.1479 -2.4478 -0.8373
   32MOL   H25510857   3.451   1.640   4.293 -1.6419 -2.6068 -0.6566
   32MOL   H25610858   3.558   1.724   4.177 -0.2734  1.1240  3.0913
   32MOL   C25710859   3.350   1.760   4.147  0.7185  0.8742  0.0728
   32MOL   C25810860   3.337   1.873   4.242  1.1615 -0.3432 -0.1719
   32MOL   C25910861   3.435   1.972   4.259 -0.2042 -0.4035 -0.4656
   32MOL   C26010862   3.407   2.083   4.345 -0.0022  0.4871  0.5591
   32MOL   C26110863   3.286   2.092   4.414  0.0175  0.1404  0.4079
   32MOL   O26210864   3.250   2.203   4.484 -0.0368 -0.1514 -0.3117
   32MOL   C26310865   3.196   1.987   4.398 -0.9476  0.5895  0.5732
   32MOL   C26410866   3.212   1.881   4.309 -0.5205 -0.2330 -0.6482
   32MOL   C26510867   3.355   1.803   4.003 -0.3453  0.0130 -0.2318
   32MOL   H26610868   3.260   1.699   4.161  0.0687  1.7753 -0.1377
   32MOL   H26710869   3.524   1.963   4.198  0.2333 -1.3924  0.3051
   32MOL   H26810870   3.477   2.162   4.369  0.9611 -0.8071  2.1489
   32MOL   H26910871   3.323   2.257   4.508  0.0170 -0.9965  1.5004
   32MOL   H27010872   3.098   1.984   4.442 -0.4396 -0.3741  1.6625
   32MOL   H27110873   3.134   1.808   4.301 -0.8324 -0.0337  0.5275
   32MOL   H27210874   3.367   1.716   3.939  1.5583 -1.2716  1.7782
   32MOL   H27310875   3.451   1.854   3.990  0.3221 -1.0575  0.3299
   32MOL   C27410876   3.242   1.910   3.967  0.1155  0.4316  0.6915
   32MOL   C27510877   3.106   1.844   3.972 -0.3366  0.3075  0.9547
   32MOL   C27610878   3.073   1.715   3.923  0.0578 -0.3313  0.9469
   32MOL   C27710879   2.944   1.662   3.936  0.5092 -0.0043 -0.3535
   32MOL   C27810880   2.840   1.736   3.986  0.1850  0.3794 -0.2498
   32MOL   O27910881   2.716   1.686   3.991 -0.4448  0.5397 -0.6464
   32MOL   C28010882   2.873   1.866   4.035 -0.0674  0.4859 -0.2349
   32MOL   C28110883   3.004   1.923   4.031  0.3086 -0.5863  0.9744
   32MOL   C28210884   3.254   1.959   3.822  0.5669  0.1515  0.5870
   32MOL   H28310885   3.252   2.000   4.029  2.0402  1.7541 -1.4462
   32MOL   H28410886   3.143   1.645   3.880 -0.2684 -1.0386  1.5389
   32MOL   H28510887   2.926   1.560   3.906 -3.1867  0.4207  0.2216
   32MOL   H28610888   2.648   1.751   3.978 -1.3589  0.0818  1.7028
   32MOL   H28710889   2.794   1.918   4.087 -0.4944  0.1604 -0.5583
   32MOL   H28810890   3.023   2.023   4.067  0.9463 -0.0620 -0.8095
   32MOL   H28910891   3.225   1.882   3.751 -0.7120  0.5197  0.6977
   32MOL   H29010892   3.175   2.033   3.822  0.2942 -0.1079  2.5324
   32MOL   C29110893   3.382   2.034   3.772  0.2750  0.5602 -0.6544
   32MOL   C29210894   3.466   2.103   3.882 -0.1748  0.5295 -0.7380
   32MOL   C29310895   3.603   2.088   3.880  0.1130 -0.0161  0.3877
   32MOL   C29410896   3.678   2.142   3.984  0.1648 -0.5407 -0.4539
   32MOL   C29510897   3.621   2.227   4.083 -0.0559  0.3328  0.6397
   32MOL   O29610898   3.698   2.284   4.183  0.1797  0.1715 -0.9012
   32MOL   C29710899   3.484   2.258   4.068 -0.1439 -0.3122  0.1249
   32MOL   C29810900   3.408   2.196   3.969  0.2713 -0.3856 -0.8575
   32MOL   C29910901   3.361   2.126   3.650  0.2458 -0.7355 -0.2312
   32MOL   H30010902   3.443   1.949   3.740 -0.3567 -1.3546  2.9340
   32MOL   H30110903   3.634   2.015   3.806 -2.8242 -0.2562 -0.6820
   32MOL   H30210904   3.783   2.119   3.991  0.3429 -0.0395 -1.4060
   32MOL   H30310905   3.774   2.234   4.206 -0.7039  0.2942  2.5118
   32MOL   H30410906   3.438   2.335   4.128 -0.3329 -2.2482  2.5241
   32MOL   H30510907   3.302   2.215   3.960  0.0909 -0.6592  0.5953
   32MOL   H30610908   3.462   2.160   3.626 -0.3120  0.4934 -0.8866
   32MOL   H30710909   3.313   2.218   3.685 -0.4728 -1.0320 -0.4361
   32MOL   C30810910   3.282   2.071   3.531 -0.3970  0.0948  0.3030
   32MOL   C30910911   3.339   1.947   3.475 -0.1841 -0.0801  0.1754
   32MOL   C31010912   3.450   1.954   3.387  0.7313  0.9633 -0.5371
   32MOL   C31110913   3.488   1.840   3.317  0.3495  0.7034  0.3629
   32MOL   C31210914   3.428   1.716   3.340 -0.0134 -0.7747  0.5732
   32MOL   O31310915   3.480   1.600   3.286  1.1493  0.7903 -0.4794
   32MOL   C31410916   3.314   1.710   3.422 -0.0373  0.3603 -0.2292
   32MOL   C31510917   3.270   1.823   3.494 -0.6271 -0.1501  0.0939
   32MOL   C31610918   3.233   2.179   3.437  0.3672  0.3701  0.2585
   32MOL   H31710919   3.187   2.038   3.575  0.5598 -1.9849  0.8218
   32MOL   H31810920   3.503   2.045   3.362  0.1441  1.3650 -0.3338
   32MOL   H31910921   3.558   1.853   3.236 -0.8698  0.5732 -0.7341
   32MOL   H32010922   3.572   1.595   3.267  1.1111  1.3225 -0.7901
   32MOL   H32110923   3.262   1.617   3.440  0.1235  0.2540 -0.3083
   32MOL   H32210924   3.184   1.804   3.557 -1.3449 -0.7909 -1.0563
   32MOL   H32310925   3.166   2.128   3.366  3.6529 -4.2751  0.2481
   32MOL   H32410926   3.319   2.210   3.379  1.2007  0.6261  1.6187
   32MOL   C32510927   3.155   2.302   3.482 -0.0645  0.5754 -0.2270
   32MOL   C32610928   3.048   2.262   3.578  0.2107  0.1801 -0.2509
   32MOL   C32710929   2.942   2.184   3.535 -0.8586  0.0794 -0.0418
   32MOL   C32810930   2.840   2.144   3.622 -0.1104  0.5757  0.5152
   32MOL   C32910931   2.854   2.168   3.760  0.1856 -0.4139 -0.3845
   32MOL   O33010932   2.744   2.133   3.836 -0.2158  0.5300 -0.7840
   32MOL   C33110933   2.963   2.242   3.809 -0.0444 -0.6791 -0.1614
   32MOL   C33210934   3.054   2.294   3.713  0.3488 -0.1249 -0.4687
   32MOL   C33310935   3.110   2.371   3.366  0.1831 -0.2669  1.0397
   32MOL   H33410936   3.223   2.369   3.533  0.1899 -0.2483  0.5347
   32MOL   H33510937   2.947   2.166   3.429  3.1970  1.6676 -0.2326
   32MOL   H33610938   2.758   2.090   3.578  0.0917  1.1569 -0.5964
   32MOL   H33710939   2.757   2.138   3.930 -0.5402 -0.1648 -0.6977
   32MOL   H33810940   2.975   2.255   3.916  0.5532  2.0104 -0.5249
   32MOL   H33910941   3.131   2.361   3.750  0.5986 -1.0348  0.7295
   32MOL   H34010942   3.038   2.312   3.310  1.5893 -3.3030  2.3322
   32MOL   H34110943   3.187   2.394   3.293 -0.7681  1.7100  0.6102
   32MOL   H34210944   3.065   2.468   3.390  2.4613  1.1876 -0.4068
   33MOL     C110945   3.324   5.653   5.170  0.2685  0.0886  0.2620
   33MOL     C210946   3.428   5.652   5.061 -0.2867  0.6155 -1.0874
   33MOL     C310947   3.522   5.547   5.049  0.1539  0.3917 -0.3859
   33MOL     C410948   3.612   5.553   4.946 -0.7406  0.3205 -0.5652
   33MOL     C510949   3.610   5.649   4.846 -0.4764 -0.0234  0.0526
   33MOL     O610950   3.696   5.648   4.742 -0.5760 -0.4426 -0.3250
   33MOL     C710951   3.527   5.761   4.866 -0.4899  0.1067  0.5267
   33MOL     C810952   3.433   5.758   4.969 -1.1706 -0.4264 -0.0720
   33MOL     C910953   3.277   5.793   5.221 -0.2520 -0.6489  0.0386
   33MOL    H1010954   3.235   5.597   5.141  0.2929 -0.7949  1.8632
   33MOL    H1110955   3.513   5.458   5.110 -0.2368  0.2567 -0.6319
   33MOL    H1210956   3.689   5.477   4.940 -0.2438  0.8091 -0.5062
   33MOL    H1310957   3.690   5.575   4.683  2.2516  0.0659 -1.2877
   33MOL    H1410958   3.522   5.840   4.793  1.2235 -0.7437 -0.5456
   33MOL    H1510959   3.363   5.839   4.966  2.0091  2.3966 -1.6851
   33MOL    H1610960   3.218   5.841   5.143 -0.3385  0.4686  0.7741
   33MOL    H1710961   3.364   5.855   5.245 -2.3336  2.6999 -0.7274
   33MOL    H1810962   3.374   5.598   5.250  0.0931  0.6142  0.7424
   33MOL    C1910963   3.204   5.783   5.358  1.1970  0.1826  0.0958
   33MOL    C2010964   3.102   5.676   5.354  0.4313 -0.2560 -0.2181
   33MOL    C2110965   3.139   5.550   5.402 -0.4754 -1.1273  0.3714
   33MOL    C2210966   3.064   5.436   5.360 -0.3269 -0.1751 -0.8899
   33MOL    C2310967   2.938   5.450   5.288 -0.1754 -0.0592  0.3430
   33MOL    O2410968   2.867   5.336   5.248 -0.0432 -0.3754 -0.7305
   33MOL    C2510969   2.907   5.576   5.240 -0.1764  0.2156 -0.0185
   33MOL    C2610970   2.990   5.688   5.269  0.3117  0.3112  0.4318
   33MOL    C2710971   3.161   5.922   5.417  0.2841  0.2052  0.0575
   33MOL    H2810972   3.281   5.754   5.429  0.5326 -1.5110  0.1364
   33MOL    H2910973   3.231   5.541   5.458  0.2584  2.2016 -0.1738
   33MOL    H3010974   3.103   5.340   5.388  2.8185  1.0727 -0.7626
   33MOL    H3110975   2.867   5.268   5.313  1.5318  0.4648  0.1751
   33MOL    H3210976   2.821   5.584   5.175 -0.7852 -0.7880  0.6673
   33MOL    H3310977   2.978   5.786   5.226  3.9143  1.1905  1.2590
   33MOL    H3410978   3.106   5.965   5.332 -0.0960  0.6024  0.5017
   33MOL    H3510979   3.247   5.987   5.429  1.4479 -1.2660 -0.1597
   33MOL    C3610980   3.053   5.913   5.529  0.2647 -0.0358 -0.2447
   33MOL    C3710981   2.957   6.029   5.522  0.5594  0.4504 -0.5418
   33MOL    C3810982   2.842   6.016   5.437  0.0827  0.4305 -0.9749
   33MOL    C3910983   2.765   6.131   5.408  0.9601 -0.7813 -0.0158
   33MOL    C4010984   2.771   6.244   5.491  0.1778 -0.3780 -0.7157
   33MOL    O4110985   2.685   6.347   5.471  0.1196 -0.2163  0.5645
   33MOL    C4210986   2.876   6.251   5.588 -0.1993  0.5010  0.3302
   33MOL    C4310987   2.969   6.147   5.598  0.3589 -0.0147  0.0726
   33MOL    C4410988   3.114   5.872   5.667  0.0210 -0.7667 -0.3362
   33MOL    H4510989   2.992   5.830   5.494 -2.3568  1.9641 -0.5774
   33MOL    H4610990   2.823   5.929   5.376  0.7159  0.5179 -1.2889
   33MOL    H4710991   2.691   6.137   5.330  1.5254  1.2814 -0.4137
   33MOL    H4810992   2.630   6.362   5.546 -0.8480  2.4421 -0.6125
   33MOL    H4910993   2.887   6.353   5.623  2.6626  0.2003  0.3992
   33MOL    H5010994   3.054   6.162   5.663  0.6602  0.9493 -0.5222
   33MOL    H5110995   3.208   5.819   5.649  0.9430  0.3686  1.0517
   33MOL    H5210996   3.135   5.954   5.736  1.5760 -0.0146 -1.6695
   33MOL    C5310997   3.038   5.756   5.731  0.1060  0.0805  0.0825
   33MOL    C5410998   3.116   5.714   5.848  0.2610  0.0426 -0.9360
   33MOL    C5510999   3.087   5.769   5.977  0.7292 -0.1263 -0.4085
   33MOL    C5611000   3.150   5.726   6.096 -0.3145  0.1320 -0.5561
   33MOL    C5711001   3.263   5.641   6.088  1.2746 -0.1388 -1.1012
   33MOL    O5811002   3.323   5.589   6.197 -1.2902 -0.1099  0.0298
   33MOL    C5911003   3.302   5.595   5.959 -0.2759  0.0118  0.1651
   33MOL    C6011004   3.232   5.635   5.842 -0.0896  0.3763 -0.5697
   33MOL    C6111005   2.883   5.767   5.751  0.3595 -0.0758 -0.4111
   33MOL    H6211006   3.044   5.668   5.667 -1.1228  1.0117 -1.3282
   33MOL    H6311007   3.005   5.839   5.988  1.0176 -0.0041  1.0240
   33MOL    H6411008   3.121   5.745   6.199 -2.1537  0.9208 -1.1961
   33MOL    H6511009   3.291   5.637   6.272 -1.4112 -2.1142  1.3028
   33MOL    H6611010   3.384   5.526   5.950 -0.9113 -0.4123 -2.8160
   33MOL    H6711011   3.253   5.591   5.745 -0.7795 -0.1806 -0.4748
   33MOL    H6811012   2.830   5.775   5.656 -0.1449  0.8471 -0.0572
   33MOL    H6911013   2.869   5.862   5.802 -3.5841 -0.9215  0.3115
   33MOL    C7011014   2.811   5.664   5.831 -0.9671 -0.3459  0.1115
   33MOL    C7111015   2.821   5.525   5.750  0.9123 -0.5772 -0.6010
   33MOL    C7211016   2.732   5.491   5.646  0.2218  0.5574 -0.1421
   33MOL    C7311017   2.747   5.377   5.568 -0.0661  0.1200  0.5544
   33MOL    C7411018   2.845   5.279   5.602  0.0320 -0.1930  1.1924
   33MOL    O7511019   2.874   5.178   5.510 -0.9532  0.3178 -0.5260
   33MOL    C7611020   2.921   5.303   5.714 -0.0738 -0.5607 -0.2712
   33MOL    C7711021   2.908   5.422   5.791  0.3728  0.0631  0.5085
   33MOL    C7811022   2.665   5.702   5.857 -0.2228  0.3669  0.3481
   33MOL    H7911023   2.853   5.651   5.931  0.5124 -2.7346 -0.7554
   33MOL    H8011024   2.654   5.560   5.617 -0.2605 -0.3569 -1.0156
   33MOL    H8111025   2.684   5.364   5.481 -0.8174 -2.8225  1.4502
   33MOL    H8211026   2.967   5.158   5.513 -1.4903 -2.0271  2.5090
   33MOL    H8311027   2.991   5.230   5.751  1.7596  1.2717 -0.0527
   33MOL    H8411028   2.968   5.438   5.879 -1.3911  0.6491  1.6297
   33MOL    H8511029   2.623   5.632   5.929 -0.0107 -0.9496 -0.7877
   33MOL    H8611030   2.609   5.692   5.765 -0.9044 -1.6612  0.9553
   33MOL    C8711031   2.630   5.841   5.914  0.2080  0.4816  0.4696
   33MOL    C8811032   2.721   5.881   6.019  0.2106 -0.2505  0.0078
   33MOL    C8911033   2.805   5.992   6.005  0.1766 -0.0881 -0.5997
   33MOL    C9011034   2.888   6.043   6.113  0.5938  0.4388  0.5087
   33MOL    C9111035   2.884   5.966   6.234  0.0483 -0.1089  0.4511
   33MOL    O9211036   2.963   5.998   6.341 -0.1213 -0.2510 -0.4809
   33MOL    C9311037   2.807   5.846   6.240 -0.0106 -0.0823 -0.7661
   33MOL    C9411038   2.731   5.798   6.135  0.4588 -0.2658 -0.5123
   33MOL    C9511039   2.485   5.865   5.948 -0.0911  0.5868  0.1103
   33MOL    H9611040   2.650   5.912   5.833 -0.2412 -0.9099 -0.8788
   33MOL    H9711041   2.801   6.048   5.913  0.3570  1.4221  0.2877
   33MOL    H9811042   2.954   6.128   6.101 -1.3535  1.6109 -2.6048
   33MOL    H9911043   3.007   6.081   6.337  0.3793 -0.4053  1.2912
   33MOL   H10011044   2.806   5.786   6.330  2.6891  0.4379 -0.3646
   33MOL   H10111045   2.676   5.708   6.159 -0.3880  0.4828  0.3776
   33MOL   H10211046   2.465   5.814   6.042  1.5593 -0.0121  0.1549
   33MOL   H10311047   2.471   5.969   5.975  2.1429  0.5380  1.6108
   33MOL   C10411048   2.376   5.827   5.846 -0.5472  0.5437 -0.0327
   33MOL   C10511049   2.401   5.873   5.701  0.2109 -0.6248  0.1573
   33MOL   C10611050   2.455   6.004   5.682  0.0097  0.0408  0.3376
   33MOL   C10711051   2.477   6.054   5.550 -0.4698  0.6398  0.0206
   33MOL   C10811052   2.457   5.961   5.443 -0.7050 -0.0560  0.7605
   33MOL   O10911053   2.492   5.999   5.316 -0.6887 -0.4853 -0.0623
   33MOL   C11011054   2.408   5.834   5.468  0.1011 -0.1239  0.1363
   33MOL   C11111055   2.369   5.786   5.596 -0.3047  0.0690 -0.1784
   33MOL   C11211056   2.238   5.870   5.879 -0.3748  0.4090 -0.0448
   33MOL   H11311057   2.385   5.719   5.847  0.5992  0.6348  1.8629
   33MOL   H11411058   2.475   6.072   5.764  0.0987 -0.4158  0.6940
   33MOL   H11511059   2.517   6.154   5.540 -0.1743  0.2644 -3.0188
   33MOL   H11611060   2.422   5.985   5.253  1.9110 -3.8957 -2.3894
   33MOL   H11711061   2.393   5.767   5.385 -0.9421  2.2679 -1.6780
   33MOL   H11811062   2.323   5.689   5.607 -0.6680 -0.0327 -2.2758
   33MOL   H11911063   2.175   5.880   5.790 -1.9572  0.2648  1.0423
   33MOL   H12011064   2.241   5.972   5.918 -2.3818 -0.3496  2.1965
   33MOL   C12111065   2.162   5.786   5.978  0.4653  0.5666 -0.2848
   33MOL   C12211066   2.059   5.880   6.047 -0.0051 -0.0586 -0.1154
   33MOL   C12311067   2.076   5.934   6.175 -1.0561  0.4542  0.6268
   33MOL   C12411068   1.987   6.031   6.230  0.0631 -0.0389 -0.3063
   33MOL   C12511069   1.864   6.054   6.167  0.6589  0.1408 -0.8444
   33MOL   O12611070   1.762   6.119   6.233 -0.1438 -0.2428  0.0805
   33MOL   C12711071   1.844   6.003   6.038 -0.2483 -0.2525 -1.2681
   33MOL   C12811072   1.943   5.920   5.983  0.1892  0.3272 -0.1311
   33MOL   C12911073   2.092   5.664   5.910 -0.0636  0.3153 -0.1287
   33MOL   H13011074   2.236   5.741   6.044  0.5447  0.4229 -0.4698
   33MOL   H13111075   2.168   5.926   6.231  0.5387 -1.7594 -2.1761
   33MOL   H13211076   1.999   6.064   6.332  2.5782 -0.1229 -0.5279
   33MOL   H13311077   1.683   6.141   6.186  0.7203  1.9625 -0.4189
   33MOL   H13411078   1.756   6.026   5.980  0.9794  2.8976 -1.9677
   33MOL   H13511079   1.934   5.892   5.880 -1.2914 -0.0437  0.0948
   33MOL   H13611080   2.156   5.625   5.831 -2.3530 -1.1432 -1.2899
   33MOL   H13711081   2.016   5.709   5.846 -0.8721 -1.3881 -0.3957
   33MOL   C13811082   2.033   5.545   5.998  0.1375 -0.8429  0.2228
   33MOL   C13911083   1.974   5.449   5.907  0.1318 -0.7090 -0.1653
   33MOL   C14011084   2.046   5.342   5.857 -0.3599 -0.3037  0.0643
   33MOL   C14111085   1.992   5.263   5.755 -0.5613 -0.3540 -0.4788
   33MOL   C14211086   1.851   5.261   5.734  0.0817 -0.0533 -0.5144
   33MOL   O14311087   1.805   5.184   5.636 -0.4808 -0.1144  0.1453
   33MOL   C14411088   1.771   5.354   5.795 -0.0328  0.0001  0.3268
   33MOL   C14511089   1.832   5.448   5.879  0.0349 -0.6203  0.4578
   33MOL   C14611090   1.946   5.590   6.118  0.2087  0.3547 -0.0633
   33MOL   H14711091   2.127   5.508   6.038 -0.0851 -2.2567 -0.5179
   33MOL   H14811092   2.149   5.317   5.877 -0.7567 -0.8387  1.5265
   33MOL   H14911093   2.064   5.203   5.702 -0.0775 -2.6560  2.6426
   33MOL   H15011094   1.723   5.215   5.603  0.3276  0.3645 -1.4762
   33MOL   H15111095   1.667   5.358   5.769 -0.1838 -3.8419  0.0421
   33MOL   H15211096   1.765   5.521   5.922  0.7189  1.0975 -1.2982
   33MOL   H15311097   1.882   5.664   6.071  1.4740  0.0427 -2.3717
   33MOL   H15411098   2.003   5.653   6.187  1.0605  2.0558 -2.2437
   33MOL   C15511099   1.875   5.486   6.206  0.2351 -0.1681  0.8101
   33MOL   C15611100   1.755   5.543   6.286 -0.7484  0.2997 -0.0788
   33MOL   C15711101   1.638   5.464   6.307 -0.3243  0.4572 -0.3772
   33MOL   C15811102   1.527   5.528   6.368  0.0587 -0.7531 -0.2194
   33MOL   C15911103   1.527   5.664   6.407 -0.1797  0.4177 -0.2286
   33MOL   O16011104   1.413   5.727   6.448  0.0815 -0.5276  0.2606
   33MOL   C16111105   1.650   5.737   6.398  0.3875 -0.3953  0.2001
   33MOL   C16211106   1.761   5.677   6.336  0.1029  0.0109  0.1516
   33MOL   C16311107   1.985   5.411   6.297 -1.4777 -0.3804  0.4706
   33MOL   H16411108   1.821   5.414   6.144  0.3711  0.3468  0.0835
   33MOL   H16511109   1.639   5.360   6.280 -1.6455  0.6448 -1.2417
   33MOL   H16611110   1.434   5.472   6.373  0.2817 -1.1983 -0.9463
   33MOL   H16711111   1.417   5.817   6.418 -2.2611 -0.1606  0.8985
   33MOL   H16811112   1.649   5.840   6.430 -0.3868 -0.6040  0.8614
   33MOL   H16911113   1.848   5.737   6.314  1.9834 -3.0072 -1.1044
   33MOL   H17011114   2.001   5.461   6.393 -2.7990 -0.2416  0.6342
   33MOL   H17111115   2.071   5.420   6.231 -1.3263  1.1094  0.8620
   33MOL   C17211116   1.966   5.255   6.330  0.8262 -0.5407  0.4482
   33MOL   C17311117   1.833   5.220   6.399 -0.5901 -0.2198 -0.1444
   33MOL   C17411118   1.757   5.107   6.361 -0.4314  0.4267  0.1791
   33MOL   C17511119   1.642   5.063   6.437 -0.1767 -0.2080 -1.2343
   33MOL   C17611120   1.613   5.136   6.553 -0.0618  0.6174  0.1441
   33MOL   O17711121   1.507   5.095   6.622  0.1782 -0.3583  0.7368
   33MOL   C17811122   1.691   5.249   6.593 -0.0608 -0.2905 -0.7566
   33MOL   C17911123   1.793   5.290   6.508  0.2976 -0.3715 -0.0956
   33MOL   C18011124   2.082   5.191   6.411  0.6183 -0.2475  0.0251
   33MOL   H18111125   1.973   5.213   6.230 -2.1525  1.1064 -0.4783
   33MOL   H18211126   1.782   5.052   6.272 -1.1126 -0.3282  0.4531
   33MOL   H18311127   1.584   4.976   6.411  0.3964 -0.9813  0.0084
   33MOL   H18411128   1.440   5.045   6.578 -0.3637  0.4874  0.5916
   33MOL   H18511129   1.658   5.301   6.682  0.4746 -1.2596  0.0261
   33MOL   H18611130   1.857   5.374   6.529  1.5428 -1.1609 -0.6538
   33MOL   H18711131   2.054   5.090   6.443  2.1140 -1.2226 -1.6454
   33MOL   H18811132   2.078   5.250   6.503  3.3322 -1.9325  1.2868
   33MOL   C18911133   2.226   5.180   6.350  0.0768  0.7323  0.8733
   33MOL   C19011134   2.290   5.318   6.339 -0.1122 -0.1667  0.2298
   33MOL   C19111135   2.299   5.411   6.445  0.3936 -0.3598 -0.2326
   33MOL   C19211136   2.344   5.540   6.423 -0.2593  0.0138 -0.0696
   33MOL   C19311137   2.376   5.583   6.294 -0.1497  0.6283  0.1580
   33MOL   O19411138   2.395   5.716   6.270 -0.7789  0.5991 -0.5564
   33MOL   C19511139   2.365   5.493   6.188  0.1898  0.3479  0.5611
   33MOL   C19611140   2.316   5.362   6.208 -0.1865 -0.9064 -0.3478
   33MOL   C19711141   2.314   5.083   6.431  0.3337 -0.0120 -0.0619
   33MOL   H19811142   2.203   5.139   6.251  0.1557  0.9454  0.7672
   33MOL   H19911143   2.264   5.377   6.541 -1.5297 -0.1563 -0.8496
   33MOL   H20011144   2.329   5.605   6.508 -0.4925  0.8665 -0.7592
   33MOL   H20111145   2.385   5.771   6.346  0.5854  0.0862  0.0276
   33MOL   H20211146   2.388   5.527   6.089  1.6935  0.0007  0.7807
   33MOL   H20311147   2.308   5.302   6.119 -0.7042 -2.6359  0.8385
   33MOL   H20411148   2.257   4.995   6.460  0.6164  0.0961  0.8342
   33MOL   H20511149   2.332   5.136   6.524 -2.1315 -0.5187  0.7395
   33MOL   C20611150   2.436   5.039   6.362 -0.1906 -0.2409 -0.2587
   33MOL   C20711151   2.412   4.947   6.246  0.3058  0.1609 -0.8394
   33MOL   C20811152   2.420   4.998   6.116 -0.4829  0.6440 -0.1234
   33MOL   C20911153   2.413   4.912   6.006 -0.2688  0.2491  0.0980
   33MOL   C21011154   2.393   4.775   6.023 -0.2737 -0.1556 -0.9098
   33MOL   O21111155   2.375   4.701   5.906 -0.7312  0.1548  0.0772
   33MOL   C21211156   2.382   4.720   6.150 -0.5102  0.6312 -0.2509
   33MOL   C21311157   2.392   4.806   6.263 -0.2245 -0.5563  0.3129
   33MOL   C21411158   2.538   4.984   6.462  0.1856 -0.4505  0.4545
   33MOL   H21511159   2.489   5.119   6.311  0.9585 -1.0753 -0.3840
   33MOL   H21611160   2.433   5.104   6.101  0.6600  0.5561  0.2224
   33MOL   H21711161   2.412   4.956   5.908  0.6483  0.9563  0.4051
   33MOL   H21811162   2.363   4.760   5.834 -0.4334  0.8381  0.5889
   33MOL   H21911163   2.357   4.617   6.169  1.0204  0.0975 -1.0716
   33MOL   H22011164   2.381   4.764   6.362 -0.1365 -1.0034  0.1322
   33MOL   H22111165   2.596   4.908   6.409 -1.3843 -1.3503 -0.0026
   33MOL   H22211166   2.488   4.924   6.538 -1.4150 -0.7924 -0.8527
   33MOL   C22311167   2.648   5.074   6.524  0.2679  0.3516 -0.1023
   33MOL   C22411168   2.607   5.113   6.666  0.2061  0.1864  0.3083
   33MOL   C22511169   2.654   5.033   6.773 -0.2636  0.3206  0.0004
   33MOL   C22611170   2.621   5.084   6.901 -0.3413 -0.0591 -0.6504
   33MOL   C22711171   2.554   5.207   6.924  0.1940 -0.4927  0.0214
   33MOL   O22811172   2.506   5.234   7.049 -0.4784 -0.1366  0.2773
   33MOL   C22911173   2.508   5.281   6.812  0.2532  0.7147 -0.6055
   33MOL   C23011174   2.533   5.233   6.691 -1.0558 -0.5417  0.9768
   33MOL   C23111175   2.682   5.201   6.437  0.3443  0.8429  0.1752
   33MOL   H23211176   2.738   5.017   6.545 -0.0217  0.2598  0.9410
   33MOL   H23311177   2.702   4.936   6.766 -0.1867  0.2667  1.1243
   33MOL   H23411178   2.638   5.017   6.984 -1.0162 -0.9006 -1.1805
   33MOL   H23511179   2.470   5.321   7.055  0.0205  0.0180  1.2647
   33MOL   H23611180   2.456   5.375   6.825  0.2918  0.8249 -1.2748
   33MOL   H23711181   2.500   5.294   6.608  3.3792 -0.0961 -0.6012
   33MOL   H23811182   2.592   5.254   6.407 -1.4210 -1.1393  1.8294
   33MOL   H23911183   2.711   5.272   6.514 -3.3404  0.5347  1.9251
   33MOL   C24011184   2.802   5.192   6.333  0.3316  0.3347  0.5876
   33MOL   C24111185   2.741   5.213   6.193  0.7801  0.4039 -0.7494
   33MOL   C24211186   2.679   5.329   6.153  0.3911  0.0824 -0.4499
   33MOL   C24311187   2.627   5.342   6.022 -0.0253  0.1921  0.1036
   33MOL   C24411188   2.641   5.240   5.926 -0.0961  0.1316  0.6204
   33MOL   O24511189   2.590   5.260   5.808 -0.4199 -0.1793  0.8772
   33MOL   C24611190   2.708   5.118   5.969  0.3438  0.1703  0.0380
   33MOL   C24711191   2.755   5.107   6.099  0.5474  0.5581  0.5946
   33MOL   C24811192   2.917   5.298   6.353 -0.0874  0.0318  0.0203
   33MOL   H24911193   2.853   5.099   6.355  1.6845  1.0977  0.7605
   33MOL   H25011194   2.659   5.409   6.223  0.5555  0.4024 -0.7678
   33MOL   H25111195   2.566   5.426   5.992 -0.5219 -0.3819 -0.5135
   33MOL   H25211196   2.648   5.322   5.768 -1.2404  1.8365  2.7321
   33MOL   H25311197   2.717   5.034   5.902 -0.3151  0.8053 -0.8620
   33MOL   H25411198   2.816   5.022   6.125  1.3385  0.5312 -1.2788
   33MOL   H25511199   2.987   5.288   6.270 -0.7304  1.6628 -0.7409
   33MOL   H25611200   2.879   5.398   6.330  0.3282  0.4590  1.1490
   33MOL   C25711201   2.993   5.288   6.488  0.0686  0.0202  0.6787
   33MOL   C25811202   3.043   5.149   6.518 -0.4410 -0.0261 -1.2169
   33MOL   C25911203   3.112   5.069   6.420 -0.1397  0.0831  0.3922
   33MOL   C26011204   3.141   4.934   6.446 -0.1574  0.4004  0.5508
   33MOL   C26111205   3.112   4.875   6.571 -0.1113  0.2383 -0.3231
   33MOL   O26211206   3.125   4.738   6.582  0.5489  0.2756  0.0484
   33MOL   C26311207   3.042   4.950   6.668  0.0412  0.1782  0.0149
   33MOL   C26411208   3.003   5.084   6.640  0.3531 -0.3451  0.1269
   33MOL   C26511209   3.113   5.393   6.487 -0.3157  0.1515 -0.1609
   33MOL   H26611210   2.930   5.330   6.566  3.9718  1.0633  3.4175
   33MOL   H26711211   3.156   5.103   6.327  0.2524  0.4745  0.7193
   33MOL   H26811212   3.200   4.881   6.372 -0.5545 -0.6759  0.9876
   33MOL   H26911213   3.129   4.686   6.503 -0.7628 -0.6152  0.5397
   33MOL   H27011214   3.010   4.894   6.755 -0.0813 -0.5688 -0.5013
   33MOL   H27111215   2.949   5.142   6.714 -0.6231 -0.2374 -0.6508
   33MOL   H27211216   3.128   5.430   6.386 -2.0371 -0.5942 -0.6901
   33MOL   H27311217   3.206   5.341   6.508  0.0162 -0.1122 -2.2347
   33MOL   C27411218   3.086   5.518   6.575  0.2323 -0.1823 -0.0421
   33MOL   C27511219   3.187   5.628   6.554 -0.1858  0.2797  0.2587
   33MOL   C27611220   3.329   5.595   6.559  0.4318 -0.4064  0.5817
   33MOL   C27711221   3.430   5.698   6.563  0.2076  0.1946  0.3915
   33MOL   C27811222   3.386   5.832   6.551 -0.1302  0.1647 -0.3752
   33MOL   O27911223   3.476   5.929   6.551 -1.0032 -0.1952 -0.2787
   33MOL   C28011224   3.251   5.869   6.538 -0.0524 -0.0823 -0.1567
   33MOL   C28111225   3.155   5.766   6.544  0.1942  0.4346  0.1006
   33MOL   C28211226   3.081   5.473   6.724  0.6121  0.7485 -0.2707
   33MOL   H28311227   2.988   5.555   6.546 -0.2492 -0.2069  1.4701
   33MOL   H28411228   3.363   5.494   6.576 -2.0127 -1.0720  1.6753
   33MOL   H28511229   3.536   5.679   6.564  0.2100  0.1810  0.0340
   33MOL   H28611230   3.564   5.897   6.540 -0.2014  1.4008  1.1729
   33MOL   H28711231   3.223   5.971   6.517  1.0879  0.7315  2.1958
   33MOL   H28811232   3.053   5.800   6.540  1.0176  2.7860 -2.3153
   33MOL   H28911233   3.125   5.374   6.733  0.3529  0.4649 -1.9744
   33MOL   H29011234   3.140   5.538   6.789  0.0972 -0.1209  1.0756
   33MOL   C29111235   2.940   5.484   6.795 -0.4517  0.9708 -0.5675
   33MOL   C29211236   2.859   5.597   6.750  0.1036 -0.6550  0.1737
   33MOL   C29311237   2.906   5.736   6.753 -0.4812  0.6725 -0.3624
   33MOL   C29411238   2.832   5.831   6.683  0.6023 -0.3896  0.5186
   33MOL   C29511239   2.701   5.802   6.642 -0.1582  0.1018 -0.7408
   33MOL   O29611240   2.624   5.905   6.588 -0.5467 -0.2544 -0.2521
   33MOL   C29711241   2.643   5.676   6.657 -0.3845  0.1162 -0.1738
   33MOL   C29811242   2.726   5.576   6.703 -0.7682  0.3464  0.4097
   33MOL   C29911243   2.954   5.481   6.955 -0.0745  0.1487 -0.1288
   33MOL   H30011244   2.897   5.388   6.767  1.1458 -0.1167  0.5983
   33MOL   H30111245   3.000   5.762   6.797 -0.7805  0.9632  0.1082
   33MOL   H30211246   2.876   5.929   6.674  0.3288 -0.2858  0.3216
   33MOL   H30311247   2.687   5.973   6.569  1.4516 -1.6387  1.1300
   33MOL   H30411248   2.544   5.645   6.626  0.1343 -1.7084 -0.0884
   33MOL   H30511249   2.683   5.477   6.700 -0.5458  0.1016  3.5355
   33MOL   H30611250   2.864   5.527   6.997 -1.0261  0.7833 -2.7714
   33MOL   H30711251   3.038   5.538   6.994  1.3187  0.0193 -2.8911
   33MOL   C30811252   2.959   5.343   7.023  0.6359  0.0276 -0.1692
   33MOL   C30911253   2.925   5.359   7.169 -0.1562 -0.5810 -0.0823
   33MOL   C31011254   2.802   5.310   7.222  0.3388  0.4410 -0.8105
   33MOL   C31111255   2.772   5.329   7.357  0.4063 -0.0052 -1.0358
   33MOL   C31211256   2.853   5.417   7.437 -0.1935  0.2787  0.3969
   33MOL   O31311257   2.818   5.436   7.569 -0.1643 -0.2764 -0.5250
   33MOL   C31411258   2.972   5.474   7.383 -0.4515  0.5449  0.4612
   33MOL   C31511259   3.005   5.448   7.247 -0.1049 -0.1530  0.8796
   33MOL   C31611260   3.102   5.263   7.001  0.3940 -0.1835  1.0428
   33MOL   H31711261   2.876   5.295   6.972  0.6771  2.0929 -2.2523
   33MOL   H31811262   2.747   5.244   7.158  0.1687 -3.2099  2.8873
   33MOL   H31911263   2.693   5.271   7.403  1.2705 -0.7504 -0.4677
   33MOL   H32011264   2.833   5.364   7.629  2.5221 -0.0464 -0.8880
   33MOL   H32111265   3.039   5.541   7.435 -0.0427 -0.7272  1.5942
   33MOL   H32211266   3.094   5.488   7.201  0.8266 -1.2744  1.6765
   33MOL   H32311267   3.186   5.325   7.033 -1.5861  1.9689  2.1976
   33MOL   H32411268   3.124   5.250   6.895 -0.5960  3.5113  0.3186
   33MOL   C32511269   3.111   5.116   7.057 -0.0638 -0.0253 -0.0480
   33MOL   C32611270   3.118   5.110   7.214  0.2481  0.3559 -0.0966
   33MOL   C32711271   3.206   5.193   7.285  0.1869 -0.0323 -0.2678
   33MOL   C32811272   3.204   5.197   7.423  0.0682  0.0058 -0.8513
   33MOL   C32911273   3.115   5.117   7.498 -0.2218  0.1636 -0.4912
   33MOL   O33011274   3.108   5.127   7.636  1.3187  0.8204 -0.1595
   33MOL   C33111275   3.020   5.041   7.426  0.0648  0.1365 -0.3970
   33MOL   C33211276   3.021   5.038   7.286 -0.0324 -0.5456  0.1516
   33MOL   C33311277   3.208   5.019   6.992  0.4348  0.0054  0.2638
   33MOL   H33411278   3.014   5.074   7.031  0.5550 -0.9657 -0.8611
   33MOL   H33511279   3.260   5.267   7.227  0.1754  0.2979  0.1456
   33MOL   H33611280   3.269   5.269   7.471  2.2469 -0.8425 -2.4701
   33MOL   H33711281   3.121   5.212   7.675 -1.7839  1.6164 -0.6630
   33MOL   H33811282   2.947   4.978   7.475  1.5007 -1.2119  0.0657
   33MOL   H33911283   2.948   4.984   7.229 -0.6919 -0.2854  0.7412
   33MOL   H34011284   3.180   4.920   7.028 -1.9156  1.3245  2.2109
   33MOL   H34111285   3.312   5.037   7.019  1.6841 -0.5826 -3.8430
   33MOL   H34211286   3.191   5.026   6.884 -0.6168 -2.2317  0.2555
   34MOL     C111287   5.249   0.291   6.860 -0.3784  0.8362  0.0277
   34MOL     C211288   5.230   0.287   7.009 -0.2002 -0.2079 -0.1073
   34MOL     C311289   5.340   0.328   7.095 -0.2738  0.0211  0.7567
   34MOL     C411290   5.311   0.335   7.231  0.0853 -0.9486 -0.3324
   34MOL     C511291   5.186   0.299   7.288  0.0975  0.1874  0.2087
   34MOL     O611292   5.159   0.327   7.416  0.4272  0.2569  0.9161
   34MOL     C711293   5.085   0.245   7.204  0.5007 -0.9818  0.4273
   34MOL     C811294   5.109   0.241   7.064  0.2043 -0.2913 -0.5510
   34MOL     C911295   5.205   0.169   6.774 -0.2118  0.1550 -0.2457
   34MOL    H1011296   5.202   0.379   6.815 -0.7987  1.6044  1.9513
   34MOL    H1111297   5.433   0.358   7.049 -0.6418  1.4132  0.8833
   34MOL    H1211298   5.385   0.387   7.290  1.1268 -1.5638 -1.0922
   34MOL    H1311299   5.232   0.332   7.477  1.5694 -0.2144 -0.3801
   34MOL    H1411300   4.989   0.212   7.241 -0.2030  0.8234  0.3104
   34MOL    H1511301   5.039   0.196   6.994  0.9406  0.8085 -2.0137
   34MOL    H1611302   5.234   0.194   6.672  1.9719 -0.8303  0.1035
   34MOL    H1711303   5.099   0.148   6.780  0.1611 -1.7773 -0.0388
   34MOL    H1811304   5.355   0.315   6.852 -0.0312  0.3477  2.9328
   34MOL    C1911305   5.291   0.049   6.801 -0.9206 -0.0169 -0.2801
   34MOL    C2011306   5.447   0.075   6.792  0.3413  0.5433 -0.9579
   34MOL    C2111307   5.512   0.118   6.674 -0.6986 -0.8410  0.2284
   34MOL    C2211308   5.654   0.133   6.670  0.3090 -0.3819  0.6850
   34MOL    C2311309   5.729   0.099   6.782  0.0861 -0.4348  0.2541
   34MOL    O2411310   5.859   0.106   6.773 -0.0598 -0.0651 -0.0429
   34MOL    C2511311   5.665   0.068   6.904 -0.4772  0.2176  0.5878
   34MOL    C2611312   5.524   0.051   6.907  0.7297  0.6681  0.5078
   34MOL    C2711313   5.246   7.959   6.720  0.0652 -0.1335  0.2879
   34MOL    H2811314   5.272   0.023   6.905 -0.4381 -2.1994 -0.7006
   34MOL    H2911315   5.458   0.134   6.581 -0.1891  1.9547  0.3586
   34MOL    H3011316   5.697   0.166   6.577 -1.1137 -0.9209 -0.1803
   34MOL    H3111317   5.894   0.071   6.853 -0.6473  2.0325  1.1851
   34MOL    H3211318   5.723   0.053   6.994  0.3182  0.8290  0.1868
   34MOL    H3311319   5.480   0.028   7.003 -1.5220 -0.9953 -0.8829
   34MOL    H3411320   5.240   7.979   6.613  1.1154  1.4498  0.5145
   34MOL    H3511321   5.143   7.939   6.749  0.1738 -1.2618 -0.0493
   34MOL    C3611322   5.327   7.829   6.741 -0.3852  0.2261 -0.1223
   34MOL    C3711323   5.435   7.816   6.632 -0.1767  0.2411 -0.2629
   34MOL    C3811324   5.394   7.783   6.502 -0.1831  0.5126 -0.6168
   34MOL    C3911325   5.494   7.778   6.399 -0.2115 -0.3947  0.0615
   34MOL    C4011326   5.628   7.809   6.425 -0.0256 -0.4379 -0.0939
   34MOL    O4111327   5.720   7.803   6.326  0.4860 -1.0242 -0.4932
   34MOL    C4211328   5.666   7.838   6.556  0.3056  0.7795 -0.3669
   34MOL    C4311329   5.568   7.839   6.660  0.8404  0.0371  0.3132
   34MOL    C4411330   5.238   7.702   6.740  0.1406 -0.2271  0.3919
   34MOL    H4511331   5.379   7.826   6.836  0.2571  3.0413 -0.3184
   34MOL    H4611332   5.293   7.759   6.476  1.0961 -2.9438 -2.6772
   34MOL    H4711333   5.458   7.755   6.300 -2.1925  2.5322  0.0405
   34MOL    H4811334   5.805   7.840   6.346 -0.2511 -0.0888  1.0918
   34MOL    H4911335   5.769   7.845   6.586  0.3077  2.1148 -0.6660
   34MOL    H5011336   5.594   7.867   6.760 -0.7412  2.9344 -0.0339
   34MOL    H5111337   5.155   7.723   6.807  0.2680  1.6009 -0.0029
   34MOL    H5211338   5.175   7.695   6.651 -0.0239 -2.9737  0.6847
   34MOL    C5311339   5.299   7.565   6.766  0.5912 -0.2148  0.6621
   34MOL    C5411340   5.384   7.579   6.892 -0.1904 -0.0348 -0.3783
   34MOL    C5511341   5.316   7.602   7.012 -0.2103  0.2990 -0.4952
   34MOL    C5611342   5.390   7.636   7.127  0.5974  0.2916  0.3822
   34MOL    C5711343   5.530   7.659   7.114 -1.4624  0.3812 -0.3600
   34MOL    O5811344   5.610   7.697   7.221  0.7619  0.4311  0.0336
   34MOL    C5911345   5.596   7.633   6.997 -0.3253 -0.1035  0.0729
   34MOL    C6011346   5.521   7.592   6.887 -0.3229  0.1873  0.0984
   34MOL    C6111347   5.200   7.449   6.786  0.0765  0.3667  0.5745
   34MOL    H6211348   5.363   7.535   6.684  2.3443  2.6884  0.9118
   34MOL    H6311349   5.210   7.620   7.012 -0.7775 -2.6509 -0.0293
   34MOL    H6411350   5.333   7.658   7.215 -1.9473 -0.5727 -1.0048
   34MOL    H6511351   5.570   7.682   7.306  1.3135  0.0664  0.2277
   34MOL    H6611352   5.704   7.636   6.999 -0.3237 -0.6997  1.2595
   34MOL    H6711353   5.581   7.571   6.799 -0.5735 -1.2978  0.2629
   34MOL    H6811354   5.126   7.474   6.861 -3.9343  0.2782 -3.1717
   34MOL    H6911355   5.260   7.370   6.831  0.1497  0.7191  1.0960
   34MOL    C7011356   5.139   7.382   6.661 -0.0398 -0.0490  0.2480
   34MOL    C7111357   5.024   7.468   6.601 -0.6830  0.0401  0.8122
   34MOL    C7211358   4.902   7.489   6.663  0.4344 -0.3823  0.4094
   34MOL    C7311359   4.813   7.582   6.617 -0.7155 -0.0453 -0.1062
   34MOL    C7411360   4.835   7.658   6.502 -0.1364 -0.7212 -0.2203
   34MOL    O7511361   4.746   7.764   6.464 -0.0030  0.5097 -0.2704
   34MOL    C7611362   4.959   7.628   6.436  0.3730 -0.1585 -0.3810
   34MOL    C7711363   5.051   7.534   6.478 -0.3186 -0.1838  0.0637
   34MOL    C7811364   5.102   7.236   6.688  0.3296 -0.2805  0.1305
   34MOL    H7911365   5.211   7.385   6.579 -1.4006 -3.8643 -1.1879
   34MOL    H8011366   4.886   7.429   6.751  0.4715 -0.6142  0.2564
   34MOL    H8111367   4.716   7.590   6.664 -0.6046 -3.9571  0.9652
   34MOL    H8211368   4.787   7.849   6.470  1.1732 -0.0947  0.5842
   34MOL    H8311369   4.985   7.690   6.351  1.7702  1.5096  1.2234
   34MOL    H8411370   5.139   7.528   6.417 -1.5652 -1.5451 -1.6584
   34MOL    H8511371   5.052   7.230   6.785 -0.3440 -0.9158 -0.2499
   34MOL    H8611372   5.197   7.185   6.703  0.3356 -0.4176 -0.3685
   34MOL    C8711373   5.014   7.156   6.585 -0.0461  0.2457 -0.1771
   34MOL    C8811374   4.887   7.112   6.658  0.8849  0.0317  0.0556
   34MOL    C8911375   4.891   7.018   6.761  0.0896 -0.4205  0.4328
   34MOL    C9011376   4.777   6.965   6.824  0.3888 -0.4985 -0.1947
   34MOL    C9111377   4.654   7.025   6.795  0.0737  0.2159  1.1010
   34MOL    O9211378   4.542   6.973   6.848  0.4389  0.5000  0.4010
   34MOL    C9311379   4.645   7.128   6.699  0.2885  0.4032  0.0839
   34MOL    C9411380   4.763   7.175   6.641  0.0202  0.1317  0.4431
   34MOL    C9511381   5.092   7.028   6.539  0.2665  0.1975  0.2771
   34MOL    H9611382   4.982   7.211   6.497 -0.4849 -0.1798 -0.2891
   34MOL    H9711383   4.988   6.979   6.790 -0.3776 -1.6544  0.3488
   34MOL    H9811384   4.781   6.887   6.898 -1.8451 -0.1185  0.3427
   34MOL    H9911385   4.459   7.019   6.845  0.3408  0.3546  0.7977
   34MOL   H10011386   4.550   7.170   6.670  1.1104 -0.8403 -4.8534
   34MOL   H10111387   4.755   7.253   6.567 -1.0824  0.3933  0.8385
   34MOL   H10211388   5.128   6.975   6.627  1.1138 -3.0501 -1.9655
   34MOL   H10311389   5.028   6.950   6.499 -0.9787  1.3094  0.0706
   34MOL   C10411390   5.206   7.070   6.437  0.4417 -0.1421 -0.0281
   34MOL   C10511391   5.154   7.063   6.295 -0.5189 -0.6197 -0.1973
   34MOL   C10611392   5.132   7.185   6.238 -1.0297  0.3327 -0.0569
   34MOL   C10711393   5.084   7.189   6.111  0.0004 -0.4626 -0.0477
   34MOL   C10811394   5.044   7.071   6.041 -0.3690  0.1217  0.9276
   34MOL   O10911395   4.991   7.077   5.916 -0.0220  0.2571  0.4437
   34MOL   C11011396   5.051   6.948   6.105 -0.9392 -0.1287 -0.3207
   34MOL   C11111397   5.107   6.942   6.233  0.2097 -0.6006 -0.2358
   34MOL   C11211398   5.328   6.987   6.447  0.9751  0.0636  0.2676
   34MOL   H11311399   5.230   7.174   6.455 -2.0842  0.4523  0.0953
   34MOL   H11411400   5.149   7.276   6.294  0.9021 -0.9674  1.5452
   34MOL   H11511401   5.076   7.285   6.062  1.3668 -0.0232  0.5421
   34MOL   H11611402   4.929   7.010   5.893 -2.1333  1.7262  1.7094
   34MOL   H11711403   5.021   6.855   6.058  0.7308 -0.9616  0.2435
   34MOL   H11811404   5.112   6.840   6.268 -2.4640 -0.1182  1.7088
   34MOL   H11911405   5.295   6.886   6.420 -0.1330  0.5112 -0.0864
   34MOL   H12011406   5.353   6.974   6.552 -0.3555 -0.8236  0.4974
   34MOL   C12111407   5.457   7.037   6.372  0.9101 -0.0113  0.3431
   34MOL   C12211408   5.490   7.180   6.421  0.2373  0.5557 -0.2635
   34MOL   C12311409   5.529   7.193   6.555 -0.3067 -0.4382 -0.1464
   34MOL   C12411410   5.581   7.318   6.589  0.2607 -0.7814 -0.1002
   34MOL   C12511411   5.600   7.421   6.497  0.4147  0.3698  0.0028
   34MOL   O12611412   5.665   7.536   6.537 -0.7781  0.2735  0.1875
   34MOL   C12711413   5.547   7.410   6.364  0.9305  0.2035  0.1887
   34MOL   C12811414   5.501   7.283   6.326  0.2590 -0.1103 -0.3101
   34MOL   C12911415   5.579   6.942   6.393  0.2594 -0.3688 -0.1476
   34MOL   H13011416   5.432   7.050   6.267  1.2058 -0.9062  0.1577
   34MOL   H13111417   5.512   7.116   6.628 -1.3068 -0.4187 -0.3613
   34MOL   H13211418   5.607   7.331   6.693  2.6907 -0.5634 -0.7014
   34MOL   H13311419   5.613   7.613   6.524 -0.2691  0.4641 -0.7444
   34MOL   H13411420   5.564   7.491   6.295 -0.8264 -0.6452 -1.2792
   34MOL   H13511421   5.477   7.267   6.222  1.9419  2.1744 -1.0717
   34MOL   H13611422   5.580   6.916   6.499  1.4171  0.0640 -0.0502
   34MOL   H13711423   5.667   7.004   6.379 -0.6828  0.9231 -0.4155
   34MOL   C13811424   5.589   6.816   6.296 -1.4273  0.4601  0.0647
   34MOL   C13911425   5.486   6.707   6.316  0.0075  0.8212 -0.3548
   34MOL   C14011426   5.422   6.639   6.210 -0.1295 -1.2730  0.0521
   34MOL   C14111427   5.332   6.531   6.227  0.3524 -0.7659 -0.2456
   34MOL   C14211428   5.322   6.478   6.354  0.1816 -0.3377  0.5958
   34MOL   O14311429   5.239   6.373   6.385  0.5752 -0.7123  0.4234
   34MOL   C14411430   5.391   6.543   6.457  0.2607 -0.2556 -1.0230
   34MOL   C14511431   5.473   6.653   6.445 -0.5810  0.1057  0.0195
   34MOL   C14611432   5.727   6.752   6.300  0.0862  0.2829 -0.2440
   34MOL   H14711433   5.560   6.857   6.199  0.4361  0.4686 -0.5036
   34MOL   H14811434   5.439   6.688   6.115 -1.2464 -0.5885  0.2007
   34MOL   H14911435   5.282   6.487   6.141  0.7277 -2.0954  0.2117
   34MOL   H15011436   5.195   6.342   6.307 -1.0532  0.4852  0.8394
   34MOL   H15111437   5.377   6.500   6.555  0.6739  0.3421 -0.6975
   34MOL   H15211438   5.534   6.700   6.520  0.6658  0.2991 -1.1032
   34MOL   H15311439   5.716   6.670   6.229  0.2266 -0.8004  0.9786
   34MOL   H15411440   5.751   6.698   6.391 -1.8403  0.8542  0.6351
   34MOL   C15511441   5.845   6.846   6.249 -0.1326 -0.2540  0.1216
   34MOL   C15611442   5.822   6.914   6.108 -0.4720  0.7001 -0.7979
   34MOL   C15711443   5.820   6.838   5.990 -0.6218  0.1922 -0.4710
   34MOL   C15811444   5.816   6.905   5.868 -0.7781  0.3229  0.6651
   34MOL   C15911445   5.796   7.043   5.854  0.5878 -0.2664 -0.2622
   34MOL   O16011446   5.775   7.099   5.733 -0.0640 -0.9926  0.0247
   34MOL   C16111447   5.782   7.121   5.969 -0.2533 -0.1290 -0.0300
   34MOL   C16211448   5.791   7.055   6.096 -0.6603 -0.1762  0.6918
   34MOL   C16311449   5.977   6.766   6.244  0.0391  0.0976 -0.4745
   34MOL   H16411450   5.856   6.922   6.326 -0.0221 -0.2904  0.1422
   34MOL   H16511451   5.829   6.730   5.989  1.1211  0.3141 -3.2809
   34MOL   H16611452   5.814   6.840   5.782 -0.2722 -1.7501  2.1917
   34MOL   H16711453   5.767   7.193   5.739 -1.6334 -1.1510  0.9525
   34MOL   H16811454   5.768   7.228   5.964  1.1972  0.2117  2.7247
   34MOL   H16911455   5.785   7.119   6.183  0.8750 -1.6991  1.9516
   34MOL   H17011456   5.956   6.677   6.186 -0.5310 -0.6220  0.7994
   34MOL   H17111457   6.001   6.721   6.340 -0.8767  1.9292  0.6547
   34MOL   C17211458   6.106   6.835   6.190 -0.2265  0.3436 -1.1200
   34MOL   C17311459   6.188   6.735   6.113 -0.1018  0.4630 -1.0017
   34MOL   C17411460   6.190   6.753   5.971 -0.1233 -0.9518  0.2007
   34MOL   C17511461   6.245   6.650   5.891  0.5410 -0.7018  0.4049
   34MOL   C17611462   6.317   6.544   5.954  0.1938  0.1397 -0.7535
   34MOL   O17711463   6.377   6.437   5.886  0.0871  0.0066 -0.2658
   34MOL   C17811464   6.311   6.535   6.093  0.9747  0.3545  0.1426
   34MOL   C17911465   6.243   6.626   6.175 -0.0308  0.5453 -0.9791
   34MOL   C18011466   6.186   6.912   6.303  0.1545 -0.4419  0.4797
   34MOL   H18111467   6.077   6.915   6.121 -2.6943  0.1273 -0.3846
   34MOL   H18211468   6.142   6.830   5.914  0.2316 -0.1461  0.9883
   34MOL   H18311469   6.243   6.666   5.784  0.1660  1.2918  0.7077
   34MOL   H18411470   6.346   6.456   5.799  1.4353  1.8687 -0.3629
   34MOL   H18511471   6.360   6.452   6.141 -0.4892 -0.1823  0.7268
   34MOL   H18611472   6.252   6.618   6.282  0.1596  2.0225 -0.8775
   34MOL   H18711473   6.265   6.853   6.351  1.3501 -1.2947 -2.4149
   34MOL   H18811474   6.120   6.915   6.390 -2.9146 -0.8834 -1.7697
   34MOL   C18911475   6.230   7.054   6.258 -0.4268 -0.0421 -0.6021
   34MOL   C19011476   6.105   7.152   6.242  0.6412 -0.0952 -0.3786
   34MOL   C19111477   6.085   7.221   6.120  0.3781  0.3794  0.0018
   34MOL   C19211478   5.994   7.322   6.112 -0.4581  0.5769 -0.9734
   34MOL   C19311479   5.912   7.354   6.219  0.2322  0.0455 -0.1351
   34MOL   O19411480   5.824   7.459   6.207  0.3382 -0.3552 -0.5177
   34MOL   C19511481   5.932   7.290   6.342  0.0730  0.2480 -0.5588
   34MOL   C19611482   6.030   7.191   6.352  0.2094  0.0955 -0.4337
   34MOL   C19711483   6.339   7.115   6.337  0.2077 -0.3620 -0.7022
   34MOL   H19811484   6.279   7.037   6.162  1.3993  0.3375  0.2363
   34MOL   H19911485   6.143   7.182   6.038 -1.4123 -0.4847 -0.8799
   34MOL   H20011486   5.972   7.359   6.012 -0.7389 -0.4222 -1.2884
   34MOL   H20111487   5.790   7.495   6.288  0.6931 -1.1404 -0.0110
   34MOL   H20211488   5.863   7.303   6.424  1.0333  0.4733  0.2233
   34MOL   H20311489   6.040   7.146   6.450 -1.9889 -2.1173 -1.1750
   34MOL   H20411490   6.433   7.065   6.315 -0.1839 -0.5014 -2.1063
   34MOL   H20511491   6.323   7.099   6.444  0.4998 -1.0401 -0.7559
   34MOL   C20611492   6.380   7.263   6.321  0.7357 -0.1569  0.0606
   34MOL   C20711493   6.430   7.305   6.182  0.2865 -0.6582  0.5296
   34MOL   C20811494   6.364   7.407   6.111  0.7407  0.2854  0.3964
   34MOL   C20911495   6.415   7.455   5.986 -0.2949 -0.1844 -0.4257
   34MOL   C21011496   6.527   7.398   5.935  0.0554  0.1007 -1.1430
   34MOL   O21111497   6.583   7.449   5.827 -0.2233  0.5606 -0.0161
   34MOL   C21211498   6.594   7.296   6.002  0.7490  0.4417  1.0245
   34MOL   C21311499   6.547   7.251   6.130 -0.3544  0.1396 -0.2983
   34MOL   C21411500   6.473   7.319   6.422  0.2700 -0.2494 -1.2078
   34MOL   H21511501   6.289   7.321   6.336  1.9016  1.2989  1.5698
   34MOL   H21611502   6.271   7.446   6.150  1.7248 -0.1277  3.2838
   34MOL   H21711503   6.366   7.536   5.932 -1.1365  2.2650  3.7670
   34MOL   H21811504   6.519   7.505   5.785  0.1187  0.9172 -0.0628
   34MOL   H21911505   6.682   7.250   5.960 -0.2842 -0.4076 -0.2368
   34MOL   H22011506   6.595   7.173   6.188  0.2869  0.1438 -0.8241
   34MOL   H22111507   6.504   7.420   6.393  2.1459 -1.1796 -2.5096
   34MOL   H22211508   6.566   7.264   6.412 -0.2762 -0.7675 -3.6562
   34MOL   C22311509   6.422   7.329   6.565 -0.3822  0.0131  0.1150
   34MOL   C22411510   6.293   7.406   6.579 -0.0553  0.7426  0.1115
   34MOL   C22511511   6.274   7.532   6.510 -0.1943  0.4627  0.1490
   34MOL   C22611512   6.147   7.597   6.527 -0.1873  0.1807  0.4342
   34MOL   C22711513   6.046   7.539   6.607 -0.2396  0.2854 -1.2073
   34MOL   O22811514   5.922   7.600   6.621  0.6130  0.0939  0.2666
   34MOL   C22911515   6.067   7.410   6.669  1.4723  0.1065  0.6113
   34MOL   C23011516   6.189   7.342   6.650 -0.9130 -0.8797 -0.2407
   34MOL   C23111517   6.528   7.388   6.651 -0.1600  0.0152  0.4573
   34MOL   H23211518   6.410   7.226   6.599  1.7810  0.2547  1.6589
   34MOL   H23311519   6.348   7.574   6.444  1.0370 -0.7534  0.7445
   34MOL   H23411520   6.128   7.694   6.484  0.1104 -0.1922 -0.5496
   34MOL   H23511521   5.844   7.554   6.593  0.5513  0.9513 -0.9910
   34MOL   H23611522   5.980   7.365   6.714  0.2171 -0.7841 -2.5411
   34MOL   H23711523   6.191   7.237   6.674  1.6794 -0.8338 -0.1160
   34MOL   H23811524   6.626   7.347   6.628  0.2443  0.6972  0.9676
   34MOL   H23911525   6.541   7.495   6.641 -0.2253  0.2933  2.9758
   34MOL   C24011526   6.503   7.358   6.805  0.2768 -0.3743  0.0757
   34MOL   C24111527   6.545   7.229   6.854 -0.6011 -0.2166 -0.0210
   34MOL   C24211528   6.456   7.116   6.858  0.3109  0.2369 -0.9215
   34MOL   C24311529   6.500   6.989   6.887  0.1135  0.1424 -0.9577
   34MOL   C24411530   6.635   6.965   6.917 -0.1074  0.5086 -0.5669
   34MOL   O24511531   6.685   6.842   6.924 -0.1997  0.2526 -0.2517
   34MOL   C24611532   6.728   7.071   6.921  0.2619  0.4136 -0.3956
   34MOL   C24711533   6.682   7.202   6.890 -0.1553 -0.0438  0.5149
   34MOL   C24811534   6.549   7.474   6.901  0.0154 -0.2495  0.2858
   34MOL   H24911535   6.394   7.353   6.812  0.4899 -3.1769  2.1174
   34MOL   H25011536   6.355   7.138   6.826 -0.3529  1.1205  1.6381
   34MOL   H25111537   6.424   6.913   6.885  0.9215 -0.7261  0.8329
   34MOL   H25211538   6.775   6.844   6.896 -0.1817 -1.6704 -0.4281
   34MOL   H25311539   6.829   7.045   6.950  0.4199  2.7468  1.2304
   34MOL   H25411540   6.752   7.280   6.912  0.5566 -0.8473  1.1415
   34MOL   H25511541   6.658   7.471   6.910  0.0058 -0.2121  0.4055
   34MOL   H25611542   6.514   7.570   6.864 -3.1567 -0.9897  1.2328
   34MOL   C25711543   6.496   7.467   7.044 -0.9186  0.2608 -0.2988
   34MOL   C25811544   6.553   7.575   7.130 -0.0293 -0.2500 -0.0706
   34MOL   C25911545   6.519   7.711   7.114  0.1135  0.0744  0.0496
   34MOL   C26011546   6.580   7.813   7.189 -0.3696  0.2973  0.1457
   34MOL   C26111547   6.696   7.788   7.269  0.5717 -0.1106 -0.2360
   34MOL   O26211548   6.751   7.889   7.339 -0.1486 -0.9260  0.7010
   34MOL   C26311549   6.729   7.651   7.289  0.2114  0.0144 -0.1688
   34MOL   C26411550   6.654   7.549   7.231  0.6789  0.7515  0.4469
   34MOL   C26511551   6.341   7.455   7.060  0.0289 -0.5472 -0.2511
   34MOL   H26611552   6.540   7.376   7.083  0.2246 -0.3126 -2.8865
   34MOL   H26711553   6.443   7.732   7.040  0.9183 -2.0545 -1.4134
   34MOL   H26811554   6.542   7.913   7.173  1.5067  0.9310 -0.4213
   34MOL   H26911555   6.836   7.858   7.367 -0.0560 -0.6395  0.7341
   34MOL   H27011556   6.814   7.625   7.351  0.4557  2.1412  0.4114
   34MOL   H27111557   6.687   7.448   7.247 -0.0204  0.3623 -0.5783
   34MOL   H27211558   6.310   7.354   7.035  1.4654 -0.6329 -1.7797
   34MOL   H27311559   6.300   7.522   6.985 -1.2589 -0.7446  0.2624
   34MOL   C27411560   6.269   7.504   7.194 -0.0926  0.0339  0.0395
   34MOL   C27511561   6.321   7.437   7.321  0.6219  0.0949 -0.1289
   34MOL   C27611562   6.365   7.307   7.319  0.6583 -1.0716 -0.4759
   34MOL   C27711563   6.384   7.246   7.441 -0.4298  1.0007 -1.0137
   34MOL   C27811564   6.372   7.310   7.562 -0.2762  0.3080 -0.0040
   34MOL   O27911565   6.386   7.239   7.679  0.1620 -0.0877 -0.4302
   34MOL   C28011566   6.330   7.444   7.565 -0.7473 -0.3168  0.0258
   34MOL   C28111567   6.301   7.508   7.440 -0.3544  0.1719  0.4872
   34MOL   C28211568   6.112   7.475   7.196  0.6860 -0.9308 -0.4632
   34MOL   H28311569   6.280   7.612   7.204 -0.7767  0.2202 -1.1305
   34MOL   H28411570   6.378   7.249   7.229 -1.3606 -0.7730 -0.9833
   34MOL   H28511571   6.437   7.152   7.435  0.1077  1.4011 -3.3028
   34MOL   H28611572   6.385   7.291   7.758  0.6591  1.2225 -1.2714
   34MOL   H28711573   6.318   7.499   7.657 -1.4821  0.4544 -0.5290
   34MOL   H28811574   6.247   7.601   7.433 -0.5185  0.2220  2.1937
   34MOL   H28911575   6.096   7.375   7.237 -0.2551 -1.6364 -2.5041
   34MOL   H29011576   6.068   7.549   7.264  1.1327 -1.2525  0.1731
   34MOL   C29111577   6.031   7.492   7.071  0.1140 -0.1058 -0.7619
   34MOL   C29211578   6.030   7.637   7.029  0.2544 -0.2525  0.5894
   34MOL   C29311579   5.949   7.731   7.101  0.3046 -0.2750  0.7170
   34MOL   C29411580   5.931   7.863   7.059 -0.0269  0.0502  0.2613
   34MOL   C29511581   6.019   7.911   6.962 -0.2795  0.1304 -0.8875
   34MOL   O29611582   6.036   0.004   6.946 -0.1347  0.3828  0.3987
   34MOL   C29711583   6.088   7.826   6.879 -0.5692  0.0696 -0.9528
   34MOL   C29811584   6.089   7.686   6.914  0.5346 -0.2216  0.1525
   34MOL   C29911585   5.892   7.420   7.082  0.2052 -0.3892 -0.4511
   34MOL   H30011586   6.097   7.432   7.008  0.3818 -0.8522  0.2164
   34MOL   H30111587   5.894   7.707   7.190  0.1707  0.3381  0.8010
   34MOL   H30211588   5.874   7.931   7.121  0.5379  0.1580  0.6629
   34MOL   H30311589   6.112   0.034   6.900  0.0893 -0.5790  0.1340
   34MOL   H30411590   6.150   7.847   6.793 -0.1546  2.9282  0.0154
   34MOL   H30511591   6.149   7.615   6.859  2.2882 -0.2487  2.0347
   34MOL   H30611592   5.840   7.446   6.989 -0.8839 -0.1886  0.2012
   34MOL   H30711593   5.847   7.455   7.175 -0.6568  1.1903 -1.4437
   34MOL   C30811594   5.881   7.265   7.099 -0.9553 -0.8963 -0.1566
   34MOL   C30911595   5.922   7.180   6.981  0.2642  0.0745 -0.6362
   34MOL   C31011596   5.839   7.168   6.869  0.3304 -0.0718  0.2172
   34MOL   C31111597   5.882   7.110   6.758 -0.5705  0.7791 -0.0092
   34MOL   C31211598   6.010   7.044   6.757  0.2479 -0.1350 -0.2356
   34MOL   O31311599   6.031   6.965   6.649 -0.3148 -1.4031 -0.0014
   34MOL   C31411600   6.091   7.049   6.869  0.8685  0.0077  0.4201
   34MOL   C31511601   6.049   7.125   6.981 -0.4364  0.4696 -0.2639
   34MOL   C31611602   5.741   7.225   7.151  0.5641  0.2245  1.1474
   34MOL   H31711603   5.954   7.237   7.175  1.4895  3.0229 -0.9174
   34MOL   H31811604   5.744   7.218   6.864  0.1228 -0.4026  0.8576
   34MOL   H31911605   5.819   7.105   6.670 -2.7112  0.3033  1.5170
   34MOL   H32011606   6.058   6.884   6.691 -1.4739 -0.5315  2.5230
   34MOL   H32111607   6.190   7.005   6.868  2.3599  3.2131 -1.4013
   34MOL   H32211608   6.113   7.158   7.062 -0.1492  1.1983 -0.7870
   34MOL   H32311609   5.732   7.117   7.134  3.2398  0.1286  0.1334
   34MOL   H32411610   5.670   7.280   7.089  1.5957 -0.0102 -0.2682
   34MOL   C32511611   5.723   7.262   7.299  0.2221  0.2287 -0.3847
   34MOL   C32611612   5.832   7.220   7.402  0.1088 -0.1929  0.4742
   34MOL   C32711613   5.900   7.306   7.490 -0.1550 -0.7030 -1.2701
   34MOL   C32811614   6.006   7.263   7.569 -0.4451 -0.5119  0.3488
   34MOL   C32911615   6.043   7.127   7.570 -1.0262 -0.2079 -0.3583
   34MOL   O33011616   6.151   7.083   7.642 -0.4356  0.0673 -0.6838
   34MOL   C33111617   5.979   7.042   7.480  0.4923 -0.7878 -0.8012
   34MOL   C33211618   5.875   7.088   7.394 -0.0379  0.2468  0.6291
   34MOL   C33311619   5.589   7.207   7.334 -0.3832 -0.6965 -0.6660
   34MOL   H33411620   5.716   7.370   7.313 -0.6306  0.2225 -0.7426
   34MOL   H33511621   5.868   7.409   7.498  3.1358  0.2917  0.1963
   34MOL   H33611622   6.064   7.341   7.616 -0.3787 -0.0211 -0.5338
   34MOL   H33711623   6.211   7.155   7.654  0.9664 -0.8291 -2.0683
   34MOL   H33811624   6.018   6.942   7.481  2.6085 -0.0057 -1.7680
   34MOL   H33911625   5.833   7.018   7.323  1.1179 -0.2402  0.4330
   34MOL   H34011626   5.509   7.258   7.281 -1.9188 -2.5225 -0.1836
   34MOL   H34111627   5.581   7.235   7.439 -1.6049  1.1801 -1.2308
   34MOL   H34211628   5.578   7.099   7.323  1.0591 -0.9711  0.3093
   35MOL     C111629   7.246   0.882   1.836 -0.4660 -0.2887 -0.8050
   35MOL     C211630   7.183   0.753   1.794 -0.1434  0.5400 -0.1083
   35MOL     C311631   7.113   0.741   1.673  0.1320  0.1553 -0.3968
   35MOL     C411632   7.067   0.624   1.622  0.4193 -0.0847 -0.4761
   35MOL     C511633   7.101   0.507   1.694  0.0719 -0.0343  0.0281
   35MOL     O611634   7.058   0.383   1.651 -0.2391  0.3005 -0.3157
   35MOL     C711635   7.166   0.515   1.818 -0.4772 -0.0592 -0.1451
   35MOL     C811636   7.216   0.635   1.867 -0.0811 -0.1789  0.0770
   35MOL     C911637   7.272   0.984   1.726 -0.3152  0.2535 -0.0123
   35MOL    H1011638   7.188   0.947   1.901 -0.7204 -0.4966 -0.8251
   35MOL    H1111639   7.097   0.826   1.610  5.0061 -1.2072 -3.7651
   35MOL    H1211640   7.019   0.634   1.526  0.0973  3.9182 -0.0124
   35MOL    H1311641   7.120   0.327   1.693 -0.8301  0.1083  0.3106
   35MOL    H1411642   7.209   0.424   1.859 -1.0333 -0.2377  0.0449
   35MOL    H1511643   7.267   0.634   1.963 -2.0812 -1.9494  1.1707
   35MOL    H1611644   7.177   1.034   1.706 -0.4631 -0.0960 -0.1799
   35MOL    H1711645   7.294   0.936   1.631 -0.1851 -1.1121  0.6911
   35MOL    H1811646   7.334   0.853   1.893  0.3939  1.3802 -1.2466
   35MOL    C1911647   7.389   1.084   1.753  0.4932  0.4127  0.5600
   35MOL    C2011648   7.388   1.202   1.649  0.4439 -0.0572  0.0613
   35MOL    C2111649   7.392   1.178   1.508  0.1605  0.5925 -0.8325
   35MOL    C2211650   7.381   1.284   1.425 -0.5923 -0.7588 -0.7241
   35MOL    C2311651   7.375   1.413   1.471 -0.5028  0.0285  0.2082
   35MOL    O2411652   7.376   1.514   1.376  0.1477  0.4982  0.0934
   35MOL    C2511653   7.378   1.441   1.608  0.4690  0.1431  0.2213
   35MOL    C2611654   7.388   1.334   1.702  0.2943 -0.3691  0.1546
   35MOL    C2711655   7.535   1.023   1.772 -0.0898  1.0564  0.7135
   35MOL    H2811656   7.375   1.127   1.852  0.8749  1.1140  0.3133
   35MOL    H2911657   7.399   1.077   1.472 -1.2635  0.2455 -0.1804
   35MOL    H3011658   7.392   1.262   1.320  1.3108 -1.2315 -0.4400
   35MOL    H3111659   7.385   1.598   1.419  1.5656  0.7142 -0.5870
   35MOL    H3211660   7.370   1.542   1.646 -1.0182  0.3469 -0.5966
   35MOL    H3311661   7.395   1.348   1.809  0.3665  0.1448  0.0872
   35MOL    H3411662   7.545   0.957   1.858  1.7823  1.3776  0.7617
   35MOL    H3511663   7.597   1.112   1.782 -0.7379  1.3737  2.0122
   35MOL    C3611664   7.600   0.944   1.649  0.1588  0.2899 -1.2829
   35MOL    C3711665   7.541   0.802   1.637 -0.1747 -0.4486 -0.0906
   35MOL    C3811666   7.551   0.714   1.745 -0.1816 -0.7021  0.3739
   35MOL    C3911667   7.502   0.582   1.737  0.2173 -0.2177 -0.5205
   35MOL    C4011668   7.453   0.542   1.613  0.2769  0.5944 -0.0538
   35MOL    O4111669   7.409   0.413   1.593  0.2010 -0.6068  0.2418
   35MOL    C4211670   7.437   0.628   1.504  0.4284 -0.8181 -0.0648
   35MOL    C4311671   7.476   0.759   1.522 -0.2178 -1.1168  0.3396
   35MOL    C4411672   7.752   0.925   1.663  0.2455  0.5703  0.0241
   35MOL    H4511673   7.584   1.003   1.558 -2.3662  0.4642 -0.7669
   35MOL    H4611674   7.584   0.751   1.841 -1.0914  1.0269  0.0497
   35MOL    H4711675   7.511   0.507   1.814 -0.1871 -0.7562 -0.9944
   35MOL    H4811676   7.377   0.416   1.504  1.9861 -0.7117 -0.4187
   35MOL    H4911677   7.395   0.598   1.409  2.5295 -0.3191 -1.1696
   35MOL    H5011678   7.460   0.833   1.445  1.3516 -0.1859  0.8963
   35MOL    H5111679   7.789   1.027   1.674 -1.5030  1.3075 -0.6964
   35MOL    H5211680   7.778   0.872   1.755  2.8800 -1.9075 -2.0572
   35MOL    C5311681   7.825   0.859   1.534  0.2231 -0.2680 -0.5081
   35MOL    C5411682   7.932   0.943   1.464  0.8715  0.3262  0.4246
   35MOL    C5511683   8.034   0.983   1.554  0.6792  0.0462  0.7126
   35MOL    C5611684   0.107   1.057   1.508 -0.4932 -0.4806 -0.1754
   35MOL    C5711685   0.114   1.099   1.373 -0.2682 -0.4990  0.1002
   35MOL    O5811686   0.212   1.192   1.340 -0.6447  0.3266  0.2365
   35MOL    C5911687   0.009   1.052   1.284  0.5196  0.6572 -0.1634
   35MOL    C6011688   7.938   0.981   1.324  0.4440 -0.4627  0.0445
   35MOL    C6111689   7.863   0.709   1.569 -0.3018  0.3823 -0.1643
   35MOL    H6211690   7.755   0.856   1.450 -0.8290 -0.3887  0.3529
   35MOL    H6311691   8.026   0.957   1.659  0.1188  0.1375  0.6975
   35MOL    H6411692   0.186   1.091   1.573  0.5380 -0.3172 -1.4747
   35MOL    H6511693   0.281   1.200   1.405  0.5869  1.1030 -1.1453
   35MOL    H6611694   0.010   1.075   1.179 -0.6678 -0.0659 -0.3389
   35MOL    H6711695   7.858   0.952   1.257 -0.0808  0.3951  0.2943
   35MOL    H6811696   7.780   0.656   1.615  0.9325  0.3423  2.0629
   35MOL    H6911697   7.938   0.707   1.648  0.9738  1.0455 -1.3340
   35MOL    C7011698   7.922   0.636   1.446  0.1303 -0.5821  0.0293
   35MOL    C7111699   7.802   0.598   1.360 -0.4473  0.0178  0.2126
   35MOL    C7211700   7.777   0.663   1.239 -0.4773  0.2219 -0.6910
   35MOL    C7311701   7.678   0.617   1.150  0.3611 -0.3013 -0.4486
   35MOL    C7411702   7.594   0.510   1.190 -0.4162 -1.2422 -0.0221
   35MOL    O7511703   7.476   0.478   1.125 -0.2819  0.2217  0.0421
   35MOL    C7611704   7.621   0.446   1.312  0.7372  0.5385  0.3242
   35MOL    C7711705   7.729   0.486   1.394  0.0217  0.6188  0.7649
   35MOL    C7811706   8.026   0.524   1.498  0.2972 -0.3755  0.2666
   35MOL    H7911707   7.974   0.713   1.389  1.2263 -0.5529  1.0451
   35MOL    H8011708   7.843   0.742   1.206  0.3207 -0.3229 -0.4483
   35MOL    H8111709   7.659   0.670   1.058 -2.2863 -0.8629 -0.2561
   35MOL    H8211710   7.428   0.420   1.182  1.0024 -1.2471 -0.3325
   35MOL    H8311711   7.567   0.355   1.335 -0.6275  0.8487 -1.5019
   35MOL    H8411712   7.751   0.429   1.483 -1.7288 -0.3501  0.5940
   35MOL    H8511713   7.971   0.467   1.572  1.7032 -1.1813  0.7196
   35MOL    H8611714   0.069   0.572   1.553 -0.3888  0.1629  0.8118
   35MOL    C8711715   0.049   0.428   1.401  0.3303  0.3485 -0.2834
   35MOL    C8811716   0.087   0.298   1.466 -0.3804  0.0191  1.0207
   35MOL    C8911717   0.124   0.284   1.601 -0.8036 -0.2522 -0.2586
   35MOL    C9011718   0.137   0.157   1.660 -0.7425 -0.2739 -0.0098
   35MOL    C9111719   0.111   0.042   1.588  0.5914  0.4354 -0.3485
   35MOL    O9211720   0.135   7.952   1.636  0.4923  0.2240  0.1092
   35MOL    C9311721   0.070   0.051   1.456  0.7912 -0.4459 -0.1946
   35MOL    C9411722   0.059   0.178   1.393  0.3017  0.0585  0.8710
   35MOL    C9511723   0.165   0.478   1.314  0.4053 -0.0960  0.5184
   35MOL    H9611724   8.005   0.401   1.336  1.6225  1.0862 -2.2463
   35MOL    H9711725   0.152   0.362   1.669  1.4101 -1.2066 -0.0450
   35MOL    H9811726   0.180   0.149   1.759  1.7008 -1.7015 -1.1259
   35MOL    H9911727   0.136   7.965   1.729 -0.3484  1.4772 -0.0578
   35MOL   H10011728   0.052   7.998   1.400 -0.7272 -0.9952  1.1433
   35MOL   H10111729   0.016   0.178   1.294 -0.6283  0.5197  1.2719
   35MOL   H10211730   0.214   0.562   1.362  0.3174 -0.8489  1.9324
   35MOL   H10311731   0.238   0.398   1.305  0.0661 -0.3513 -0.0291
   35MOL   C10411732   0.129   0.509   1.160 -0.0984 -0.6226 -0.8427
   35MOL   C10511733   0.062   0.391   1.092  0.4121 -0.7463 -0.7524
   35MOL   C10611734   0.126   0.260   1.078  0.3100 -0.4814 -0.1857
   35MOL   C10711735   0.064   0.154   1.013 -0.1620 -0.4421  0.3090
   35MOL   C10811736   7.982   0.179   0.949  0.1692  0.1243 -0.5713
   35MOL   O10911737   7.921   0.079   0.874  0.5708 -0.3746 -0.2315
   35MOL   C11011738   7.915   0.304   0.962  0.5147  0.0880  0.5813
   35MOL   C11111739   7.977   0.411   1.023  0.3426  1.0552  0.3009
   35MOL   C11211740   0.245   0.556   1.068 -0.0743  0.3954 -0.4514
   35MOL   H11311741   0.065   0.597   1.170 -0.6469 -0.9768 -1.1883
   35MOL   H11411742   0.223   0.252   1.123  0.7777  0.3039 -1.0305
   35MOL   H11511743   0.103   0.054   1.018 -1.9861 -1.1323  0.7819
   35MOL   H11611744   7.960   8.031   0.883  1.4742 -0.0292 -0.8115
   35MOL   H11711745   7.823   0.329   0.912  0.7718  1.9176  0.9761
   35MOL   H11811746   7.931   0.509   1.022 -0.2224  0.8056  1.3308
   35MOL   H11911747   0.237   0.537   0.961 -1.2485 -1.0640 -0.1169
   35MOL   H12011748   0.334   0.504   1.103  0.0721 -0.5865 -2.2381
   35MOL   C12111749   0.287   0.708   1.089 -0.3959  0.4822  1.0973
   35MOL   C12211750   0.365   0.719   1.224 -0.2383 -0.2241  0.4557
   35MOL   C12311751   0.491   0.642   1.240  0.3816  0.1290  0.1805
   35MOL   C12411752   0.565   0.651   1.357 -1.0142  0.3726 -0.0395
   35MOL   C12511753   0.504   0.713   1.471 -0.4390 -0.0940 -0.3178
   35MOL   O12611754   0.561   0.687   1.591 -0.0671  0.4882  0.4615
   35MOL   C12711755   0.386   0.786   1.463 -0.4901 -0.7604  0.5162
   35MOL   C12811756   0.311   0.790   1.342 -0.5368 -0.1345  0.4057
   35MOL   C12911757   0.375   0.753   0.972 -0.6653  0.2581  0.3988
   35MOL   H13011758   0.187   0.750   1.077 -0.2830  0.1546 -1.2246
   35MOL   H13111759   0.531   0.580   1.161 -1.2774 -1.8173  0.8537
   35MOL   H13211760   0.653   0.590   1.369 -0.8191  0.2363 -1.9690
   35MOL   H13311761   0.502   0.679   1.664 -0.4559  0.2723  0.1215
   35MOL   H13411762   0.342   0.833   1.550 -0.6862 -0.9264  0.5072
   35MOL   H13511763   0.210   0.826   1.335 -0.4417 -0.1185 -1.2225
   35MOL   H13611764   0.341   0.719   0.874  0.1650 -1.2868  0.6355
   35MOL   H13711765   0.477   0.721   0.991 -1.6703 -2.1572  1.8767
   35MOL   C13811766   0.394   0.912   0.964 -0.3748  0.2638 -0.5639
   35MOL   C13911767   0.282   0.995   0.915  0.0979 -0.1592  0.0178
   35MOL   C14011768   0.225   0.979   0.789  0.1710  0.1048 -0.1494
   35MOL   C14111769   0.128   1.068   0.742 -0.6933 -0.3524  0.2945
   35MOL   C14211770   0.077   1.166   0.832  0.0770 -0.0046  0.1202
   35MOL   O14311771   8.015   1.252   0.783 -0.1369 -0.3536 -0.4317
   35MOL   C14411772   0.133   1.183   0.960 -1.5279 -0.1976 -0.3155
   35MOL   C14511773   0.231   1.098   1.001 -0.4607 -0.1976  0.5998
   35MOL   C14611774   0.519   0.931   0.877  0.3746  0.4648  0.2670
   35MOL   H14711775   0.419   0.951   1.063 -0.7058  0.4732 -0.5617
   35MOL   H14811776   0.248   0.904   0.715  2.4455  0.9879 -0.3949
   35MOL   H14911777   0.094   1.061   0.640 -0.2565  0.5087  0.0769
   35MOL   H15011778   7.969   1.298   0.851  0.5552 -0.1528 -0.0952
   35MOL   H15111779   0.101   1.245   1.042  1.9488  2.5044 -0.8937
   35MOL   H15211780   0.268   1.100   1.102 -1.8997 -0.7024  1.1611
   35MOL   H15311781   0.510   1.015   0.808  1.5976  1.1625  0.9311
   35MOL   H15411782   0.526   0.845   0.810 -0.1160 -0.5735  1.5197
   35MOL   C15511783   0.647   0.939   0.970 -0.9889  0.4482  0.4340
   35MOL   C15611784   0.650   1.078   1.041  0.0059  1.1735  0.3295
   35MOL   C15711785   0.640   1.195   0.967  0.0753  0.0339  0.1617
   35MOL   C15811786   0.654   1.322   1.028  0.1681 -0.5672 -0.3179
   35MOL   C15911787   0.664   1.332   1.166  0.1105 -0.7145 -0.4968
   35MOL   O16011788   0.671   1.452   1.219  0.5675  0.6444 -0.1496
   35MOL   C16111789   0.660   1.221   1.248 -0.6818 -0.3364 -0.6214
   35MOL   C16211790   0.655   1.090   1.179 -0.4176  0.2844 -0.2762
   35MOL   C16311791   0.784   0.913   0.905  0.8431 -0.2059  0.8807
   35MOL   H16411792   0.637   0.859   1.043  0.2913  0.6534  0.8540
   35MOL   H16511793   0.649   1.188   0.860  0.2610  1.5192  0.0636
   35MOL   H16611794   0.662   1.407   0.963 -0.4757  0.7152  1.2504
   35MOL   H16711795   0.692   1.448   1.311 -1.0882 -1.1198  0.1659
   35MOL   H16811796   0.671   1.228   1.355  1.3709  3.0713 -0.9845
   35MOL   H16911797   0.658   1.003   1.243 -0.5446 -0.7154 -1.6028
   35MOL   H17011798   0.838   0.999   0.866 -0.6633 -0.8745 -2.9051
   35MOL   H17111799   0.764   0.872   0.806  1.6415 -1.2625  1.1572
   35MOL   C17211800   0.877   0.826   0.983 -0.0671 -0.6621 -0.3169
   35MOL   C17311801   0.909   0.878   1.129  0.1426  0.2186  0.4605
   35MOL   C17411802   0.865   0.805   1.241 -0.1660 -0.2710 -0.3106
   35MOL   C17511803   0.892   0.861   1.372 -0.1252 -0.1384 -0.2839
   35MOL   C17611804   0.958   0.983   1.382  0.1724 -0.5993  0.1144
   35MOL   O17711805   0.971   1.038   1.506 -0.8284 -0.2097 -0.1401
   35MOL   C17811806   1.002   1.054   1.270  0.4541 -0.3026  1.0898
   35MOL   C17911807   0.986   0.991   1.142 -0.3258  0.5410 -0.6917
   35MOL   C18011808   1.010   0.804   0.912 -0.5042 -0.6397 -0.0423
   35MOL   H18111809   0.830   0.728   0.989 -0.2398 -0.4733  2.3960
   35MOL   H18211810   0.811   0.714   1.226 -0.3997  0.1563 -2.0763
   35MOL   H18311811   0.866   0.802   1.459  0.4736  1.2513  0.8588
   35MOL   H18411812   1.009   1.125   1.507 -0.1776 -0.4748  3.4371
   35MOL   H18511813   1.048   1.151   1.279 -0.6994  0.0281  3.7564
   35MOL   H18611814   1.024   1.040   1.054  2.4949  1.0247  0.7328
   35MOL   H18711815   1.065   0.898   0.909 -1.4854 -0.1065 -2.1328
   35MOL   H18811816   0.977   0.780   0.811  2.4175 -1.7579 -0.7745
   35MOL   C18911817   1.089   0.685   0.959 -0.1136  0.0391  1.0011
   35MOL   C19011818   1.051   0.555   0.876  0.6277 -0.0164 -0.8443
   35MOL   C19111819   0.947   0.468   0.917 -0.1359  0.4725 -0.1827
   35MOL   C19211820   0.911   0.356   0.847 -0.0905 -0.3673  0.3008
   35MOL   C19311821   0.984   0.325   0.731 -0.1581 -0.1218  0.3018
   35MOL   O19411822   0.959   0.212   0.657  0.3080 -0.0149 -0.0182
   35MOL   C19511823   1.087   0.408   0.687 -0.0322 -0.7226 -0.2969
   35MOL   C19611824   1.124   0.522   0.764 -0.1252  1.0391  0.3626
   35MOL   C19711825   1.245   0.721   0.974  0.1962  0.0736 -0.4457
   35MOL   H19811826   1.041   0.655   1.052 -3.1128 -0.9985 -0.8045
   35MOL   H19911827   0.899   0.495   1.010  0.2334  0.8398 -0.0943
   35MOL   H20011828   0.834   0.291   0.886 -0.3848  1.2211  2.4884
   35MOL   H20111829   0.869   0.182   0.654  0.0281  0.8291 -0.3033
   35MOL   H20211830   1.149   0.381   0.603 -2.3937 -1.6852 -1.7804
   35MOL   H20311831   1.207   0.584   0.734  2.7289 -2.2999  1.0498
   35MOL   H20411832   1.242   0.795   1.054  0.7425  0.5706 -0.8751
   35MOL   H20511833   1.288   0.767   0.885  1.4560  0.3842  0.2983
   35MOL   C20611834   1.335   0.604   1.005 -0.4597  0.5893 -0.3939
   35MOL   C20711835   1.287   0.522   1.123  0.7965 -0.4506  0.2986
   35MOL   C20811836   1.312   0.381   1.115 -0.3095  0.0681  0.1503
   35MOL   C20911837   1.277   0.296   1.222  0.3721  0.6845  0.0259
   35MOL   C21011838   1.207   0.355   1.329  0.1728 -0.1967 -0.0216
   35MOL   O21111839   1.158   0.273   1.431 -0.3248 -0.2541  0.0609
   35MOL   C21211840   1.185   0.495   1.338 -0.0626 -0.6318  0.1620
   35MOL   C21311841   1.228   0.576   1.236  0.2779 -0.0521 -0.0875
   35MOL   C21411842   1.477   0.646   1.015 -0.0727 -0.1482 -0.4624
   35MOL   H21511843   1.331   0.535   0.921  1.0579 -0.2776  0.2096
   35MOL   H21611844   1.359   0.347   1.024 -1.0268  2.2273 -1.0420
   35MOL   H21711845   1.303   0.191   1.216  1.9242  1.0971 -0.7843
   35MOL   H21811846   1.141   0.183   1.406  1.8771 -0.1171 -2.1001
   35MOL   H21911847   1.137   0.533   1.427 -1.6075  0.1297 -0.9805
   35MOL   H22011848   1.212   0.683   1.245  1.8566  0.3530 -1.8015
   35MOL   H22111849   1.493   0.696   1.111 -0.6312 -0.5944 -0.1320
   35MOL   H22211850   1.505   0.723   0.943 -1.6388 -0.2903 -1.2394
   35MOL   C22311851   1.580   0.533   1.003 -0.5097 -0.0421 -0.1333
   35MOL   C22411852   1.711   0.556   1.077 -0.2611  0.1622  0.3243
   35MOL   C22511853   1.804   0.654   1.024  0.3290  0.6676 -0.1395
   35MOL   C22611854   1.927   0.669   1.086  0.4788  0.7989  0.1669
   35MOL   C22711855   1.975   0.578   1.187  0.0060  0.2257 -0.3520
   35MOL   O22811856   2.101   0.589   1.236 -0.1602  0.2322  0.4779
   35MOL   C22911857   1.889   0.475   1.229 -0.0648 -0.5426 -0.0788
   35MOL   C23011858   1.758   0.465   1.173  0.2359  0.1342 -0.9521
   35MOL   C23111859   1.607   0.497   0.853  0.5302  0.1460 -0.0468
   35MOL   H23211860   1.537   0.446   1.052 -1.4086 -0.0609 -0.9454
   35MOL   H23311861   1.775   0.724   0.947 -3.4770 -0.0001  0.5812
   35MOL   H23411862   1.992   0.747   1.049  1.7551  0.3302  1.3601
   35MOL   H23511863   2.101   0.567   1.328 -0.6885  0.0877  0.4475
   35MOL   H23611864   1.925   0.404   1.301 -0.1329  0.0514  0.5410
   35MOL   H23711865   1.690   0.390   1.210 -0.1257  0.8631 -0.1067
   35MOL   H23811866   1.515   0.451   0.816  1.1653  0.4455 -2.0720
   35MOL   H23911867   1.621   0.575   0.778  0.6520 -0.0048 -0.1802
   35MOL   C24011868   1.719   0.391   0.833 -0.1357  0.4665 -0.1385
   35MOL   C24111869   1.699   0.258   0.905 -0.7439  0.1249 -0.7050
   35MOL   C24211870   1.798   0.207   0.993  0.1099  0.4957 -0.4675
   35MOL   C24311871   1.772   0.086   1.063 -0.2345  0.3793  0.2335
   35MOL   C24411872   1.656   0.012   1.038 -0.4789 -0.0672  0.6766
   35MOL   O24511873   1.637   7.938   1.110 -0.1128 -0.8551 -0.8101
   35MOL   C24611874   1.561   0.058   0.948  0.2680  0.0004 -0.2927
   35MOL   C24711875   1.578   0.186   0.883  0.8351  1.0586 -0.0832
   35MOL   C24811876   1.762   0.370   0.684 -0.1815 -0.1700 -1.0008
   35MOL   H24911877   1.806   0.440   0.877 -0.0212  0.4711 -0.3721
   35MOL   H25011878   1.884   0.272   1.000  1.1558 -0.9923  0.8636
   35MOL   H25111879   1.840   0.049   1.139  0.6721  2.4024  0.4683
   35MOL   H25211880   1.683   7.930   1.192 -0.9715  0.1829 -0.2134
   35MOL   H25311881   1.466   0.010   0.931  0.0528  0.5871 -0.7685
   35MOL   H25411882   1.499   0.221   0.818 -0.5937 -0.4270  0.7961
   35MOL   H25511883   1.669   0.336   0.637 -1.7708  1.8156  0.5987
   35MOL   H25611884   1.787   0.462   0.632 -1.2430  0.3290 -0.6557
   35MOL   C25711885   1.879   0.272   0.663  0.9134  0.3370  0.2755
   35MOL   C25811886   1.874   0.209   0.526 -0.6240  0.1326  0.2345
   35MOL   C25911887   1.874   0.293   0.412  0.6681 -0.6788  0.0429
   35MOL   C26011888   1.865   0.239   0.286  0.2688 -0.3080 -0.7645
   35MOL   C26111889   1.858   0.096   0.269 -0.1724  0.7917  0.0280
   35MOL   O26211890   1.841   0.039   0.144 -0.8276  0.1289  0.7007
   35MOL   C26311891   1.858   0.015   0.385 -0.5318  0.5083 -0.4581
   35MOL   C26411892   1.861   0.070   0.514 -0.1022 -0.9728  0.0169
   35MOL   C26511893   2.023   0.315   0.702 -0.6761 -0.1889 -0.0888
   35MOL   H26611894   1.867   0.191   0.735  2.5418  0.2662  0.4748
   35MOL   H26711895   1.885   0.400   0.423  0.6963 -0.5770 -0.9019
   35MOL   H26811896   1.848   0.296   0.196  4.6607 -1.3465 -2.4169
   35MOL   H26911897   1.821   7.984   0.145  0.4537 -0.1633  0.1799
   35MOL   H27011898   1.857   7.945   0.372 -0.4597  0.7849 -2.8844
   35MOL   H27111899   1.867   0.011   0.605  1.2275 -1.4200 -0.3635
   35MOL   H27211900   2.028   0.371   0.795 -0.2355  0.0554 -0.2588
   35MOL   H27311901   2.057   0.397   0.638 -1.0114  0.3484  0.4103
   35MOL   C27411902   2.124   0.205   0.711 -0.3188  0.8000  0.4117
   35MOL   C27511903   2.221   0.227   0.830 -0.1037  0.0233  0.0785
   35MOL   C27611904   2.164   0.205   0.956 -0.0681  0.0719 -0.2165
   35MOL   C27711905   2.232   0.238   1.072 -0.6634 -0.1742 -1.0369
   35MOL   C27811906   2.362   0.291   1.065 -0.0305  1.1201  0.2358
   35MOL   O27911907   2.432   0.312   1.179  0.0214  0.1479  0.3692
   35MOL   C28011908   2.421   0.299   0.940 -0.4859  0.2992  0.0571
   35MOL   C28111909   2.357   0.276   0.820 -0.3315  0.0555  0.0307
   35MOL   C28211910   2.199   0.177   0.574  0.2538 -0.7773 -0.0702
   35MOL   H28311911   2.067   0.114   0.730 -0.6825  1.0131  0.3360
   35MOL   H28411912   2.068   0.156   0.953  0.4222 -0.9523  0.3853
   35MOL   H28511913   2.178   0.219   1.164 -0.7756 -0.2917 -1.1276
   35MOL   H28611914   2.508   0.367   1.172 -0.5745  1.1008  1.1218
   35MOL   H28711915   2.525   0.325   0.933  0.0801 -2.2585 -1.5174
   35MOL   H28811916   2.410   0.304   0.730 -2.4891  0.4758 -1.1447
   35MOL   H28911917   2.125   0.173   0.495 -0.7614 -2.0743  0.9299
   35MOL   H29011918   2.257   0.269   0.568 -2.1995  0.8055  0.0273
   35MOL   C29111919   2.298   0.059   0.561 -0.3760 -0.5237 -0.3347
   35MOL   C29211920   2.426   0.092   0.488 -0.1135 -0.8522  0.1997
   35MOL   C29311921   2.551   0.084   0.551 -1.1239  0.5996  0.3416
   35MOL   C29411922   2.666   0.127   0.480 -0.6136 -0.0523 -0.0943
   35MOL   C29511923   2.656   0.169   0.348 -0.2581  0.0984  0.5763
   35MOL   O29611924   2.770   0.205   0.280 -0.3760 -0.3487  0.3190
   35MOL   C29711925   2.527   0.174   0.281  0.7209 -0.4791 -1.1519
   35MOL   C29811926   2.415   0.137   0.352 -0.0285  0.5269  0.6609
   35MOL   C29911927   2.231   7.971   0.502  0.4870  0.7294  0.8850
   35MOL   H30011928   2.328   0.034   0.663 -1.1975  0.5781  0.1791
   35MOL   H30111929   2.544   0.042   0.650  0.2100 -2.0739 -0.6330
   35MOL   H30211930   2.765   0.111   0.521 -0.3295  1.6591 -0.0693
   35MOL   H30311931   2.765   0.236   0.191  2.0432 -1.3349 -0.1897
   35MOL   H30411932   2.509   0.211   0.180 -0.1871 -0.8064 -1.1108
   35MOL   H30511933   2.324   0.137   0.294  1.3213  0.0124 -1.5383
   35MOL   H30611934   2.203   7.996   0.400 -0.8630 -1.0136  0.8085
   35MOL   H30711935   2.134   7.967   0.551 -0.4292 -0.3598 -1.0013
   35MOL   C30811936   2.296   7.836   0.523 -0.0016  1.0245 -0.4864
   35MOL   C30911937   2.414   7.812   0.438  0.1138  0.0826  0.0754
   35MOL   C31011938   2.540   7.760   0.484  0.2077 -0.2300  0.2034
   35MOL   C31111939   2.656   7.749   0.405  0.3552  0.1932 -0.3823
   35MOL   C31211940   2.646   7.773   0.270  0.4993 -0.2419 -0.2215
   35MOL   O31311941   2.740   7.749   0.182  0.2856 -0.1837 -0.4892
   35MOL   C31411942   2.533   7.837   0.222  0.2841 -0.3045  0.1976
   35MOL   C31511943   2.414   7.851   0.304  0.1413 -0.0421  0.2606
   35MOL   C31611944   2.186   7.731   0.510  0.3684  0.4309  0.0968
   35MOL   H31711945   2.338   7.837   0.624 -0.0314  0.8446 -0.4731
   35MOL   H31811946   2.555   7.719   0.583 -0.3056  2.4282  1.4309
   35MOL   H31911947   2.743   7.700   0.446  0.6767  0.2506 -0.9836
   35MOL   H32011948   2.723   7.790   0.098 -0.9509 -0.6230 -0.4641
   35MOL   H32111949   2.523   7.861   0.117  1.0863 -0.1603  0.1548
   35MOL   H32211950   2.322   7.892   0.265 -1.0809 -1.8590  1.1756
   35MOL   H32311951   2.140   7.735   0.411 -0.2464 -1.2054  0.2895
   35MOL   H32411952   2.105   7.762   0.576 -1.4137 -2.5169 -0.5605
   35MOL   C32511953   2.230   7.583   0.532  0.3863 -0.2293 -0.2924
   35MOL   C32611954   2.132   7.481   0.493  0.4564 -0.2326  0.5275
   35MOL   C32711955   2.037   7.429   0.581 -0.2283 -0.5282  0.3751
   35MOL   C32811956   1.945   7.328   0.541 -0.5362  0.5492  0.4808
   35MOL   C32911957   1.966   7.275   0.414  0.4162  0.6773 -0.4874
   35MOL   O33011958   1.864   7.189   0.380  0.0501 -0.0953  0.0786
   35MOL   C33111959   2.067   7.315   0.326  0.3579  0.0084 -0.4207
   35MOL   C33211960   2.137   7.430   0.361  0.5858  0.0826 -0.1534
   35MOL   C33311961   2.276   7.558   0.678  0.1940  0.4668 -0.5797
   35MOL   H33411962   2.325   7.582   0.479 -0.4560  0.0730 -1.8705
   35MOL   H33511963   2.033   7.471   0.680 -1.3262 -0.4952  0.3278
   35MOL   H33611964   1.873   7.296   0.615 -0.9985  2.0718  0.7232
   35MOL   H33711965   1.876   7.138   0.301 -0.6022  1.2043 -0.8714
   35MOL   H33811966   2.083   7.283   0.224  1.1895 -0.4012 -0.1672
   35MOL   H33911967   2.203   7.471   0.286  1.4402  0.1306  0.6167
   35MOL   H34011968   2.328   7.463   0.692 -1.8191 -0.4074  1.2630
   35MOL   H34111969   2.205   7.590   0.754  0.5351  1.0702 -0.5139
   35MOL   H34211970   2.360   7.623   0.701  0.5276  0.1361 -0.8509
   36MOL     C111971   4.866   1.142   1.355  0.3451 -0.0529  0.6094
   36MOL     C211972   4.947   1.237   1.437 -0.3970  0.0771  0.4558
   36MOL     C311973   4.890   1.297   1.545  0.2353  0.2587 -0.3178
   36MOL     C411974   4.964   1.380   1.640  0.0276  0.2304 -0.1360
   36MOL     C511975   5.101   1.390   1.623  0.3187 -0.1176  0.0932
   36MOL     O611976   5.177   1.461   1.714  0.3521  0.2517  0.4687
   36MOL     C711977   5.160   1.332   1.505 -0.2680  0.2463 -0.4020
   36MOL     C811978   5.082   1.256   1.409  0.0317  0.7067 -0.0446
   36MOL     C911979   4.955   1.009   1.337  1.2295  0.6122 -0.0469
   36MOL    H1011980   4.781   1.115   1.417  1.6605 -0.1039  2.4086
   36MOL    H1111981   4.785   1.281   1.562  0.1644 -2.8343 -3.0409
   36MOL    H1211982   4.913   1.423   1.725 -0.9104 -1.7269  0.3244
   36MOL    H1311983   5.262   1.482   1.678  0.5815  0.2270  0.9896
   36MOL    H1411984   5.267   1.343   1.504 -0.0956 -1.1978  0.0025
   36MOL    H1511985   5.137   1.196   1.338 -1.2934 -0.1104 -0.3903
   36MOL    H1611986   5.001   0.991   1.434 -0.6864 -0.1130  0.7573
   36MOL    H1711987   5.035   1.025   1.264  1.0718 -0.5041 -0.4849
   36MOL    H1811988   4.836   1.188   1.261  1.3551 -0.2738  0.1692
   36MOL    C1911989   4.864   0.891   1.308 -0.2232 -0.5183 -0.0430
   36MOL    C2011990   4.939   0.759   1.278 -0.7771 -0.4214 -1.2875
   36MOL    C2111991   5.033   0.754   1.171 -0.0705  0.2362  0.0168
   36MOL    C2211992   5.088   0.630   1.131  0.2060 -0.2928 -0.1098
   36MOL    C2311993   5.064   0.515   1.214 -0.5436  0.3062  0.4708
   36MOL    O2411994   5.122   0.402   1.178  0.1872  0.5374 -0.5742
   36MOL    C2511995   4.982   0.528   1.336 -0.8278 -0.8073 -0.0031
   36MOL    C2611996   4.932   0.652   1.370  0.2176 -0.1680 -0.3261
   36MOL    C2711997   4.780   0.928   1.176 -0.2756 -0.0091 -0.0557
   36MOL    H2811998   4.792   0.881   1.389 -0.7417 -1.4301 -0.6131
   36MOL    H2911999   5.048   0.842   1.110  0.0430  0.0263 -0.2642
   36MOL    H3012000   5.155   0.598   1.053  1.8140 -1.0942  1.5609
   36MOL    H3112001   5.124   0.341   1.251  2.3329  0.5748 -0.5694
   36MOL    H3212002   4.961   0.439   1.393  1.6018 -2.6236 -1.8436
   36MOL    H3312003   4.858   0.664   1.447  0.9565  0.0549  0.3559
   36MOL    H3412004   4.854   0.975   1.111  1.6589 -1.0387  1.3434
   36MOL    H3512005   4.707   1.006   1.195 -1.5324 -0.5378 -2.5326
   36MOL    C3612006   4.706   0.811   1.103 -0.7678  0.4455  0.3384
   36MOL    C3712007   4.702   0.835   0.954  0.2431 -0.0293  0.0097
   36MOL    C3812008   4.650   0.955   0.893  0.4132  0.6644 -0.5813
   36MOL    C3912009   4.639   0.956   0.751 -0.0518 -0.6237  0.9132
   36MOL    C4012010   4.674   0.851   0.672  0.2289  0.1531  0.2093
   36MOL    O4112011   4.647   0.857   0.539  0.3106  0.2199 -0.2363
   36MOL    C4212012   4.745   0.741   0.731  0.1173 -0.2024  0.6371
   36MOL    C4312013   4.754   0.733   0.872 -0.7972  0.1756 -0.6080
   36MOL    C4412014   4.559   0.803   1.168 -0.0193 -0.1333 -0.0743
   36MOL    H4512015   4.746   0.711   1.120 -1.1353  0.6431  2.4551
   36MOL    H4612016   4.624   1.044   0.948  0.0905  0.6381 -0.6924
   36MOL    H4712017   4.611   1.047   0.700 -0.0948 -0.9071  0.4319
   36MOL    H4812018   4.646   0.778   0.488  0.5470  0.0424  0.0296
   36MOL    H4912019   4.774   0.656   0.672 -0.8155 -0.5558  0.6784
   36MOL    H5012020   4.785   0.646   0.928 -1.9478 -1.5330 -2.5755
   36MOL    H5112021   4.570   0.790   1.276  0.6893 -0.0848 -0.1396
   36MOL    H5212022   4.508   0.898   1.148 -1.8614 -0.9587  0.5234
   36MOL    C5312023   4.476   0.687   1.118  0.2932  0.4295 -0.4734
   36MOL    C5412024   4.540   0.557   1.171 -0.4478 -0.3724 -0.2545
   36MOL    C5512025   4.604   0.465   1.082 -0.1193 -0.2177 -0.1281
   36MOL    C5612026   4.661   0.345   1.134 -0.2252  0.5039 -0.0461
   36MOL    C5712027   4.651   0.315   1.271 -0.8735  0.0339 -0.6130
   36MOL    O5812028   4.705   0.197   1.310  0.5284  0.5031 -0.3797
   36MOL    C5912029   4.573   0.393   1.356 -0.0818 -0.0883  0.0163
   36MOL    C6012030   4.524   0.515   1.308 -0.5251  0.2528 -0.5110
   36MOL    C6112031   4.329   0.708   1.165  0.2814  0.0229 -0.0827
   36MOL    H6212032   4.471   0.689   1.009 -0.2655 -1.9188 -0.5238
   36MOL    H6312033   4.624   0.495   0.980  1.0207 -0.5412 -0.0094
   36MOL    H6412034   4.705   0.277   1.063 -0.7622  1.5874 -1.4345
   36MOL    H6512035   4.681   0.182   1.400  0.4971 -1.8276 -0.7439
   36MOL    H6612036   4.556   0.359   1.457 -1.7935 -0.1142 -0.2653
   36MOL    H6712037   4.470   0.578   1.378  1.0516  0.9503  0.1071
   36MOL    H6812038   4.298   0.785   1.094  1.5000  1.0680  0.5163
   36MOL    H6912039   4.318   0.759   1.261 -1.2721  0.3089 -0.4025
   36MOL    C7012040   4.229   0.591   1.151 -0.1903 -0.1477 -0.0257
   36MOL    C7112041   4.245   0.521   1.023 -0.2787 -0.3570 -0.0831
   36MOL    C7212042   4.219   0.582   0.901 -0.0904 -0.0150 -0.4166
   36MOL    C7312043   4.240   0.518   0.778  0.6016  0.2646 -0.7761
   36MOL    C7412044   4.279   0.384   0.781  0.1584  0.1024 -0.4976
   36MOL    O7512045   4.277   0.311   0.660  0.3802  0.0555 -1.1813
   36MOL    C7612046   4.291   0.313   0.905 -0.4065  0.1697  0.1846
   36MOL    C7712047   4.283   0.383   1.025  0.5666 -0.4170  0.0163
   36MOL    C7812048   4.089   0.648   1.170 -0.2382 -0.1712 -0.0207
   36MOL    H7912049   4.248   0.517   1.228  1.7368  1.1436  0.7942
   36MOL    H8012050   4.192   0.687   0.897  0.0971  0.2004  2.9727
   36MOL    H8112051   4.242   0.585   0.694 -0.0294  1.6868  0.3248
   36MOL    H8212052   4.297   0.220   0.675  1.3971  0.5575  0.6658
   36MOL    H8312053   4.295   0.205   0.896 -2.2007 -0.1512  2.5987
   36MOL    H8412054   4.295   0.326   1.116 -0.0738  0.1092  0.4353
   36MOL    H8512055   4.015   0.572   1.146 -0.9340  0.0504  1.3683
   36MOL    H8612056   4.079   0.726   1.095 -1.2816  2.0785  2.3718
   36MOL    C8712057   4.055   0.691   1.318 -0.1771 -0.3256  0.6017
   36MOL    C8812058   4.063   0.574   1.415  0.1665 -0.5554 -0.6406
   36MOL    C8912059   4.023   0.440   1.384 -0.5452 -0.7514  0.3897
   36MOL    C9012060   4.030   0.344   1.489 -0.3492  0.2259 -0.2042
   36MOL    C9112061   4.073   0.379   1.618 -0.2058 -0.6463 -0.7388
   36MOL    O9212062   4.092   0.285   1.712 -0.9395 -0.2569 -0.2520
   36MOL    C9312063   4.096   0.512   1.645 -0.1510 -0.2254 -0.7228
   36MOL    C9412064   4.086   0.605   1.549  0.3234  0.2163 -0.0465
   36MOL    C9512065   3.924   0.770   1.331 -0.1479  0.1050 -0.0398
   36MOL    H9612066   4.133   0.760   1.349 -0.5021  0.0881  0.5045
   36MOL    H9712067   3.998   0.412   1.283  1.5639 -1.1807 -0.0488
   36MOL    H9812068   4.016   0.239   1.467  0.0996  0.0007  0.5864
   36MOL    H9912069   4.072   0.207   1.662  0.4388 -1.6850  1.3476
   36MOL   H10012070   4.122   0.543   1.745 -2.3917  0.2754 -0.2706
   36MOL   H10112071   4.102   0.711   1.561  0.3895  0.2704 -0.5973
   36MOL   H10212072   3.839   0.710   1.299  0.3691  0.8882 -3.0618
   36MOL   H10312073   3.893   0.779   1.435  1.3920  1.6238  0.3057
   36MOL   C10412074   3.923   0.897   1.250  0.1034  0.2365 -0.2265
   36MOL   C10512075   4.048   0.981   1.267 -0.0050 -0.0814  0.2336
   36MOL   C10612076   4.123   1.015   1.156 -0.7155 -0.6340  0.6009
   36MOL   C10712077   4.231   1.097   1.170 -0.4787  0.2072 -0.1316
   36MOL   C10812078   4.271   1.141   1.300  0.4621 -0.0659  0.0054
   36MOL   O10912079   4.380   1.223   1.303  0.2151  0.4967 -0.5797
   36MOL   C11012080   4.193   1.117   1.410  0.9333  0.0434 -0.3231
   36MOL   C11112081   4.075   1.037   1.394 -0.0512 -0.4298 -0.6359
   36MOL   C11212082   3.795   0.974   1.285  0.5016 -0.4288  0.1035
   36MOL   H11312083   3.914   0.879   1.143  2.5563 -1.2244 -0.2220
   36MOL   H11412084   4.098   0.982   1.057  0.1493 -1.6062  0.6987
   36MOL   H11512085   4.293   1.133   1.089  0.7974  0.9168  1.1511
   36MOL   H11612086   4.416   1.233   1.390 -2.6498 -0.7001  0.7968
   36MOL   H11712087   4.224   1.146   1.509 -0.1562 -1.9899  0.6377
   36MOL   H11812088   4.017   1.007   1.480 -2.0809  0.0151 -1.8152
   36MOL   H11912089   3.796   1.005   1.390 -0.1951 -1.5276  0.4364
   36MOL   H12012090   3.709   0.908   1.284 -0.7437  1.1449 -0.1364
   36MOL   C12112091   3.765   1.095   1.187  0.6501  0.3659 -0.6618
   36MOL   C12212092   3.617   1.129   1.191 -0.3753 -0.7506  0.7920
   36MOL   C12312093   3.550   1.164   1.067  0.2892 -0.0638  0.5660
   36MOL   C12412094   3.411   1.194   1.064 -0.2093  0.1292  0.0984
   36MOL   C12512095   3.343   1.205   1.184 -0.0754 -0.4323 -0.1764
   36MOL   O12612096   3.219   1.259   1.193 -0.4364  0.4890 -0.0519
   36MOL   C12712097   3.406   1.162   1.303 -0.1794  0.2640 -0.2864
   36MOL   C12812098   3.540   1.126   1.306 -0.9112  0.0589 -0.3917
   36MOL   C12912099   3.837   1.224   1.229 -0.3819  0.3061 -0.1480
   36MOL   H13012100   3.796   1.075   1.084  1.0463  1.4425 -0.7583
   36MOL   H13112101   3.597   1.162   0.970 -2.1723 -0.2942 -0.6485
   36MOL   H13212102   3.364   1.215   0.969  2.4519  1.3902 -1.0143
   36MOL   H13312103   3.185   1.253   1.281  3.1498  2.6257  1.5604
   36MOL   H13412104   3.356   1.165   1.399  0.9221 -1.0879  0.3494
   36MOL   H13512105   3.571   1.094   1.404 -1.5367  0.1152 -0.1750
   36MOL   H13612106   3.943   1.203   1.218 -0.2580  0.1293  1.2528
   36MOL   H13712107   3.824   1.224   1.338  0.1821  2.1532 -0.0630
   36MOL   C13812108   3.798   1.356   1.152  0.0258  0.2225 -0.3532
   36MOL   C13912109   3.856   1.359   1.008  0.0697 -0.1271 -0.3195
   36MOL   C14012110   3.768   1.389   0.896  0.0787  0.6881 -0.5430
   36MOL   C14112111   3.816   1.395   0.759 -0.6446  0.3707  0.4151
   36MOL   C14212112   3.952   1.372   0.740 -0.3227 -0.3466  0.5928
   36MOL   O14312113   3.999   1.374   0.608 -0.1621  0.1848 -0.3566
   36MOL   C14412114   4.039   1.330   0.841  0.6473 -1.0150  0.3899
   36MOL   C14512115   3.993   1.328   0.975 -0.5483 -0.1431 -0.0929
   36MOL   C14612116   3.852   1.477   1.235 -0.6673  0.1850  0.3737
   36MOL   H14712117   3.689   1.358   1.149  0.0285  2.9031  0.4303
   36MOL   H14812118   3.663   1.408   0.908 -0.3737 -0.6196 -2.1039
   36MOL   H14912119   3.749   1.433   0.683  0.6380  0.7579 -0.5411
   36MOL   H15012120   4.093   1.365   0.603 -0.1365 -0.2169  0.7635
   36MOL   H15112121   4.143   1.306   0.823  2.0448  2.9869  2.3052
   36MOL   H15212122   4.052   1.302   1.062  0.3119  1.6987 -0.0867
   36MOL   H15312123   3.870   1.556   1.163  0.2283 -1.5696 -1.3906
   36MOL   H15412124   3.946   1.453   1.284 -2.0458 -2.2817  1.9251
   36MOL   C15512125   3.751   1.535   1.341  0.6243  0.3671 -1.0512
   36MOL   C15612126   3.647   1.616   1.263  0.4702 -0.3258  0.0532
   36MOL   C15712127   3.519   1.566   1.259  0.0355  0.5507 -0.3571
   36MOL   C15812128   3.415   1.638   1.201 -0.3473  0.2505  0.4720
   36MOL   C15912129   3.436   1.761   1.131 -0.5476 -0.0217 -0.2689
   36MOL   O16012130   3.342   1.815   1.054  0.5429  0.2147  0.0524
   36MOL   C16112131   3.569   1.808   1.127 -0.6010 -0.0448 -0.8850
   36MOL   C16212132   3.668   1.741   1.201 -1.1421  0.3763 -0.1024
   36MOL   C16312133   3.830   1.619   1.443  0.0349  0.3714 -0.2192
   36MOL   H16412134   3.696   1.455   1.391  0.4984  0.2458 -1.3836
   36MOL   H16512135   3.503   1.466   1.299 -0.6470  0.6564 -0.3592
   36MOL   H16612136   3.318   1.597   1.224 -0.7147 -0.0943 -1.6088
   36MOL   H16712137   3.259   1.771   1.045  0.3807  0.7906 -1.5362
   36MOL   H16812138   3.596   1.895   1.068  0.8288 -0.3776 -0.7317
   36MOL   H16912139   3.765   1.787   1.187 -0.5144 -0.8523  0.1463
   36MOL   H17012140   3.765   1.685   1.500 -0.5481 -0.8402  0.5296
   36MOL   H17112141   3.891   1.693   1.391 -1.2975  2.7478  1.5178
   36MOL   C17212142   3.908   1.531   1.548 -0.0199 -0.2053 -0.0172
   36MOL   C17312143   3.837   1.409   1.600  0.5937  0.2834  0.5629
   36MOL   C17412144   3.894   1.280   1.597  0.1952  0.7779  0.4628
   36MOL   C17512145   3.819   1.163   1.613 -0.2090 -0.0983  0.1786
   36MOL   C17612146   3.684   1.176   1.652  0.0208  0.1010 -0.8507
   36MOL   O17712147   3.613   1.059   1.665 -0.1263 -0.1179 -0.6279
   36MOL   C17812148   3.630   1.302   1.677 -0.1639 -0.2753  0.1783
   36MOL   C17912149   3.707   1.413   1.651 -0.3202 -0.0702  0.2430
   36MOL   C18012150   3.952   1.619   1.663  0.5074 -0.5538 -1.2033
   36MOL   H18112151   3.997   1.502   1.493  1.2388 -1.9255  2.7798
   36MOL   H18212152   3.995   1.265   1.564 -1.0052 -2.4690 -1.9982
   36MOL   H18312153   3.856   1.062   1.602 -0.8632 -0.3035 -0.1437
   36MOL   H18412154   3.528   1.086   1.696  0.1601 -0.7460  0.7078
   36MOL   H18512155   3.527   1.320   1.704 -0.7124 -0.9466 -1.3939
   36MOL   H18612156   3.656   1.505   1.673  0.0549  0.1191  0.3182
   36MOL   H18712157   3.942   1.571   1.760 -0.1458 -0.9624 -1.4651
   36MOL   H18812158   3.885   1.703   1.676  1.5888 -0.0112  1.0456
   36MOL   C18912159   4.096   1.672   1.653  0.0648 -0.8349 -0.5157
   36MOL   C19012160   4.124   1.793   1.557 -0.3658 -0.2651  0.0271
   36MOL   C19112161   4.041   1.903   1.567  0.2454  0.4001  0.6823
   36MOL   C19212162   4.055   2.010   1.475 -0.2949 -0.0637 -1.0983
   36MOL   C19312163   4.163   2.009   1.390 -0.1389 -0.4719  0.3676
   36MOL   O19412164   4.167   2.106   1.293  0.1216  0.0624  0.5255
   36MOL   C19512165   4.259   1.906   1.385  0.8926  0.1689 -0.1467
   36MOL   C19612166   4.237   1.790   1.467 -0.0251 -0.6872  0.1884
   36MOL   C19712167   4.151   1.702   1.798 -0.2503  0.4246  0.5892
   36MOL   H19812168   4.154   1.587   1.615 -1.0943 -1.8625 -0.0091
   36MOL   H19912169   3.968   1.912   1.646 -0.9938 -0.9626 -0.2809
   36MOL   H20012170   3.994   2.097   1.492  1.2438  0.6105  1.0772
   36MOL   H20112171   4.095   2.089   1.234  0.3073  1.4591 -0.1209
   36MOL   H20212172   4.342   1.915   1.317  1.4506  1.5560  0.7193
   36MOL   H20312173   4.308   1.709   1.473 -3.2115 -3.4282  3.1705
   36MOL   H20412174   4.107   1.633   1.870  1.4039  1.2608  2.4361
   36MOL   H20512175   4.112   1.798   1.833  2.7075  2.2699 -0.9387
   36MOL   C20612176   4.314   1.691   1.811  0.3256 -0.2768  0.0042
   36MOL   C20712177   4.367   1.559   1.756 -0.1986 -0.4666 -0.0792
   36MOL   C20812178   4.290   1.441   1.764  0.1898  0.5558  0.4878
   36MOL   C20912179   4.327   1.321   1.700 -0.5759  0.3828  0.6207
   36MOL   C21012180   4.456   1.308   1.640  0.4788  0.4225 -0.1540
   36MOL   O21112181   4.496   1.197   1.581  0.3270  0.2112  0.3001
   36MOL   C21212182   4.533   1.426   1.630  0.0399  0.2343  0.5887
   36MOL   C21312183   4.492   1.549   1.691  0.2730 -0.4407 -0.7040
   36MOL   C21412184   4.351   1.697   1.964 -0.7715 -0.1732  0.0044
   36MOL   H21512185   4.351   1.774   1.750  0.4586 -1.1787 -1.1616
   36MOL   H21612186   4.201   1.431   1.825 -0.6330  0.5495 -0.7108
   36MOL   H21712187   4.267   1.231   1.706 -0.3878 -0.0818 -3.2142
   36MOL   H21812188   4.455   1.117   1.612  0.2557 -0.0667 -0.4906
   36MOL   H21912189   4.629   1.428   1.580 -1.0532 -0.2570 -1.5934
   36MOL   H22012190   4.551   1.639   1.688 -0.1195 -0.0229  2.9715
   36MOL   H22112191   4.325   1.599   2.004  2.4319 -1.0651  0.0548
   36MOL   H22212192   4.278   1.762   2.013 -0.2613  1.1280 -0.9116
   36MOL   C22312193   4.496   1.744   2.006  0.1890  0.3253  0.1796
   36MOL   C22412194   4.509   1.750   2.154  0.1792  0.6589  0.1114
   36MOL   C22512195   4.584   1.656   2.226 -0.1120  0.2774 -0.0109
   36MOL   C22612196   4.585   1.659   2.366  0.2811 -0.1195 -0.4407
   36MOL   C22712197   4.499   1.746   2.433 -0.7159  0.5764  0.4097
   36MOL   O22812198   4.477   1.726   2.567 -0.0062 -0.2676 -0.1907
   36MOL   C22912199   4.418   1.836   2.366  0.2003 -0.3537 -0.3995
   36MOL   C23012200   4.424   1.836   2.225 -0.0320  0.2231 -0.2844
   36MOL   C23112201   4.533   1.884   1.943 -0.2905  0.5214  0.2057
   36MOL   H23212202   4.561   1.674   1.952 -0.6425 -0.9311  0.7952
   36MOL   H23312203   4.656   1.596   2.174 -1.7554 -1.6768 -0.0735
   36MOL   H23412204   4.651   1.588   2.413 -1.8291 -1.6512  0.2982
   36MOL   H23512205   4.518   1.648   2.602 -1.1840 -0.6105  0.4481
   36MOL   H23612206   4.369   1.914   2.423  1.6252 -0.2372  0.7212
   36MOL   H23712207   4.357   1.905   2.176 -0.7729 -0.0960  0.2727
   36MOL   H23812208   4.508   1.893   1.838 -3.1540  1.0962  0.8906
   36MOL   H23912209   4.465   1.942   2.006  0.7920 -0.3974  2.2892
   36MOL   C24012210   4.681   1.932   1.960  0.4932  0.2683  0.2829
   36MOL   C24112211   4.777   1.853   1.871  0.3122  0.0738 -0.3343
   36MOL   C24212212   4.879   1.774   1.925  0.4741 -0.0451 -0.6115
   36MOL   C24312213   4.975   1.722   1.842  0.2556  0.3627  0.4830
   36MOL   C24412214   4.968   1.746   1.701  0.6223  0.2037  0.8979
   36MOL   O24512215   5.060   1.702   1.613 -0.1458  0.4782 -0.1940
   36MOL   C24612216   4.867   1.824   1.644  0.2394 -0.2660  0.0475
   36MOL   C24712217   4.767   1.875   1.734 -0.2381  0.5181  1.0434
   36MOL   C24812218   4.697   2.084   1.948 -0.5216 -0.3832  0.6668
   36MOL   H24912219   4.709   1.910   2.063  0.2398  2.4320  0.8431
   36MOL   H25012220   4.875   1.774   2.033 -1.3681 -1.3032 -0.6391
   36MOL   H25112221   5.060   1.672   1.884  0.6852  2.1746  1.8597
   36MOL   H25212222   5.111   1.647   1.671  0.1267  1.7879  0.8592
   36MOL   H25312223   4.868   1.833   1.537  1.0064 -0.6449  0.0197
   36MOL   H25412224   4.688   1.933   1.689  0.1702 -0.5077 -1.0585
   36MOL   H25512225   4.675   2.123   1.848  1.3651 -1.9343 -0.3849
   36MOL   H25612226   4.619   2.114   2.018 -2.3794 -1.1410 -1.0424
   36MOL   C25712227   4.831   2.146   1.998 -0.5974  0.1655  0.0568
   36MOL   C25812228   4.955   2.111   1.919 -0.1738  0.1048 -0.6147
   36MOL   C25912229   4.960   2.137   1.777  0.8387  0.1847 -0.3767
   36MOL   C26012230   5.070   2.091   1.699  0.2504 -0.0747 -0.1106
   36MOL   C26112231   5.176   2.026   1.764  0.0876 -0.7466 -0.1986
   36MOL   O26212232   5.284   1.970   1.706  0.3243  0.1003 -0.3895
   36MOL   C26312233   5.170   2.012   1.907  0.0918  0.2024  0.1897
   36MOL   C26412234   5.060   2.045   1.984 -0.3670 -0.3168  0.3448
   36MOL   C26512235   4.810   2.303   2.011 -0.9673 -0.6750 -0.5903
   36MOL   H26612236   4.841   2.111   2.101 -0.1004  0.1526  0.0046
   36MOL   H26712237   4.889   2.203   1.731  0.6264  1.7326  2.0796
   36MOL   H26812238   5.059   2.094   1.592  0.7296 -2.0845 -0.2395
   36MOL   H26912239   5.265   1.936   1.620 -0.3173 -2.5568  0.7477
   36MOL   H27012240   5.250   1.951   1.947  0.5596 -0.1379 -1.2430
   36MOL   H27112241   5.059   2.025   2.090  1.9234 -1.0118  0.2664
   36MOL   H27212242   4.703   2.312   2.033 -1.5323  0.3297 -3.4923
   36MOL   H27312243   4.823   2.364   1.921  0.6079  1.2109  0.8621
   36MOL   C27412244   4.895   2.346   2.134 -0.1550  0.3256 -1.1186
   36MOL   C27512245   4.801   2.331   2.255 -0.2118 -0.3862 -0.0972
   36MOL   C27612246   4.697   2.427   2.276  0.2129  0.2298 -0.0881
   36MOL   C27712247   4.602   2.402   2.376  0.0184  0.6188 -0.6593
   36MOL   C27812248   4.609   2.284   2.458  0.1447 -0.4513 -0.1229
   36MOL   O27912249   4.505   2.255   2.545 -0.9623 -0.6836 -0.2882
   36MOL   C28012250   4.715   2.195   2.441 -0.2325 -0.3755 -0.1259
   36MOL   C28112251   4.817   2.225   2.347 -0.5823  0.1553 -0.1106
   36MOL   C28212252   4.959   2.490   2.127 -0.0612  0.5499  0.8754
   36MOL   H28312253   4.981   2.281   2.154 -1.1469 -0.8251 -0.5546
   36MOL   H28412254   4.695   2.511   2.207 -1.0780  0.7440  0.5678
   36MOL   H28512255   4.517   2.465   2.396  2.4542  3.5222  0.8765
   36MOL   H28612256   4.518   2.169   2.583  0.0091  0.3826  1.8701
   36MOL   H28712257   4.712   2.102   2.495 -4.1243 -0.1781  0.0772
   36MOL   H28812258   4.898   2.154   2.344 -0.6880 -0.1124  2.3271
   36MOL   H28912259   4.880   2.555   2.090 -0.4319 -0.0398  0.6305
   36MOL   H29012260   4.993   2.520   2.226  0.7229  2.6831  0.0017
   36MOL   C29112261   5.075   2.483   2.027 -0.3042 -0.3751  0.8547
   36MOL   C29212262   5.201   2.403   2.072  0.2730  0.6589 -0.1287
   36MOL   C29312263   5.258   2.309   1.985  0.2812 -1.2723  0.3046
   36MOL   C29412264   5.373   2.233   2.016 -0.2098  0.0958  0.5818
   36MOL   C29512265   5.425   2.244   2.148 -0.5665 -0.8528  0.3042
   36MOL   O29612266   5.529   2.167   2.187 -0.1308 -0.1124 -0.0132
   36MOL   C29712267   5.371   2.343   2.231 -0.1769 -0.3273 -0.3536
   36MOL   C29812268   5.261   2.416   2.195 -0.0783  0.1385  0.5608
   36MOL   C29912269   5.122   2.618   1.965 -0.0413 -1.0623 -0.6801
   36MOL   H30012270   5.038   2.435   1.937  0.8238 -0.8965  0.6640
   36MOL   H30112271   5.220   2.307   1.884  2.1804  1.0479 -0.5152
   36MOL   H30212272   5.412   2.161   1.946 -0.2876  0.2848  0.3431
   36MOL   H30312273   5.539   2.181   2.279  0.6747 -1.3495  0.0975
   36MOL   H30412274   5.414   2.354   2.330 -3.1545 -1.1365  1.1088
   36MOL   H30512275   5.223   2.497   2.256  2.5003  0.1639  2.2590
   36MOL   H30612276   5.195   2.608   1.884  0.3345  2.3029 -0.8510
   36MOL   H30712277   5.185   2.659   2.044 -1.2807 -1.9310  0.7917
   36MOL   C30812278   5.024   2.735   1.940 -0.4320 -0.2019 -0.3901
   36MOL   C30912279   4.909   2.681   1.856  0.1889  0.0651  0.0908
   36MOL   C31012280   4.774   2.721   1.881 -0.0082 -0.7079  0.3345
   36MOL   C31112281   4.673   2.660   1.796 -0.5509 -0.8982 -0.7164
   36MOL   C31212282   4.710   2.569   1.691 -0.3173 -0.1737 -0.8835
   36MOL   O31312283   4.618   2.505   1.622  0.4208  0.1106  0.0845
   36MOL   C31412284   4.846   2.542   1.662  0.3477  0.5207 -0.2863
   36MOL   C31512285   4.943   2.604   1.739  0.0131  1.1547 -0.6193
   36MOL   C31612286   5.093   2.862   1.877  0.1856 -0.3425  0.4519
   36MOL   H31712287   4.977   2.759   2.035  1.1644  0.0515  0.3553
   36MOL   H31812288   4.748   2.787   1.962 -2.9746 -1.8891  0.4119
   36MOL   H31912289   4.571   2.691   1.809  0.4629  1.9153  1.0159
   36MOL   H32012290   4.645   2.480   1.535  0.3897 -1.1919  0.4370
   36MOL   H32112291   4.871   2.470   1.585 -0.4116 -0.6772  0.5733
   36MOL   H32212292   5.048   2.587   1.720  0.0612 -0.0991  0.7393
   36MOL   H32312293   5.021   2.944   1.875  0.8747  0.2943 -3.6630
   36MOL   H32412294   5.125   2.841   1.775  1.0372  0.2071  0.5989
   36MOL   C32512295   5.214   2.929   1.960  1.0047 -0.2991  0.1250
   36MOL   C32612296   5.200   2.938   2.111  0.3719 -0.3270  0.5237
   36MOL   C32712297   5.088   3.005   2.158  0.5862 -0.9227 -0.3276
   36MOL   C32812298   5.076   3.035   2.295  0.4756  0.5890  0.2965
   36MOL   C32912299   5.164   2.977   2.388 -0.2281  0.2211  0.1657
   36MOL   O33012300   5.151   3.003   2.519 -0.1510 -0.1507 -0.0439
   36MOL   C33112301   5.270   2.903   2.341 -0.3776  0.1631  0.1771
   36MOL   C33212302   5.287   2.880   2.204  0.7298  0.0843  0.1677
   36MOL   C33312303   5.243   3.066   1.907  0.4631 -0.5608  0.3800
   36MOL   H33412304   5.306   2.871   1.952  0.8770 -0.3030 -1.5750
   36MOL   H33512305   5.016   3.054   2.094  2.7856  2.8359 -0.0459
   36MOL   H33612306   4.986   3.088   2.324 -1.2536 -2.9938  1.7762
   36MOL   H33712307   5.085   2.947   2.558 -0.8325  0.4854 -0.2522
   36MOL   H33812308   5.349   2.872   2.407 -0.5010  2.2851  1.3350
   36MOL   H33912309   5.374   2.818   2.189  0.9515 -0.1657  2.3349
   36MOL   H34012310   5.158   3.131   1.928  1.2952  0.6670 -0.0541
   36MOL   H34112311   5.257   3.058   1.799 -0.6408 -2.1727  0.3295
   36MOL   H34212312   5.334   3.102   1.953  0.4121  0.1911 -0.1127
   37MOL     C112313   1.609   6.109   4.128 -0.0929 -0.8157 -0.1703
   37MOL     C212314   1.753   6.069   4.160 -0.1055 -0.1942 -0.3868
   37MOL     C312315   1.789   6.011   4.285 -0.3149 -0.5964 -0.1122
   37MOL     C412316   1.922   5.970   4.298 -0.2517  1.1715  0.5880
   37MOL     C512317   2.022   5.997   4.197 -0.4733  0.2883 -0.3437
   37MOL     O612318   2.156   5.988   4.233  0.0540 -0.5085  0.0271
   37MOL     C712319   1.984   6.055   4.073  0.7508 -0.0504 -0.1315
   37MOL     C812320   1.845   6.086   4.048 -0.0800  0.3234  0.7266
   37MOL     C912321   1.539   6.204   4.235 -0.2272  0.0395 -0.3016
   37MOL    H1012322   1.611   6.158   4.031  0.3085  1.4328  0.9550
   37MOL    H1112323   1.709   5.984   4.351 -2.1736 -2.1136 -2.8865
   37MOL    H1212324   1.946   5.928   4.394  1.8557  0.0913 -0.3770
   37MOL    H1312325   2.209   5.965   4.158  1.0222 -3.0152  1.4322
   37MOL    H1412326   2.062   6.065   3.999  2.3367  0.1282  1.5304
   37MOL    H1512327   1.814   6.120   3.951 -0.3673 -0.3023  0.5977
   37MOL    H1612328   1.555   6.169   4.337 -0.1543  1.4910  0.1968
   37MOL    H1712329   1.432   6.188   4.225 -0.2832  0.3239 -0.1805
   37MOL    H1812330   1.542   6.023   4.124 -1.8416  0.4063  2.2362
   37MOL    C1912331   1.557   6.360   4.219 -0.3256 -0.4348  0.0504
   37MOL    C2012332   1.504   6.434   4.343 -0.0015 -0.1287 -0.4495
   37MOL    C2112333   1.362   6.427   4.374 -0.3006 -0.0499  0.2116
   37MOL    C2212334   1.310   6.504   4.485  0.0177  0.0012 -0.7791
   37MOL    C2312335   1.395   6.590   4.555  0.3743  0.5008  0.0594
   37MOL    O2412336   1.340   6.664   4.653  0.1433  0.4140  0.3286
   37MOL    C2512337   1.534   6.588   4.531  0.1720  0.0088  0.2755
   37MOL    C2612338   1.585   6.517   4.425  0.0446  0.2244 -0.2178
   37MOL    C2712339   1.489   6.411   4.089 -0.8544 -0.9323  0.3935
   37MOL    H2812340   1.662   6.379   4.199 -0.7593  0.5619 -1.3445
   37MOL    H2912341   1.294   6.361   4.322  2.3812 -1.1359 -2.0704
   37MOL    H3012342   1.204   6.505   4.509  0.3210 -0.5370  0.6003
   37MOL    H3112343   1.394   6.732   4.691  0.2441 -0.2090  1.3216
   37MOL    H3212344   1.600   6.649   4.591  2.4050 -0.1977 -1.9011
   37MOL    H3312345   1.689   6.527   4.396  0.9097 -1.4609  2.1368
   37MOL    H3412346   1.384   6.386   4.103 -1.5646  1.3469 -0.6482
   37MOL    H3512347   1.532   6.354   4.006 -0.3277 -2.3734  1.6269
   37MOL    C3612348   1.496   6.554   4.068  0.2057  0.1159  0.0718
   37MOL    C3712349   1.416   6.591   3.947  0.0584  0.2111  0.1063
   37MOL    C3812350   1.290   6.650   3.964  0.6687 -0.5951  0.1826
   37MOL    C3912351   1.211   6.689   3.854 -0.0760  0.2747 -0.2133
   37MOL    C4012352   1.255   6.661   3.728  0.5189  0.7932  0.5959
   37MOL    O4112353   1.175   6.694   3.625 -0.3825  0.1154 -0.0945
   37MOL    C4212354   1.379   6.598   3.703 -0.0220  0.6155  0.4523
   37MOL    C4312355   1.461   6.568   3.815  0.4299 -0.0638  0.2063
   37MOL    C4412356   1.641   6.615   4.055 -0.0148 -0.0621  0.1928
   37MOL    H4512357   1.440   6.604   4.147 -0.0099 -0.5180  0.3214
   37MOL    H4612358   1.257   6.670   4.065  1.8056 -0.5298  0.5497
   37MOL    H4712359   1.114   6.735   3.865 -0.5978 -0.9775  0.4224
   37MOL    H4812360   1.212   6.664   3.543 -2.1790 -0.9722 -0.5277
   37MOL    H4912361   1.420   6.581   3.605  0.2057  0.5332  0.5612
   37MOL    H5012362   1.554   6.519   3.788 -0.0084  0.6189 -2.7098
   37MOL    H5112363   1.687   6.602   4.153 -0.4883 -0.5108  0.3529
   37MOL    H5212364   1.703   6.560   3.985  1.2176 -1.5615  2.4009
   37MOL    C5312365   1.645   6.762   4.023 -0.2289  0.0732  0.3403
   37MOL    C5412366   1.601   6.859   4.133  1.0980 -0.4399 -0.1660
   37MOL    C5512367   1.664   6.857   4.256 -0.2661  0.1704 -0.1949
   37MOL    C5612368   1.624   6.932   4.367 -0.0872  0.1717 -0.6433
   37MOL    C5712369   1.519   7.022   4.352  0.1846 -0.3297 -0.3668
   37MOL    O5812370   1.481   7.093   4.463 -0.2760  0.1217  0.7184
   37MOL    C5912371   1.441   7.020   4.234  0.2641  0.1817  0.1566
   37MOL    C6012372   1.484   6.938   4.123 -0.6434 -0.2186  1.2853
   37MOL    C6112373   1.784   6.797   3.968 -1.1668  0.6467 -0.2196
   37MOL    H6212374   1.576   6.782   3.941  0.7531  1.4819 -0.1589
   37MOL    H6312375   1.746   6.788   4.269 -1.8277 -1.4193  1.6012
   37MOL    H6412376   1.664   6.923   4.467  2.8843  0.5440 -1.7562
   37MOL    H6512377   1.492   7.183   4.434 -0.3805 -0.2575 -0.5257
   37MOL    H6612378   1.349   7.076   4.221  0.4730  0.5977  0.4486
   37MOL    H6712379   1.422   6.938   4.035  0.2645 -0.9401  0.6265
   37MOL    H6812380   1.792   6.745   3.872  1.3212  0.1848  0.1977
   37MOL    H6912381   1.864   6.759   4.031 -1.3226 -0.0943 -0.4695
   37MOL    C7012382   1.810   6.949   3.937 -0.2776  0.4053 -0.0349
   37MOL    C7112383   1.690   7.012   3.871 -0.4320 -0.1266  0.0823
   37MOL    C7212384   1.629   6.962   3.750  0.9454  0.3468 -0.5099
   37MOL    C7312385   1.534   7.039   3.687 -0.3712 -0.0199  0.3418
   37MOL    C7412386   1.498   7.169   3.737  0.2508  0.0321  0.4060
   37MOL    O7512387   1.399   7.240   3.670  0.3628  0.0354 -0.1849
   37MOL    C7612388   1.561   7.218   3.855 -0.5176  0.9204  1.1450
   37MOL    C7712389   1.651   7.136   3.925  0.2927 -0.5576 -0.4001
   37MOL    C7812390   1.943   6.970   3.856  0.1049  0.9084  0.2424
   37MOL    H7912391   1.842   6.993   4.031  3.0880  0.0937 -0.9971
   37MOL    H8012392   1.672   6.874   3.705 -0.7154 -0.1939 -1.0471
   37MOL    H8112393   1.505   6.997   3.592 -1.7476 -0.0458  0.7572
   37MOL    H8212394   1.336   7.183   3.630 -2.6902  2.2685  1.2641
   37MOL    H8312395   1.534   7.314   3.897 -2.3593  0.7416  0.4086
   37MOL    H8412396   1.677   7.167   4.025  0.5615 -1.4573 -0.1853
   37MOL    H8512397   1.927   6.932   3.755 -0.6277 -1.2926  1.1758
   37MOL    H8612398   2.022   6.912   3.903 -0.7809 -0.1361  0.4450
   37MOL    C8712399   1.996   7.117   3.841 -0.1837  0.1884  0.6807
   37MOL    C8812400   2.029   7.145   3.693  0.3774 -0.6666  0.0872
   37MOL    C8912401   1.931   7.222   3.620 -0.1484 -0.4836  0.8989
   37MOL    C9012402   1.953   7.246   3.478  0.1463 -0.3461 -0.3889
   37MOL    C9112403   2.073   7.193   3.420  0.1164 -0.0494  0.4163
   37MOL    O9212404   2.099   7.227   3.285 -0.1023 -0.0730  0.3595
   37MOL    C9312405   2.172   7.122   3.495 -0.0826  0.6784  0.1448
   37MOL    C9412406   2.147   7.101   3.632  0.0615 -0.9145 -0.1981
   37MOL    C9512407   2.124   7.131   3.931  0.3289  0.5748 -0.6358
   37MOL    H9612408   1.928   7.193   3.880 -2.1926 -1.6455  0.8614
   37MOL    H9712409   1.844   7.273   3.659 -1.1391 -0.9273 -0.6769
   37MOL    H9812410   1.874   7.294   3.422  1.1135  1.9279  0.1293
   37MOL    H9912411   2.021   7.256   3.239  0.5040 -0.5068 -0.9685
   37MOL   H10012412   2.259   7.073   3.453  0.2987  0.2102  1.4594
   37MOL   H10112413   2.218   7.043   3.689 -1.9705 -0.1476  3.2461
   37MOL   H10212414   2.197   7.066   3.883 -1.1380 -1.7762  0.2083
   37MOL   H10312415   2.156   7.233   3.910 -2.5469  1.1382 -2.6570
   37MOL   C10412416   2.108   7.109   4.092  1.2286  0.2491  1.0122
   37MOL   C10512417   1.997   7.202   4.145 -0.5823  0.1265  0.3822
   37MOL   C10612418   1.888   7.157   4.231 -0.3103  0.1569 -0.8219
   37MOL   C10712419   1.784   7.250   4.267 -0.1561  0.2223  0.0913
   37MOL   C10812420   1.791   7.388   4.233 -0.6532  0.0415 -0.5092
   37MOL   O10912421   1.698   7.474   4.274  0.5126 -0.0694  0.5054
   37MOL   C11012422   1.897   7.426   4.152  0.8915 -0.0962 -0.3538
   37MOL   C11112423   1.996   7.337   4.105  0.4447  0.2839  0.2127
   37MOL   C11212424   2.238   7.121   4.164 -0.6094 -0.1993 -0.4575
   37MOL   H11312425   2.062   7.010   4.097  0.1607  0.6929  0.4122
   37MOL   H11412426   1.868   7.057   4.267  1.5645  0.3804  0.8970
   37MOL   H11512427   1.707   7.202   4.326  0.2316  0.7577  1.0382
   37MOL   H11612428   1.723   7.565   4.275 -0.9443  0.3553 -0.8902
   37MOL   H11712429   1.892   7.526   4.113  0.0865 -0.3673 -0.9684
   37MOL   H11812430   2.075   7.374   4.041  0.2068 -0.1678 -0.3405
   37MOL   H11912431   2.282   7.219   4.147 -3.4544  1.0778 -0.8501
   37MOL   H12012432   2.302   7.058   4.102  1.7306  2.7292 -1.1052
   37MOL   C12112433   2.239   7.079   4.317  0.5095  0.7001 -0.3962
   37MOL   C12212434   2.368   6.995   4.356  0.3084  1.1021 -0.0120
   37MOL   C12312435   2.495   7.057   4.338 -0.1088 -1.0348 -0.1849
   37MOL   C12412436   2.610   6.989   4.375 -0.3502  0.3351 -0.4246
   37MOL   C12512437   2.603   6.859   4.436 -0.3923 -0.5469 -0.1142
   37MOL   O12612438   2.701   6.797   4.506  0.6425  0.0051 -0.1029
   37MOL   C12712439   2.473   6.797   4.439 -0.1369 -0.0250 -0.0597
   37MOL   C12812440   2.359   6.860   4.389 -0.3744  0.1550  0.0011
   37MOL   C12912441   2.201   7.192   4.412 -0.1293  0.0641  0.3552
   37MOL   H13012442   2.166   7.001   4.338 -0.5445  1.2199 -1.9920
   37MOL   H13112443   2.509   7.156   4.299  0.7160 -0.7158  0.8973
   37MOL   H13212444   2.700   7.049   4.374 -0.8364  1.0637 -0.9682
   37MOL   H13312445   2.671   6.756   4.586  1.8954  2.2270  1.5496
   37MOL   H13412446   2.466   6.695   4.476  1.5295 -0.3903 -0.7305
   37MOL   H13512447   2.268   6.804   4.405 -0.4204  0.8103  2.2271
   37MOL   H13612448   2.107   7.243   4.392  0.4289  0.1412 -2.2300
   37MOL   H13712449   2.278   7.265   4.388  0.8896 -0.9140  0.5962
   37MOL   C13812450   2.219   7.163   4.565 -0.2135  0.0986 -0.4889
   37MOL   C13912451   2.119   7.066   4.626  0.2085  0.5312  0.3511
   37MOL   C14012452   2.162   6.997   4.739 -0.7524  0.3138 -0.1973
   37MOL   C14112453   2.098   6.887   4.784  0.1694 -0.2060 -0.9536
   37MOL   C14212454   1.982   6.836   4.724  0.2036 -0.3748 -0.4318
   37MOL   O14312455   1.932   6.716   4.766  0.2837  0.2939  0.0761
   37MOL   C14412456   1.938   6.903   4.607 -0.8845  0.4342  0.6512
   37MOL   C14512457   2.005   7.017   4.559 -0.0529  0.1684 -0.3175
   37MOL   C14612458   2.218   7.298   4.645 -0.7968  0.4945 -0.3159
   37MOL   H14712459   2.315   7.112   4.576 -0.9009 -0.7672  1.6003
   37MOL   H14812460   2.257   7.027   4.780 -2.3222  1.8049  2.5952
   37MOL   H14912461   2.136   6.842   4.875 -0.5536  2.8204  0.8751
   37MOL   H15012462   1.917   6.652   4.699  0.8152 -1.4614  1.5908
   37MOL   H15112463   1.863   6.874   4.535  0.7345  1.0030 -1.3053
   37MOL   H15212464   1.964   7.053   4.465  0.8885  0.3539 -0.6559
   37MOL   H15312465   2.181   7.267   4.742  3.5299 -2.0777  0.6483
   37MOL   H15412466   2.146   7.365   4.598  0.4050  1.5397 -0.7154
   37MOL   C15512467   2.361   7.353   4.660 -0.2175  0.6971 -0.3872
   37MOL   C15612468   2.451   7.268   4.747 -0.1375 -0.3944 -0.6961
   37MOL   C15712469   2.545   7.183   4.687  0.4611 -0.4436  0.6684
   37MOL   C15812470   2.633   7.103   4.764  0.0460 -0.2984  0.0823
   37MOL   C15912471   2.629   7.111   4.903  0.1537 -0.3480 -0.2010
   37MOL   O16012472   2.714   7.044   4.981 -0.0786  0.4253  0.0166
   37MOL   C16112473   2.548   7.206   4.966 -0.2046 -1.2282 -1.2495
   37MOL   C16212474   2.457   7.276   4.887  0.2022  0.5294 -0.4287
   37MOL   C16312475   2.363   7.500   4.708  0.4272 -0.2933 -0.4557
   37MOL   H16412476   2.415   7.344   4.566  0.1971  0.7166 -0.1522
   37MOL   H16512477   2.565   7.167   4.583  0.3416 -1.2014  0.7578
   37MOL   H16612478   2.680   7.020   4.713 -0.5852 -0.3992 -0.3476
   37MOL   H16712479   2.670   7.021   5.062  1.4705 -1.4023  0.3621
   37MOL   H16812480   2.542   7.218   5.074  1.4419  0.4499 -1.3224
   37MOL   H16912481   2.393   7.343   4.944  1.0255  2.2992 -1.5281
   37MOL   H17012482   2.460   7.521   4.753 -0.2790  0.5485  0.6778
   37MOL   H17112483   2.296   7.500   4.794 -1.4486  1.1002 -1.8833
   37MOL   C17212484   2.315   7.605   4.605 -0.0788  0.2697 -0.7008
   37MOL   C17312485   2.389   7.596   4.471  0.4286 -0.0861  0.4634
   37MOL   C17412486   2.520   7.644   4.457 -0.2463 -0.3012  0.8116
   37MOL   C17512487   2.587   7.645   4.328 -0.1289  0.4654 -0.6208
   37MOL   C17612488   2.515   7.589   4.219 -0.8943 -0.1033 -0.6745
   37MOL   O17712489   2.563   7.589   4.092 -0.1485  0.5142  0.1522
   37MOL   C17812490   2.386   7.544   4.234 -0.5960 -0.1629  0.4313
   37MOL   C17912491   2.326   7.534   4.360  0.8339 -0.2849 -0.6849
   37MOL   C18012492   2.328   7.744   4.671  0.5101  0.0035 -0.4245
   37MOL   H18112493   2.209   7.585   4.595  0.0432 -1.5882  1.3131
   37MOL   H18212494   2.578   7.671   4.545  1.7362 -1.4180 -0.1183
   37MOL   H18312495   2.691   7.674   4.326 -0.8623  3.4186  0.8347
   37MOL   H18412496   2.657   7.592   4.096 -0.0147  0.7394 -2.2143
   37MOL   H18512497   2.335   7.505   4.147 -0.4404  1.3405 -0.3456
   37MOL   H18612498   2.229   7.490   4.375  0.7371  0.3761  0.7771
   37MOL   H18712499   2.428   7.764   4.708  0.9364 -0.3967 -1.3577
   37MOL   H18812500   2.270   7.734   4.763 -1.3756 -2.4970 -1.8214
   37MOL   C18912501   2.282   7.860   4.570 -0.0990  0.2940 -0.4243
   37MOL   C19012502   2.150   7.837   4.501 -0.2615  0.2641 -0.0921
   37MOL   C19112503   2.148   7.799   4.367 -0.0888  0.2969 -1.3720
   37MOL   C19212504   2.028   7.753   4.300 -0.5307  0.0107 -0.1191
   37MOL   C19312505   1.907   7.765   4.375 -0.2622 -0.0200 -0.5842
   37MOL   O19412506   1.792   7.735   4.310 -0.0877  0.9701  0.5990
   37MOL   C19512507   1.902   7.821   4.507  0.2484  0.2461  0.7349
   37MOL   C19612508   2.027   7.859   4.567  0.5921 -0.5145 -0.6774
   37MOL   C19712509   2.276   7.995   4.638 -0.1046 -0.3366 -0.1642
   37MOL   H19812510   2.356   7.874   4.491 -1.7479 -0.2672 -2.1174
   37MOL   H19912511   2.243   7.781   4.318  0.0966 -2.3012 -0.1893
   37MOL   H20012512   2.039   7.703   4.205  1.4147  1.5209 -0.7306
   37MOL   H20112513   1.722   7.798   4.313  0.3589  1.5107 -0.1934
   37MOL   H20212514   1.808   7.829   4.559 -1.0071  2.0061 -1.7072
   37MOL   H20312515   2.016   7.913   4.660  1.6158 -1.0341 -0.2481
   37MOL   H20412516   2.223   7.992   4.734 -1.1751 -0.6029 -0.7535
   37MOL   H20512517   2.205   0.028   4.596 -1.8315 -1.6321  0.5266
   37MOL   C20612518   2.402   0.033   4.662  0.5731 -0.0805  0.7628
   37MOL   C20712519   2.515   7.985   4.725 -0.3542 -0.4599 -0.5866
   37MOL   C20812520   2.524   7.960   4.863 -0.1008 -0.5359 -0.4128
   37MOL   C20912521   2.623   7.881   4.914  0.2592 -1.2465  0.0454
   37MOL   C21012522   2.724   7.827   4.834  0.4346  0.0682  0.1207
   37MOL   O21112523   2.821   7.756   4.885 -0.6038  0.4954  0.5934
   37MOL   C21212524   2.717   7.855   4.696 -0.0961 -0.1753  0.5738
   37MOL   C21312525   2.621   7.940   4.645 -0.6608 -0.3536  0.2877
   37MOL   C21412526   2.383   0.170   4.739 -0.0839 -0.5775 -0.3663
   37MOL   H21512527   2.430   0.049   4.558 -0.0384  1.6503  0.8359
   37MOL   H21612528   2.450   8.009   4.924  0.4151  1.0957 -1.0711
   37MOL   H21712529   2.630   7.850   5.017  0.2762 -3.3101 -0.5487
   37MOL   H21812530   2.800   7.733   4.974  0.3014 -0.6665  0.5102
   37MOL   H21912531   2.798   7.808   4.643  0.3079  0.2278  0.8305
   37MOL   H22012532   2.621   7.965   4.540 -0.3002  1.3961  0.6786
   37MOL   H22112533   2.324   0.149   4.829  0.5210  1.6741  0.5920
   37MOL   H22212534   2.323   0.241   4.683 -0.6403 -1.9225 -1.5142
   37MOL   C22312535   2.501   0.247   4.788 -0.6876  0.4288 -0.1420
   37MOL   C22412536   2.458   0.354   4.887 -0.8476 -0.5370  0.0696
   37MOL   C22512537   2.364   0.453   4.854  0.1856 -0.9317  0.0684
   37MOL   C22612538   2.339   0.557   4.945  0.2178 -0.1194 -0.4886
   37MOL   C22712539   2.391   0.555   5.072  1.0763 -0.3480  0.8449
   37MOL   O22812540   2.364   0.651   5.160  0.1877  0.1672 -0.2501
   37MOL   C22912541   2.475   0.455   5.110  0.2339 -0.3019 -0.1937
   37MOL   C23012542   2.519   0.358   5.016 -0.5847  0.4922  0.1733
   37MOL   C23112543   2.602   0.299   4.676 -0.4735  0.1258 -0.1205
   37MOL   H23212544   2.567   0.179   4.842 -1.5030  1.0675  1.7190
   37MOL   H23312545   2.324   0.462   4.754 -0.1074 -1.6157  0.1237
   37MOL   H23412546   2.274   0.641   4.924  0.0593  0.3633  1.8190
   37MOL   H23512547   2.315   0.715   5.110 -0.1125  2.0382  2.3129
   37MOL   H23612548   2.515   0.466   5.210 -1.7433  1.6195  0.4173
   37MOL   H23712549   2.590   0.286   5.052 -1.1145 -0.6259 -1.0042
   37MOL   H23812550   2.637   0.216   4.616  1.7852 -0.9083  2.5629
   37MOL   H23912551   2.558   0.381   4.619  0.0640  1.1646  0.9378
   37MOL   C24012552   2.738   0.358   4.730 -1.1262 -0.5846  0.6843
   37MOL   C24112553   2.809   0.271   4.828 -0.6757  0.3981 -0.0675
   37MOL   C24212554   2.842   0.314   4.959  0.4198  0.1444 -0.4745
   37MOL   C24312555   2.922   0.225   5.030  0.4143  0.5091  0.1331
   37MOL   C24412556   2.956   0.098   4.985  0.2568  0.1237 -0.3889
   37MOL   O24512557   3.047   0.018   5.050 -0.6637 -0.2055  0.5257
   37MOL   C24612558   2.904   0.050   4.861  0.5687 -0.1017  0.7852
   37MOL   C24712559   2.829   0.137   4.781 -0.1566  0.5870 -1.0259
   37MOL   C24812560   2.836   0.384   4.615  0.4683  0.8475 -0.2854
   37MOL   H24912561   2.716   0.450   4.783  0.0305  0.4918 -0.6819
   37MOL   H25012562   2.816   0.410   5.002  1.8106  0.2797  0.0722
   37MOL   H25112563   2.963   0.255   5.126  3.0745  0.0300 -0.8141
   37MOL   H25212564   3.095   0.057   5.121 -0.3366 -0.4081  0.4220
   37MOL   H25312565   2.924   7.986   4.834 -2.3282 -0.3726 -0.5074
   37MOL   H25412566   2.803   0.100   4.683  0.3952 -1.5427 -0.3875
   37MOL   H25512567   2.843   0.296   4.551  0.4989  0.4915  0.2058
   37MOL   H25612568   2.789   0.452   4.544  3.5227  1.3859 -1.8818
   37MOL   C25712569   2.979   0.433   4.650  0.6648 -0.1289  0.6118
   37MOL   C25812570   3.059   0.449   4.519  0.4580  0.1881 -0.3612
   37MOL   C25912571   3.023   0.535   4.410  0.7170 -0.2882  0.2591
   37MOL   C26012572   3.085   0.533   4.283 -0.2664 -0.1259 -0.0087
   37MOL   C26112573   3.186   0.437   4.264 -0.9026 -0.4131 -0.1883
   37MOL   O26212574   3.253   0.433   4.145 -0.4956  0.0664 -0.2040
   37MOL   C26312575   3.225   0.352   4.369 -0.2747 -0.3288 -0.6983
   37MOL   C26412576   3.159   0.354   4.492 -0.6453 -1.3826 -0.2782
   37MOL   C26512577   2.974   0.573   4.718 -0.5213  0.1763  0.7829
   37MOL   H26612578   3.036   0.362   4.710  0.1368  0.9627  2.4538
   37MOL   H26712579   2.938   0.601   4.420  1.2476  0.3193  0.7775
   37MOL   H26812580   3.049   0.609   4.215 -0.7656 -0.1825  0.1844
   37MOL   H26912581   3.204   0.450   4.066 -2.9495 -1.9200  0.8035
   37MOL   H27012582   3.302   0.282   4.340  0.3802 -0.1534  0.5806
   37MOL   H27112583   3.188   0.292   4.575 -2.7074 -1.2572  0.5751
   37MOL   H27212584   2.920   0.560   4.812  1.4201  1.9652  2.1814
   37MOL   H27312585   2.934   0.650   4.653 -0.3702 -0.5112 -0.1359
   37MOL   C27412586   3.112   0.626   4.775  0.3414  0.1964  0.7494
   37MOL   C27512587   3.180   0.519   4.849  0.2135  0.3532  0.4779
   37MOL   C27612588   3.144   0.479   4.979 -0.0691 -0.1236  0.5019
   37MOL   C27712589   3.190   0.366   5.044  0.1796 -0.1088  0.2919
   37MOL   C27812590   3.277   0.279   4.975  0.1344 -0.2679 -0.0869
   37MOL   O27912591   3.307   0.160   5.033 -0.0137 -0.2178 -0.6629
   37MOL   C28012592   3.322   0.315   4.848  0.2891 -0.2537 -0.3063
   37MOL   C28112593   3.270   0.434   4.784  0.2329  0.1412 -0.1363
   37MOL   C28212594   3.093   0.762   4.850 -0.0224 -0.2350  0.1114
   37MOL   H28312595   3.174   0.641   4.686  1.1819 -0.5681  1.1912
   37MOL   H28412596   3.059   0.520   5.031  1.3481 -0.2529  3.0151
   37MOL   H28512597   3.157   0.345   5.145 -2.2115  0.1552 -0.4116
   37MOL   H28612598   3.328   0.096   4.967 -1.1612  0.2158 -1.4650
   37MOL   H28712599   3.383   0.248   4.789 -0.8708 -0.6860 -1.0323
   37MOL   H28812600   3.306   0.454   4.684  0.8699 -1.7811 -0.3135
   37MOL   H28912601   3.011   0.750   4.920  1.5495  1.1536  2.2837
   37MOL   H29012602   3.188   0.775   4.902  1.3144 -0.1317 -2.2519
   37MOL   C29112603   3.085   0.880   4.753 -0.0470 -0.2343  0.2399
   37MOL   C29212604   3.202   0.890   4.666 -0.5676  0.3774 -0.2026
   37MOL   C29312605   3.336   0.886   4.714 -0.6804 -0.7598 -0.0285
   37MOL   C29412606   3.447   0.916   4.630  0.3471  0.3337 -0.0810
   37MOL   C29512607   3.424   0.958   4.499  0.1957  0.2629  0.0152
   37MOL   O29612608   3.527   0.996   4.419  0.1038 -0.0810 -0.2542
   37MOL   C29712609   3.292   0.959   4.446  0.2704  0.3849  0.3316
   37MOL   C29812610   3.179   0.925   4.528  0.4155 -0.0200 -0.5207
   37MOL   C29912611   3.061   1.012   4.830 -0.7701  0.0469 -0.0046
   37MOL   H30012612   3.009   0.862   4.677  2.1873  0.5106 -2.2506
   37MOL   H30112613   3.356   0.866   4.818  3.0623 -1.2473 -0.8024
   37MOL   H30212614   3.547   0.917   4.670  0.8487 -1.4993 -1.2166
   37MOL   H30312615   3.589   0.925   4.418 -0.4093 -0.5313 -2.1645
   37MOL   H30412616   3.279   1.002   4.348 -3.4626  0.7859  0.9376
   37MOL   H30512617   3.083   0.944   4.483 -0.6610  1.0125  2.1101
   37MOL   H30612618   3.084   1.089   4.756  1.0281  0.3304  0.8348
   37MOL   H30712619   3.141   1.025   4.902 -1.5086  1.0903  0.6311
   37MOL   C30812620   2.914   1.019   4.886  0.5118  0.0095  0.9109
   37MOL   C30912621   2.850   1.148   4.845  0.3862  0.1409  0.3728
   37MOL   C31012622   2.913   1.267   4.867 -0.8202 -0.4530 -0.6944
   37MOL   C31112623   2.855   1.392   4.830  0.8778  0.4412 -0.6154
   37MOL   C31212624   2.732   1.387   4.762 -0.0859  0.0180 -0.2607
   37MOL   O31312625   2.675   1.502   4.712  0.0004 -0.6360  0.2142
   37MOL   C31412626   2.663   1.271   4.738  0.8969 -0.1372 -0.6674
   37MOL   C31512627   2.719   1.149   4.788  0.7020 -0.0493  0.2024
   37MOL   C31612628   2.909   0.993   5.037  0.2118 -0.3608 -0.8286
   37MOL   H31712629   2.854   0.935   4.852  0.5240  0.7247 -0.9619
   37MOL   H31812630   3.014   1.275   4.906 -0.5392 -0.1061 -1.4752
   37MOL   H31912631   2.910   1.484   4.843  0.3701  0.8980 -1.6375
   37MOL   H32012632   2.734   1.552   4.659 -1.2545  0.6951  0.0390
   37MOL   H32112633   2.576   1.277   4.674  0.6093 -0.7528 -0.3448
   37MOL   H32212634   2.660   1.060   4.766  0.9486  0.4076 -2.4432
   37MOL   H32312635   2.964   1.070   5.091  1.0263 -0.6029 -1.2950
   37MOL   H32412636   2.964   0.900   5.052  1.3326  0.4213  0.0167
   37MOL   C32512637   2.762   0.982   5.102  0.2067 -0.7609 -0.7053
   37MOL   C32612638   2.712   1.119   5.170 -0.5528  0.1959 -0.0846
   37MOL   C32712639   2.770   1.156   5.293  0.0689 -0.4457  0.0533
   37MOL   C32812640   2.730   1.277   5.356  0.0065 -0.7295 -0.0537
   37MOL   C32912641   2.625   1.357   5.306 -0.3719 -0.0330  0.1961
   37MOL   O33012642   2.587   1.467   5.375 -0.0357 -0.1886 -0.3607
   37MOL   C33112643   2.562   1.322   5.180  0.3703  0.5361 -0.1460
   37MOL   C33212644   2.609   1.202   5.113  0.9786 -0.0260 -0.3819
   37MOL   C33312645   2.760   0.868   5.206 -0.1754  0.1063 -0.1602
   37MOL   H33412646   2.690   0.953   5.025  0.3526 -3.5563  0.1778
   37MOL   H33512647   2.849   1.093   5.330  1.7289  0.1092 -2.4212
   37MOL   H33612648   2.782   1.288   5.450  1.6520 -1.7197 -0.8268
   37MOL   H33712649   2.541   1.527   5.318 -0.2169  0.0316  0.0164
   37MOL   H33812650   2.499   1.389   5.124 -0.4656 -1.9651 -2.2908
   37MOL   H33912651   2.566   1.194   5.015 -0.1933 -0.7427  0.1801
   37MOL   H34012652   2.657   0.852   5.238 -0.2349 -0.3327 -0.5637
   37MOL   H34112653   2.817   0.891   5.296 -0.3320  0.7335 -0.2128
   37MOL   H34212654   2.799   0.775   5.167 -0.1025 -0.2496  0.7553
   38MOL     C112655   5.022   5.850   3.045 -0.4129  0.0174 -0.0772
   38MOL     C212656   4.965   5.775   2.927 -0.1528  0.3845  0.0444
   38MOL     C312657   4.838   5.719   2.934 -0.1887  0.9118  0.5089
   38MOL     C412658   4.785   5.636   2.837 -0.2041 -0.7806 -0.4483
   38MOL     C512659   4.863   5.618   2.718  0.4578  0.7856  0.1276
   38MOL     O612660   4.819   5.528   2.620 -0.0885  0.2967  0.0922
   38MOL     C712661   4.987   5.682   2.698  0.0310 -0.4723 -0.2129
   38MOL     C812662   5.040   5.755   2.807  0.7001  0.3247 -0.6702
   38MOL     C912663   5.170   5.826   3.072 -0.2612  0.6000  0.0777
   38MOL    H1012664   5.011   5.955   3.016  1.5696  0.0692 -0.6531
   38MOL    H1112665   4.785   5.748   3.023  0.1294  1.5100  0.5060
   38MOL    H1212666   4.690   5.589   2.857 -1.6984  3.2367  2.5116
   38MOL    H1312667   4.765   5.455   2.647  1.1679 -1.8763 -2.9880
   38MOL    H1412668   5.042   5.678   2.605  0.4000  1.0056 -0.0796
   38MOL    H1512669   5.136   5.799   2.788  0.7027  0.2111 -0.9193
   38MOL    H1612670   5.205   5.877   3.162  0.1486 -1.4065  1.1037
   38MOL    H1712671   5.227   5.874   2.993  0.5883  1.6826  1.3251
   38MOL    H1812672   4.960   5.836   3.134  1.3000  1.0867  1.2908
   38MOL    C1912673   5.206   5.674   3.093  0.3084  0.7815 -0.0132
   38MOL    C2012674   5.167   5.608   3.219  0.8332 -0.5839  0.0011
   38MOL    C2112675   5.211   5.658   3.340 -0.0944  0.5221  0.2064
   38MOL    C2212676   5.161   5.604   3.460 -0.2810  0.5918  0.5124
   38MOL    C2312677   5.057   5.508   3.467 -0.2810 -0.0053 -0.5056
   38MOL    O2412678   5.000   5.458   3.582 -0.1568 -0.1715 -0.0155
   38MOL    C2512679   5.009   5.468   3.343  0.4180  0.1895 -0.2342
   38MOL    C2612680   5.066   5.513   3.224 -1.0603  0.2683 -0.1549
   38MOL    C2712681   5.358   5.655   3.067 -0.7591 -0.0059  0.5214
   38MOL    H2812682   5.148   5.618   3.020  1.4602 -2.8230  1.7462
   38MOL    H2912683   5.281   5.740   3.341  2.0311 -1.2435 -0.5762
   38MOL    H3012684   5.213   5.637   3.549 -1.2826 -0.5975  1.5564
   38MOL    H3112685   4.959   5.374   3.578 -0.0191 -0.2158 -0.5082
   38MOL    H3212686   4.939   5.386   3.338 -0.7081  1.1747 -0.7513
   38MOL    H3312687   5.034   5.470   3.130  0.7698 -0.2508 -0.5642
   38MOL    H3412688   5.397   5.557   3.097 -1.5064 -1.1513 -2.1335
   38MOL    H3512689   5.409   5.732   3.125 -0.0033  0.2551 -0.4686
   38MOL    C3612690   5.409   5.675   2.919  0.6297  0.0562  0.1926
   38MOL    C3712691   5.453   5.541   2.856 -0.2416  0.3814  0.8752
   38MOL    C3812692   5.550   5.457   2.915  0.4030  0.5924  0.1152
   38MOL    C3912693   5.588   5.333   2.857 -0.3240  0.4241  0.1233
   38MOL    C4012694   5.534   5.302   2.730 -0.0320  0.3571 -0.5331
   38MOL    O4112695   5.566   5.181   2.672  0.2009  0.1396 -0.1030
   38MOL    C4212696   5.435   5.379   2.676  1.3163 -0.2696  0.1725
   38MOL    C4312697   5.393   5.496   2.734 -0.5746  0.3298 -0.7746
   38MOL    C4412698   5.523   5.774   2.910 -0.2977  0.4041  0.8314
   38MOL    H4512699   5.321   5.720   2.874  0.0347  0.2026  1.4676
   38MOL    H4612700   5.601   5.503   2.998  2.0322  0.4402 -0.7801
   38MOL    H4712701   5.657   5.262   2.901  1.1385  1.4446 -0.4783
   38MOL    H4812702   5.617   5.124   2.727 -0.3478 -0.3092 -0.0560
   38MOL    H4912703   5.388   5.337   2.588 -0.6775 -1.9962  1.9988
   38MOL    H5012704   5.315   5.558   2.692 -0.2850 -0.9025 -3.1922
   38MOL    H5112705   5.522   5.853   2.985  1.0041  0.9701  0.2668
   38MOL    H5212706   5.619   5.732   2.939  0.7156  1.0518 -1.4454
   38MOL    C5312707   5.549   5.829   2.769  1.1804  0.7547  0.4034
   38MOL    C5412708   5.432   5.903   2.714 -0.0664  0.2839  0.1850
   38MOL    C5512709   5.375   6.023   2.775 -0.3920  0.5638  0.3323
   38MOL    C5612710   5.250   6.073   2.731  0.5432 -0.6133 -0.2339
   38MOL    C5712711   5.195   6.022   2.613  0.8478  0.2365 -0.1211
   38MOL    O5812712   5.090   6.082   2.553 -0.0808  0.1097 -0.5227
   38MOL    C5912713   5.241   5.902   2.553 -0.2388 -0.1947 -0.2794
   38MOL    C6012714   5.357   5.843   2.611 -0.9202 -0.6911  0.0725
   38MOL    C6112715   5.680   5.918   2.770 -1.0026  0.2975 -0.6669
   38MOL    H6212716   5.565   5.749   2.697  1.6410  0.7445  0.5143
   38MOL    H6312717   5.424   6.070   2.859  1.0047  0.5040 -0.4432
   38MOL    H6412718   5.216   6.168   2.770  0.2926 -0.6339 -0.4085
   38MOL    H6512719   5.043   6.149   2.600 -1.8400 -0.5957 -1.2415
   38MOL    H6612720   5.189   5.860   2.468  0.9992 -0.7439 -0.7791
   38MOL    H6712721   5.386   5.753   2.559  1.9902  2.5107 -4.1645
   38MOL    H6812722   5.659   6.000   2.839 -2.7580  1.1362 -2.1618
   38MOL    H6912723   5.691   5.957   2.669 -1.0896  2.5821  0.1652
   38MOL    C7012724   5.821   5.853   2.806 -0.1105  0.0256  1.0877
   38MOL    C7112725   5.914   5.965   2.842  0.4139  0.9456 -0.5538
   38MOL    C7212726   5.964   5.984   2.972  0.2540 -0.6516 -0.7408
   38MOL    C7312727   6.059   6.084   2.997 -0.0700 -0.7146  0.2704
   38MOL    C7412728   6.104   6.167   2.895 -0.0750 -0.8117 -0.1112
   38MOL    O7512729   6.208   6.257   2.907 -0.2923 -0.5163  0.0638
   38MOL    C7612730   6.058   6.145   2.761  0.1606  0.6600 -0.5968
   38MOL    C7712731   5.961   6.044   2.733 -0.6690  0.0431  0.5530
   38MOL    C7812732   5.886   5.762   2.694  0.1089 -0.3701  0.1223
   38MOL    H7912733   5.824   5.792   2.897 -1.9778  0.3604  1.3840
   38MOL    H8012734   5.928   5.922   3.053 -1.3210 -0.3838 -1.2056
   38MOL    H8112735   6.106   6.092   3.094 -0.3929 -1.2266  0.4729
   38MOL    H8212736   6.203   6.305   2.988 -1.3764 -0.4186 -0.0457
   38MOL    H8312737   6.094   6.190   2.670  1.9318 -1.5836 -1.0616
   38MOL    H8412738   5.956   6.034   2.626 -0.1245  2.1655  0.3029
   38MOL    H8512739   5.917   5.820   2.607 -2.0078 -0.0517 -0.4474
   38MOL    H8612740   5.795   5.710   2.663 -2.3652  2.3210  2.6238
   38MOL    C8712741   6.005   5.676   2.741  0.0023  0.1878  0.1934
   38MOL    C8812742   6.095   5.648   2.619 -0.4041 -0.1033 -0.9642
   38MOL    C8912743   6.224   5.714   2.611  0.7737 -0.2066 -0.1404
   38MOL    C9012744   6.296   5.697   2.488 -0.2055 -0.9076 -0.3310
   38MOL    C9112745   6.240   5.636   2.370  0.2859  0.0830 -0.1221
   38MOL    O9212746   6.315   5.611   2.254  0.0837  0.0039 -0.6938
   38MOL    C9312747   6.121   5.562   2.389  0.5165  0.4181 -0.7247
   38MOL    C9412748   6.048   5.569   2.509 -0.3160  0.5228  0.2726
   38MOL    C9512749   5.978   5.551   2.822  0.3115  0.9670  0.1273
   38MOL    H9612750   6.068   5.742   2.801 -0.2981  0.3863  0.2888
   38MOL    H9712751   6.258   5.777   2.691  0.3062  0.0233 -0.1213
   38MOL    H9812752   6.394   5.742   2.485 -1.2064  1.2376 -2.3132
   38MOL    H9912753   6.368   5.682   2.223 -0.3283  0.9945  0.7882
   38MOL   H10012754   6.084   5.509   2.302  3.4242 -0.7425 -1.3307
   38MOL   H10112755   5.961   5.506   2.518  1.4431 -1.8959  1.0135
   38MOL   H10212756   5.875   5.518   2.807  1.9283 -2.6719 -3.8679
   38MOL   H10312757   6.036   5.468   2.783  1.5249  1.5013  0.7896
   38MOL   C10412758   6.009   5.555   2.978 -0.0034 -0.4373 -1.1273
   38MOL   C10512759   6.155   5.574   2.993  0.0215  0.0764  0.5261
   38MOL   C10612760   6.209   5.695   3.033 -0.9066 -0.1867  0.2158
   38MOL   C10712761   6.350   5.714   3.037  0.0406 -0.3130 -0.6500
   38MOL   C10812762   6.436   5.608   2.999  0.3165 -0.9463 -0.1060
   38MOL   O10912763   6.569   5.628   2.988  0.1341 -0.1115  0.2340
   38MOL   C11012764   6.387   5.490   2.956  0.4346  0.0721 -0.3041
   38MOL   C11112765   6.246   5.473   2.957  0.8147 -0.5141  0.6746
   38MOL   C11212766   5.962   5.427   3.048  0.7160 -0.1894  0.4915
   38MOL   H11312767   5.958   5.640   3.024  0.0789 -1.0026  0.0328
   38MOL   H11412768   6.145   5.776   3.065  0.8980  1.7522 -0.8704
   38MOL   H11512769   6.389   5.812   3.058 -0.3191 -0.5541  1.2242
   38MOL   H11612770   6.593   5.713   3.022  0.0819 -0.7833  2.0102
   38MOL   H11712771   6.435   5.395   2.938 -0.3887 -0.5940  0.8923
   38MOL   H11812772   6.211   5.377   2.921 -0.0319 -0.6788  1.9122
   38MOL   H11912773   6.011   5.335   3.017  1.0037  0.2476 -0.3963
   38MOL   H12012774   5.854   5.418   3.034  0.7396 -2.9040  1.8671
   38MOL   C12112775   5.975   5.435   3.201 -0.1806 -0.5962 -0.1385
   38MOL   C12212776   5.902   5.558   3.265  0.1075 -0.1308 -0.2214
   38MOL   C12312777   5.964   5.659   3.342 -0.2009  0.2844  0.1963
   38MOL   C12412778   5.887   5.748   3.415  0.2703 -0.4704  0.4789
   38MOL   C12512779   5.743   5.750   3.412 -1.2057 -0.0437  0.3854
   38MOL   O12612780   5.673   5.823   3.496 -0.1248 -0.5381 -0.4976
   38MOL   C12712781   5.686   5.656   3.328  1.0501  0.3337 -0.0033
   38MOL   C12812782   5.762   5.567   3.253 -0.5613 -0.6655 -1.3748
   38MOL   C12912783   5.937   5.304   3.271 -0.4367  0.1257  0.2176
   38MOL   H13012784   6.083   5.444   3.215 -0.4283 -0.8109  2.0084
   38MOL   H13112785   6.072   5.654   3.350 -0.1256  2.5529  0.8388
   38MOL   H13212786   5.935   5.817   3.484  0.0935 -1.1353  1.2781
   38MOL   H13312787   5.730   5.843   3.569 -1.8673  1.5193  0.3811
   38MOL   H13412788   5.578   5.648   3.323  1.0648 -0.2306  0.5381
   38MOL   H13512789   5.704   5.498   3.192  0.0855 -2.6638  0.2055
   38MOL   H13612790   5.933   5.220   3.201  0.6382 -0.8733  1.3401
   38MOL   H13712791   5.837   5.303   3.313  0.1201 -2.3384  1.5780
   38MOL   C13812792   6.043   5.259   3.382 -0.2054  0.4639  0.1988
   38MOL   C13912793   6.176   5.227   3.311  0.1836  0.9096  0.3222
   38MOL   C14012794   6.178   5.142   3.194  0.2099 -0.0134 -0.2943
   38MOL   C14112795   6.304   5.093   3.145 -0.8831  0.2292 -0.4053
   38MOL   C14212796   6.420   5.144   3.200  0.1309  0.9666  0.6117
   38MOL   O14312797   6.538   5.091   3.153 -0.1575 -0.0687  0.0553
   38MOL   C14412798   6.416   5.232   3.309  0.3913 -0.7204  0.0459
   38MOL   C14512799   6.297   5.281   3.365 -0.2629  0.0441  0.2543
   38MOL   C14612800   5.993   5.141   3.479 -0.8102  0.3243 -0.2951
   38MOL   H14712801   6.072   5.344   3.444 -0.3620 -1.3310  2.8036
   38MOL   H14812802   6.085   5.107   3.152  1.0130 -0.1593 -1.9652
   38MOL   H14912803   6.303   5.028   3.059 -1.5523 -0.0443 -0.1907
   38MOL   H15012804   6.606   5.068   3.213 -0.4356 -1.6244 -0.1978
   38MOL   H15112805   6.513   5.265   3.346  0.0010 -0.2929  0.6993
   38MOL   H15212806   6.290   5.343   3.453  0.7808 -0.5025  0.7254
   38MOL   H15312807   6.094   5.116   3.513 -1.0716 -0.1930  0.1047
   38MOL   H15412808   5.960   5.051   3.427 -1.9505  1.1745 -1.0693
   38MOL   C15512809   5.890   5.181   3.589 -0.2724  0.0816 -0.5606
   38MOL   C15612810   5.913   5.326   3.631  0.7653 -0.0318  0.5049
   38MOL   C15712811   5.810   5.422   3.627 -0.5235  0.3481  0.4929
   38MOL   C15812812   5.835   5.548   3.684  0.4691 -0.0192  0.9755
   38MOL   C15912813   5.961   5.584   3.725 -0.0628 -0.8260 -0.1629
   38MOL   O16012814   5.982   5.712   3.772  0.5791 -0.0847  0.0775
   38MOL   C16112815   6.064   5.494   3.730  0.3050 -0.6250 -0.1845
   38MOL   C16212816   6.036   5.362   3.687 -0.2168  0.6058  0.4385
   38MOL   C16312817   5.903   5.096   3.717 -0.8190  0.1225 -0.3535
   38MOL   H16412818   5.791   5.188   3.543  0.5022  1.7867 -2.0213
   38MOL   H16512819   5.715   5.397   3.582  0.2571 -3.2816  0.6812
   38MOL   H16612820   5.748   5.612   3.692  0.3266 -0.4149  2.8558
   38MOL   H16712821   6.073   5.725   3.749  0.5549  1.6194  0.8731
   38MOL   H16812822   6.163   5.517   3.765 -0.0118  2.3409 -1.0533
   38MOL   H16912823   6.114   5.287   3.688 -1.1712 -0.4035  0.9489
   38MOL   H17012824   5.911   5.160   3.805 -1.2755  0.0740 -0.2762
   38MOL   H17112825   5.996   5.040   3.716 -0.5982  0.4981 -0.5081
   38MOL   C17212826   5.785   4.996   3.747 -0.8921  0.3176  0.2326
   38MOL   C17312827   5.787   4.880   3.651 -0.2286 -0.0029  0.2556
   38MOL   C17412828   5.668   4.845   3.577 -0.1265  0.0730 -0.0049
   38MOL   C17512829   5.668   4.727   3.494 -1.1089  0.3377 -0.2551
   38MOL   C17612830   5.787   4.660   3.473 -0.2213 -0.1853 -0.4495
   38MOL   O17712831   5.796   4.559   3.386  0.9030  0.1177 -0.3143
   38MOL   C17812832   5.909   4.698   3.537 -0.2012 -0.5309  0.1226
   38MOL   C17912833   5.904   4.806   3.629 -0.3511 -0.2575 -0.2201
   38MOL   C18012834   5.653   5.075   3.770  0.1843 -0.0812  0.0074
   38MOL   H18112835   5.817   4.945   3.838 -0.1761 -0.3161 -0.3746
   38MOL   H18212836   5.577   4.903   3.580 -0.5633 -0.6856  2.0971
   38MOL   H18312837   5.577   4.694   3.446 -1.3506  0.4369  0.1379
   38MOL   H18412838   5.717   4.511   3.403 -0.4956  2.9907  1.6422
   38MOL   H18512839   6.002   4.655   3.503  0.1173  0.3425 -0.1084
   38MOL   H18612840   5.991   4.837   3.683  0.4525  1.6074 -2.5036
   38MOL   H18712841   5.616   5.113   3.675  1.4630 -0.1907 -0.5505
   38MOL   H18812842   5.677   5.169   3.818 -0.8823  1.0734 -1.6741
   38MOL   C18912843   5.557   5.008   3.858 -0.9120  0.4980 -0.2344
   38MOL   C19012844   5.609   4.974   3.994 -0.0597  0.0963 -0.5973
   38MOL   C19112845   5.642   5.076   4.088 -0.0745  0.3662 -0.0909
   38MOL   C19212846   5.687   5.041   4.216  0.3018 -0.7129 -0.2791
   38MOL   C19312847   5.697   4.910   4.259 -0.0279  0.6566  0.3519
   38MOL   O19412848   5.729   4.877   4.384  0.5168  0.0428 -0.3679
   38MOL   C19512849   5.666   4.803   4.167  0.2124  0.1583 -0.5398
   38MOL   C19612850   5.627   4.840   4.034  0.5537 -0.1751  0.6171
   38MOL   C19712851   5.422   5.078   3.861  0.7664  0.2661 -0.2856
   38MOL   H19812852   5.545   4.909   3.815 -1.3155 -0.3961  1.8417
   38MOL   H19912853   5.624   5.182   4.078 -1.7572  0.2623  1.6235
   38MOL   H20012854   5.704   5.128   4.278  2.5284 -2.6881  1.9831
   38MOL   H20112855   5.699   4.793   4.414  0.0198 -0.2481 -1.6345
   38MOL   H20212856   5.684   4.700   4.194 -2.1048  0.1561  1.1367
   38MOL   H20312857   5.603   4.768   3.958 -0.5372  0.5305  0.2835
   38MOL   H20412858   5.424   5.132   3.766 -1.0727  0.4755 -0.2346
   38MOL   H20512859   5.418   5.146   3.946  2.8627 -1.1346  0.9789
   38MOL   C20612860   5.295   4.989   3.854  0.1301  0.4783 -0.4465
   38MOL   C20712861   5.304   4.884   3.742  0.6095  0.1256  0.2499
   38MOL   C20812862   5.339   4.750   3.781 -0.9636  0.0291  0.3816
   38MOL   C20912863   5.337   4.653   3.682 -0.1015 -0.0048  0.9198
   38MOL   C21012864   5.310   4.680   3.545 -0.7243  0.1745 -0.2596
   38MOL   O21112865   5.314   4.575   3.456  0.3918  0.7430 -0.3797
   38MOL   C21212866   5.295   4.820   3.506 -0.5564 -0.6562 -0.3886
   38MOL   C21312867   5.291   4.920   3.608 -0.1410 -0.1526  0.2716
   38MOL   C21412868   5.161   5.077   3.837 -0.2001  0.3859 -0.0584
   38MOL   H21512869   5.276   4.948   3.953 -0.0334  1.8867  0.1291
   38MOL   H21612870   5.365   4.727   3.883  2.3337 -2.8927 -1.0036
   38MOL   H21712871   5.351   4.550   3.710  0.0500 -1.0812 -2.9041
   38MOL   H21812872   5.315   4.494   3.504  2.3994  0.7623 -0.3439
   38MOL   H21912873   5.276   4.846   3.403 -0.2708  0.0088 -0.2731
   38MOL   H22012874   5.273   5.025   3.587 -0.1119 -0.1074  0.4718
   38MOL   H22112875   5.175   5.155   3.761 -1.7620 -0.1166 -0.8754
   38MOL   H22212876   5.139   5.139   3.924 -0.1661 -1.2646  1.1336
   38MOL   C22312877   5.032   5.008   3.816 -0.5322  0.0012  0.1488
   38MOL   C22412878   4.941   5.098   3.735 -0.1271 -0.4525  0.1304
   38MOL   C22512879   4.923   5.072   3.599  0.0484  0.2026 -0.3754
   38MOL   C22612880   4.829   5.153   3.528  0.1916  0.5704  0.1598
   38MOL   C22712881   4.771   5.264   3.586 -0.2566 -0.0273 -0.3594
   38MOL   O22812882   4.692   5.347   3.508  0.5344 -0.2977  0.2768
   38MOL   C22912883   4.802   5.297   3.714 -0.0255 -0.3230  0.4427
   38MOL   C23012884   4.883   5.212   3.796  0.1629 -0.2720  0.0124
   38MOL   C23112885   4.969   4.951   3.946  0.0888 -0.1119  0.4557
   38MOL   H23212886   5.053   4.919   3.757 -0.3588 -0.5606  1.0442
   38MOL   H23312887   4.962   4.986   3.546  0.7477 -0.4070  1.1087
   38MOL   H23412888   4.803   5.136   3.424 -1.6944 -2.6793  1.1151
   38MOL   H23512889   4.678   5.311   3.422  1.5310 -0.1569  0.0562
   38MOL   H23612890   4.762   5.391   3.748 -1.1555 -0.7039  0.1609
   38MOL   H23712891   4.906   5.243   3.896  0.4599 -0.4113 -0.0115
   38MOL   H23812892   5.047   4.900   4.002  0.6791  1.5192  1.1489
   38MOL   H23912893   4.933   5.025   4.017 -0.9460  1.3508 -1.5300
   38MOL   C24012894   4.843   4.858   3.924 -0.0966  0.3460 -0.0193
   38MOL   C24112895   4.860   4.755   3.815 -0.7299 -0.2904  0.2759
   38MOL   C24212896   4.771   4.754   3.710  0.0510  0.0550  0.1283
   38MOL   C24312897   4.787   4.663   3.601  0.1546  0.3781  0.5274
   38MOL   C24412898   4.901   4.581   3.596 -0.2828 -0.0477 -0.6971
   38MOL   O24512899   4.914   4.485   3.504  0.2929  0.1206 -0.1132
   38MOL   C24612900   4.995   4.588   3.700 -0.1743  0.1191 -0.5740
   38MOL   C24712901   4.978   4.678   3.809  0.3562 -0.5694 -0.0007
   38MOL   C24812902   4.787   4.795   4.064  0.1169  0.0176  0.9277
   38MOL   H24912903   4.762   4.920   3.887 -0.3932 -0.2255 -0.3294
   38MOL   H25012904   4.691   4.826   3.706  1.5492  1.7062 -1.0829
   38MOL   H25112905   4.710   4.660   3.524  0.2172  0.3202  0.4676
   38MOL   H25212906   4.991   4.431   3.513  0.8020  0.7829 -0.4940
   38MOL   H25312907   5.083   4.526   3.704 -1.8147 -2.1771  2.4493
   38MOL   H25412908   5.055   4.682   3.885 -0.4794 -2.2793  0.9597
   38MOL   H25512909   4.721   4.855   4.127  0.9591 -0.6031  2.4333
   38MOL   H25612910   4.720   4.714   4.035  2.6680 -1.1123 -2.1916
   38MOL   C25712911   4.900   4.726   4.158 -0.5715  0.5241  0.1853
   38MOL   C25812912   4.954   4.825   4.263  0.0411  0.2738 -0.7950
   38MOL   C25912913   5.096   4.844   4.289 -0.3944  0.3177 -0.1995
   38MOL   C26012914   5.138   4.920   4.401 -0.0031 -0.2512 -0.3228
   38MOL   C26112915   5.046   4.981   4.484 -0.0330 -0.3304  0.1310
   38MOL   O26212916   5.096   5.037   4.599 -0.0808 -0.2930 -0.5212
   38MOL   C26312917   4.911   4.970   4.459  0.1356 -0.1583 -0.0131
   38MOL   C26412918   4.861   4.881   4.360 -0.2039  0.4094 -0.8693
   38MOL   C26512919   4.869   4.586   4.218  0.4175  0.3953  0.1153
   38MOL   H26612920   4.989   4.705   4.100 -0.7767  0.3826 -0.0764
   38MOL   H26712921   5.172   4.804   4.223  0.2337  0.5927  0.3454
   38MOL   H26812922   5.244   4.922   4.422 -0.0793 -0.5234  0.0976
   38MOL   H26912923   5.183   5.011   4.624 -0.3017  0.0769  0.6661
   38MOL   H27012924   4.839   5.022   4.520  0.8978  0.6076  0.2451
   38MOL   H27112925   4.754   4.873   4.348 -0.1101 -2.8995  0.1461
   38MOL   H27212926   4.798   4.534   4.154 -0.5973 -0.2197  1.6815
   38MOL   H27312927   4.820   4.602   4.314  1.7581 -1.4671  1.1493
   38MOL   C27412928   4.998   4.500   4.237  0.0748  0.5430 -0.1341
   38MOL   C27512929   5.069   4.449   4.115 -0.1561  0.3216 -0.6680
   38MOL   C27612930   5.011   4.352   4.026 -0.3807  0.3398 -0.3222
   38MOL   C27712931   5.082   4.303   3.916  0.1329  0.0992 -0.1170
   38MOL   C27812932   5.212   4.350   3.894  0.2531  0.6641  0.2347
   38MOL   O27912933   5.281   4.304   3.785 -0.3471 -0.3256  0.2625
   38MOL   C28012934   5.265   4.449   3.976  0.2817 -0.4197  0.1966
   38MOL   C28112935   5.197   4.500   4.090 -0.2738  0.7544 -0.3975
   38MOL   C28212936   4.968   4.375   4.330 -0.1555 -0.2630  0.8126
   38MOL   H28312937   5.072   4.553   4.296 -1.1742  1.0558  1.0088
   38MOL   H28412938   4.907   4.328   4.042 -0.0764 -0.5997  0.2591
   38MOL   H28512939   5.032   4.237   3.847  0.9199 -1.6760  0.9978
   38MOL   H28612940   5.363   4.346   3.765 -1.4833  0.9823 -1.8217
   38MOL   H28712941   5.366   4.482   3.958  0.8858 -0.9973  2.3710
   38MOL   H28812942   5.241   4.574   4.156  1.5890  0.3630 -1.1829
   38MOL   H28912943   4.897   4.317   4.271  1.7880  0.5461 -2.5086
   38MOL   H29012944   5.064   4.324   4.337 -0.8567 -1.4553  2.0686
   38MOL   C29112945   4.919   4.409   4.474  0.2910  0.0546  0.7772
   38MOL   C29212946   5.029   4.457   4.568  0.2162  0.5912  0.5334
   38MOL   C29312947   5.008   4.582   4.629  1.0804 -0.7584  0.3456
   38MOL   C29412948   5.096   4.635   4.722  0.2317  0.0132 -0.0369
   38MOL   C29512949   5.213   4.561   4.750 -0.0103 -1.0216  0.5587
   38MOL   O29612950   5.295   4.599   4.847 -0.0380  0.1907 -0.4474
   38MOL   C29712951   5.237   4.442   4.680 -0.1299  0.2777  0.5999
   38MOL   C29812952   5.145   4.387   4.594  0.7391  0.3322  0.0117
   38MOL   C29912953   4.837   4.299   4.548  0.0333  0.0705 -0.5878
   38MOL   H30012954   4.847   4.491   4.470  0.0239 -0.1999  0.4178
   38MOL   H30112955   4.924   4.645   4.605 -0.3298 -2.6909  0.1383
   38MOL   H30212956   5.089   4.735   4.764  1.0424  0.6624 -1.4107
   38MOL   H30312957   5.375   4.551   4.860 -0.0433  0.1506 -0.5712
   38MOL   H30412958   5.332   4.393   4.696  0.4528  1.0759 -0.3697
   38MOL   H30512959   5.166   4.291   4.550  0.1136 -0.3073  1.0757
   38MOL   H30612960   4.851   4.313   4.655  1.3731  1.3279 -0.9079
   38MOL   H30712961   4.872   4.204   4.508  0.5553 -0.1834  0.4486
   38MOL   C30812962   4.683   4.301   4.526 -0.4344  0.4572 -0.8428
   38MOL   C30912963   4.655   4.249   4.384 -0.0699  0.0604 -0.0162
   38MOL   C31012964   4.620   4.343   4.285 -0.0486 -0.4782 -0.0982
   38MOL   C31112965   4.601   4.297   4.152 -0.5502 -0.1925 -0.0262
   38MOL   C31212966   4.641   4.164   4.119  0.9494  0.2313  0.0669
   38MOL   O31312967   4.632   4.118   3.986 -0.1899 -0.5064 -0.8286
   38MOL   C31412968   4.682   4.070   4.214  0.0939 -0.1239  0.6757
   38MOL   C31512969   4.688   4.115   4.351  0.0457 -0.1819  0.5490
   38MOL   C31612970   4.615   4.429   4.569  0.2973 -0.1663 -0.4844
   38MOL   H31712971   4.645   4.231   4.600 -2.3631  2.3448  0.0112
   38MOL   H31812972   4.603   4.447   4.311 -0.5875 -1.1970  2.5918
   38MOL   H31912973   4.582   4.360   4.067  2.0614 -1.7715 -1.8395
   38MOL   H32012974   4.547   4.143   3.952 -2.0067 -1.2764  2.9294
   38MOL   H32112975   4.698   3.968   4.181  1.3000  1.0036 -2.3522
   38MOL   H32212976   4.723   4.047   4.427 -1.8367 -0.6945  0.9880
   38MOL   H32312977   4.643   4.520   4.515 -0.1033 -0.1468 -0.6639
   38MOL   H32412978   4.627   4.442   4.677 -2.3139  2.7861 -0.4585
   38MOL   C32512979   4.464   4.430   4.544 -0.3527  1.0779  0.3608
   38MOL   C32612980   4.417   4.577   4.535  0.6080 -0.0020  0.6201
   38MOL   C32712981   4.375   4.617   4.408  0.0988  1.0113  0.5411
   38MOL   C32812982   4.335   4.752   4.392 -0.0621  0.1254 -0.1323
   38MOL   C32912983   4.323   4.836   4.501  0.1906 -0.3715  0.4051
   38MOL   O33012984   4.266   4.958   4.482  0.0710 -0.1093  0.1730
   38MOL   C33112985   4.360   4.799   4.632 -0.0041 -0.1050  0.0200
   38MOL   C33212986   4.415   4.670   4.649  0.0214  0.1186 -0.1725
   38MOL   C33312987   4.380   4.352   4.651 -0.3008  0.7023  0.7891
   38MOL   H33412988   4.442   4.388   4.446 -1.2034 -0.5446  1.2353
   38MOL   H33512989   4.371   4.551   4.322  0.2594  0.3398  1.0480
   38MOL   H33612990   4.288   4.777   4.298 -1.6966  0.3774  0.7262
   38MOL   H33712991   4.259   5.011   4.559  2.3364  1.3831 -0.6027
   38MOL   H33812992   4.357   4.867   4.716 -0.2240  0.9062 -0.8057
   38MOL   H33912993   4.441   4.651   4.752 -0.9076 -0.7781 -0.1016
   38MOL   H34012994   4.391   4.395   4.751 -0.1201  0.5644  0.8291
   38MOL   H34112995   4.422   4.253   4.641 -0.1422  0.7648  0.8450
   38MOL   H34212996   4.272   4.353   4.634 -0.1850 -1.1740 -0.0813
   39MOL     C112997   2.808   2.718   6.528 -0.2494  0.2766  0.4441
   39MOL     C212998   2.733   2.583   6.522 -0.4024  0.4198 -0.2970
   39MOL     C312999   2.676   2.538   6.397  0.0909 -0.1006  0.0905
   39MOL     C413000   2.634   2.409   6.386  0.1091  0.0869  0.6853
   39MOL     C513001   2.630   2.319   6.498 -0.1136 -0.2053  0.4278
   39MOL     O613002   2.588   2.194   6.497  0.2061 -0.2525  0.4619
   39MOL     C713003   2.686   2.363   6.619 -0.6926  0.2323 -0.6426
   39MOL     C813004   2.746   2.491   6.626 -0.4572  0.0046 -0.1033
   39MOL     C913005   2.962   2.708   6.517  0.6199  0.1458  0.0273
   39MOL    H1013006   2.766   2.778   6.447  0.0251 -0.0306  0.0735
   39MOL    H1113007   2.681   2.588   6.301 -1.0323  0.9376  0.5550
   39MOL    H1213008   2.584   2.378   6.296 -1.0918  0.1443  1.3241
   39MOL    H1313009   2.547   2.181   6.413  0.2854 -2.9291  0.7778
   39MOL    H1413010   2.705   2.297   6.703  1.3904  0.6239 -0.7805
   39MOL    H1513011   2.806   2.515   6.713  1.1124 -0.6437 -0.9706
   39MOL    H1613012   2.997   2.695   6.415  1.2516  1.3962  0.0709
   39MOL    H1713013   3.007   2.632   6.580  3.3490  2.5278  1.0506
   39MOL    H1813014   2.780   2.770   6.619  1.0761  1.4320  0.2100
   39MOL    C1913015   3.034   2.839   6.557  0.5579  0.3699 -0.3051
   39MOL    C2013016   2.969   2.955   6.487 -0.5942  0.4723 -0.3004
   39MOL    C2113017   2.991   2.993   6.353 -0.2704 -0.5239  0.4282
   39MOL    C2213018   2.935   3.113   6.297 -0.2142 -0.6802 -0.4034
   39MOL    C2313019   2.852   3.191   6.380 -0.1823 -0.8069  0.1958
   39MOL    O2413020   2.800   3.307   6.338  0.4689 -0.2075  0.3006
   39MOL    C2513021   2.823   3.153   6.515 -0.1971  0.2599 -0.1323
   39MOL    C2613022   2.883   3.038   6.570 -0.4379  0.8824  1.1442
   39MOL    C2713023   3.182   2.857   6.543 -0.7355  0.3950  0.3945
   39MOL    H2813024   3.009   2.843   6.663 -0.5970  0.1407 -0.5648
   39MOL    H2913025   3.058   2.935   6.290 -0.7556  0.2483 -0.8222
   39MOL    H3013026   2.957   3.138   6.194  0.6582 -0.5887 -0.2022
   39MOL    H3113027   2.727   3.337   6.390 -0.6919 -0.1388 -1.3326
   39MOL    H3213028   2.764   3.214   6.582 -0.7525  1.2407 -1.5041
   39MOL    H3313029   2.866   3.008   6.672  1.4746  0.4530  1.3648
   39MOL    H3413030   3.212   2.961   6.539  0.4117  0.1295  1.5619
   39MOL    H3513031   3.204   2.817   6.443  0.0637  1.4036  0.1601
   39MOL    C3613032   3.264   2.792   6.656 -0.8636  0.0950 -1.1195
   39MOL    C3713033   3.249   2.858   6.796 -0.5721 -0.0595 -0.5825
   39MOL    C3813034   3.212   2.995   6.812 -0.2248 -0.5235  0.0465
   39MOL    C3913035   3.168   3.047   6.933  0.0957  0.0002 -0.0468
   39MOL    C4013036   3.171   2.968   7.052 -0.0932  0.9335 -0.8199
   39MOL    O4113037   3.156   3.015   7.178 -0.2539  0.1236  0.9506
   39MOL    C4213038   3.208   2.831   7.029  0.0403 -0.3225 -0.0441
   39MOL    C4313039   3.246   2.775   6.910 -0.1780  0.0951 -0.0014
   39MOL    C4413040   3.414   2.771   6.614 -0.2234  0.4024 -0.2676
   39MOL    H4513041   3.219   2.694   6.667  0.7228 -0.4701  0.7932
   39MOL    H4613042   3.219   3.059   6.726  0.2275 -0.5675  0.0467
   39MOL    H4713043   3.135   3.149   6.947  0.8587  0.7935 -3.4258
   39MOL    H4813044   3.114   3.099   7.174 -1.0435 -0.2435  1.5016
   39MOL    H4913045   3.187   2.765   7.112 -1.0378  0.6869  0.4872
   39MOL    H5013046   3.268   2.669   6.910 -1.1135 -0.1118  1.5031
   39MOL    H5113047   3.446   2.875   6.605 -1.2116  0.8589  1.3602
   39MOL    H5213048   3.467   2.733   6.702 -0.3846  2.1989  0.6375
   39MOL    C5313049   3.430   2.687   6.485  0.3035 -0.8632 -0.0449
   39MOL    C5413050   3.493   2.771   6.380  0.7229 -0.0554  0.3376
   39MOL    C5513051   3.422   2.815   6.272  0.4014  0.8373  0.8312
   39MOL    C5613052   3.468   2.896   6.167 -0.2959  0.1963 -0.2865
   39MOL    C5713053   3.601   2.931   6.163 -0.3955  0.2988 -0.1576
   39MOL    O5813054   3.652   2.995   6.057 -0.1664 -0.2006  0.5010
   39MOL    C5913055   3.683   2.886   6.271  0.5546 -0.2826  0.2351
   39MOL    C6013056   3.626   2.818   6.381 -0.5215 -0.0876  0.1823
   39MOL    C6113057   3.516   2.558   6.507 -0.5641 -0.4666  0.9114
   39MOL    H6213058   3.342   2.642   6.439  0.5551 -0.2309 -1.1794
   39MOL    H6313059   3.322   2.781   6.250  0.6127  1.1888 -0.7266
   39MOL    H6413060   3.403   2.923   6.085 -1.4474 -1.6408 -0.0065
   39MOL    H6513061   3.585   3.050   6.018  2.7038  1.7451 -1.8635
   39MOL    H6613062   3.788   2.912   6.278  0.9023 -2.3428  4.0513
   39MOL    H6713063   3.673   2.812   6.478 -1.3882 -0.5288  0.5735
   39MOL    H6813064   3.615   2.578   6.548 -0.0024  0.5386 -0.9003
   39MOL    H6913065   3.553   2.526   6.409  0.4426 -0.0388  1.1445
   39MOL    C7013066   3.454   2.426   6.563 -0.0791 -0.1682  0.3637
   39MOL    C7113067   3.315   2.404   6.491 -1.1498 -0.6502 -0.8505
   39MOL    C7213068   3.192   2.406   6.564 -0.1198  0.0292 -0.1036
   39MOL    C7313069   3.063   2.370   6.508  0.0655 -0.2257 -0.0920
   39MOL    C7413070   3.058   2.331   6.377  0.1368  0.0703 -1.0727
   39MOL    O7513071   2.937   2.308   6.319 -0.5791  0.2952 -0.1166
   39MOL    C7613072   3.175   2.322   6.304  0.3890  0.1303  0.3748
   39MOL    C7713073   3.302   2.358   6.358 -0.9776 -0.4721 -0.3672
   39MOL    C7813074   3.440   2.396   6.711  0.0518 -0.0227 -0.1519
   39MOL    H7913075   3.515   2.345   6.522  0.7637  1.1691 -1.0974
   39MOL    H8013076   3.197   2.424   6.670 -1.7286 -0.8670  0.1439
   39MOL    H8113077   2.976   2.373   6.571 -0.5207 -2.5824 -0.7534
   39MOL    H8213078   2.860   2.313   6.373 -0.0685  2.6720  0.4419
   39MOL    H8313079   3.173   2.303   6.197  1.1643 -0.0601  0.3918
   39MOL    H8413080   3.391   2.346   6.299 -1.2461  0.1716 -0.9029
   39MOL    H8513081   3.380   2.305   6.722 -0.0527  0.3448  2.6029
   39MOL    H8613082   3.382   2.472   6.763 -1.1806 -0.5019 -0.7793
   39MOL    C8713083   3.562   2.343   6.794  0.0148  0.0677  0.1493
   39MOL    C8813084   3.660   2.243   6.724  0.0837  0.0640 -0.4422
   39MOL    C8913085   3.798   2.248   6.738 -0.4968 -0.3831  0.1738
   39MOL    C9013086   3.876   2.157   6.669 -0.0223  0.6086  0.5624
   39MOL    C9113087   3.832   2.066   6.572 -0.2990 -0.8001  0.3108
   39MOL    O9213088   3.917   1.990   6.499 -0.0424  0.6246  0.0135
   39MOL    C9313089   3.695   2.055   6.562  0.4152 -0.4034 -0.6914
   39MOL    C9413090   3.609   2.141   6.635 -0.6154  0.2827 -0.6300
   39MOL    C9513091   3.531   2.293   6.941 -0.9224  0.3988  0.6068
   39MOL    H9613092   3.621   2.433   6.808  0.7690 -0.3150 -0.5645
   39MOL    H9713093   3.845   2.324   6.800 -0.8552  0.8295 -1.0072
   39MOL    H9813094   3.981   2.157   6.691  0.1969 -0.0752 -0.4917
   39MOL    H9913095   4.008   2.014   6.504 -0.4296  2.5989 -1.5762
   39MOL   H10013096   3.654   1.965   6.517 -0.4806  0.3603 -1.4161
   39MOL   H10113097   3.503   2.122   6.623 -0.9071  0.8945  0.8223
   39MOL   H10213098   3.478   2.201   6.919  0.4470 -0.4557  0.8381
   39MOL   H10313099   3.626   2.279   6.991  0.7294 -0.8911 -2.7595
   39MOL   C10413100   3.438   2.369   7.029 -1.1410 -0.2569 -0.9827
   39MOL   C10513101   3.512   2.498   7.080  0.0809 -0.7266  0.0360
   39MOL   C10613102   3.501   2.616   7.009  0.1375 -0.0384  0.2631
   39MOL   C10713103   3.558   2.737   7.054  0.1338  0.9302  0.8558
   39MOL   C10813104   3.642   2.732   7.167  0.2146  0.1056 -0.6267
   39MOL   O10913105   3.697   2.847   7.225  0.4564 -0.3475 -0.6595
   39MOL   C11013106   3.657   2.609   7.240 -1.0726  0.3477  0.3288
   39MOL   C11113107   3.595   2.495   7.197  0.2377 -0.4160 -1.0684
   39MOL   C11213108   3.391   2.271   7.142 -0.3405 -0.0325 -0.2129
   39MOL   H11313109   3.348   2.399   6.976 -3.2856 -2.5133  1.2191
   39MOL   H11413110   3.466   2.610   6.907  2.4309  0.7434 -0.6033
   39MOL   H11513111   3.549   2.826   6.993  0.0662  0.4746  0.2015
   39MOL   H11613112   3.709   2.842   7.318 -0.4469  0.6295 -0.4805
   39MOL   H11713113   3.718   2.604   7.329 -1.8440  2.0909  0.9955
   39MOL   H11813114   3.593   2.405   7.257 -1.9155  0.6569  0.5597
   39MOL   H11913115   3.471   2.257   7.214  1.1217  0.3231 -1.7482
   39MOL   H12013116   3.374   2.173   7.096  2.3288 -0.3949 -0.4839
   39MOL   C12113117   3.259   2.324   7.217  0.8542  0.1747  0.8528
   39MOL   C12213118   3.131   2.305   7.138  0.0641 -0.7388  0.4829
   39MOL   C12313119   3.094   2.178   7.091 -0.3087 -0.1960  0.6230
   39MOL   C12413120   2.967   2.152   7.030 -0.0812 -0.2785  0.3711
   39MOL   C12513121   2.879   2.266   7.013  0.4546  0.2894 -0.3088
   39MOL   O12613122   2.760   2.239   6.957  0.4728 -0.1680 -0.2897
   39MOL   C12713123   2.922   2.397   7.039  0.5958 -0.0699  0.0338
   39MOL   C12813124   3.050   2.415   7.102 -0.2045  0.2780 -0.3132
   39MOL   C12913125   3.245   2.259   7.360 -0.3877  0.5432 -0.1957
   39MOL   H13013126   3.278   2.431   7.226 -0.8300  0.5152  0.5127
   39MOL   H13113127   3.155   2.093   7.117 -1.5261 -0.6753  1.9762
   39MOL   H13213128   2.944   2.053   6.995 -0.5425  0.8011 -2.4869
   39MOL   H13313129   2.694   2.273   7.016  0.5936 -0.0936 -0.1982
   39MOL   H13413130   2.859   2.480   7.011  0.7026  0.3990  1.1878
   39MOL   H13513131   3.074   2.518   7.121  0.5681  0.4055 -1.9355
   39MOL   H13613132   3.342   2.218   7.389 -0.7605  0.4398  0.9022
   39MOL   H13713133   3.185   2.168   7.361 -1.1783  1.0215 -2.0388
   39MOL   C13813134   3.172   2.356   7.453 -0.2839 -0.1638 -0.0303
   39MOL   C13913135   3.257   2.487   7.464  0.0572 -0.4469 -0.7082
   39MOL   C14013136   3.389   2.485   7.517  0.1669  0.1803  0.2008
   39MOL   C14113137   3.465   2.601   7.522  0.2634  0.5182  0.1645
   39MOL   C14213138   3.419   2.724   7.467  0.6214  0.6927 -0.0776
   39MOL   O14313139   3.498   2.830   7.469  0.0443 -0.0071 -0.4321
   39MOL   C14413140   3.286   2.728   7.421 -0.4112 -0.7216  0.4134
   39MOL   C14513141   3.208   2.611   7.415 -0.1894 -0.5964 -0.5263
   39MOL   C14613142   3.142   2.285   7.598 -0.6677  0.0095  0.0407
   39MOL   H14713143   3.080   2.383   7.402  0.6222  0.4196 -1.3948
   39MOL   H14813144   3.425   2.392   7.557  0.1810  0.9670  2.0593
   39MOL   H14913145   3.567   2.593   7.557  0.1920 -1.4011 -0.0227
   39MOL   H15013146   3.456   2.912   7.490 -3.8457 -1.9479 -0.0559
   39MOL   H15113147   3.248   2.823   7.386  0.4912 -0.0842  1.1048
   39MOL   H15213148   3.105   2.615   7.381 -0.1886 -0.0631 -0.4785
   39MOL   H15313149   3.118   2.370   7.663 -2.6434 -0.5100  0.0069
   39MOL   H15413150   3.235   2.246   7.639 -0.2702  1.9457  1.0368
   39MOL   C15513151   3.026   2.187   7.590  0.3101 -0.7319 -0.3002
   39MOL   C15613152   2.909   2.219   7.499  0.5519  0.5081 -0.0917
   39MOL   C15713153   2.839   2.338   7.504  0.1021  0.5513 -0.1080
   39MOL   C15813154   2.738   2.371   7.410  0.5395 -0.5331  0.4474
   39MOL   C15913155   2.704   2.275   7.314 -0.3162  0.2403  0.4266
   39MOL   O16013156   2.614   2.312   7.217  0.1742 -0.1676  0.0758
   39MOL   C16113157   2.768   2.150   7.306 -0.0173  0.6092  0.2177
   39MOL   C16213158   2.877   2.124   7.395 -0.1710 -0.1020  0.1438
   39MOL   C16313159   2.983   2.123   7.726  0.5576  0.0201  0.8662
   39MOL   H16413160   3.075   2.112   7.529 -2.5261 -4.5315  1.8710
   39MOL   H16513161   2.855   2.408   7.586 -0.6864 -1.1522  1.5326
   39MOL   H16613162   2.684   2.464   7.418  0.4566 -0.3645 -1.7846
   39MOL   H16713163   2.563   2.390   7.232 -1.4316 -1.0066 -0.9553
   39MOL   H16813164   2.744   2.077   7.230  1.5123 -1.9043  2.0735
   39MOL   H16913165   2.931   2.031   7.382  0.7600  0.4808 -0.2052
   39MOL   H17013166   2.911   2.044   7.707 -1.5464  1.2205  3.4629
   39MOL   H17113167   2.934   2.190   7.797 -1.4760  0.1999 -0.6839
   39MOL   C17213168   3.099   2.049   7.797  0.4035 -0.2842  0.0364
   39MOL   C17313169   3.173   1.958   7.701  1.5405  0.1727  0.2070
   39MOL   C17413170   3.306   1.987   7.673  0.0632 -0.0636  0.1865
   39MOL   C17513171   3.376   1.914   7.576  0.2321  0.0970  0.0618
   39MOL   C17613172   3.318   1.792   7.527  0.3634  0.2645  0.3279
   39MOL   O17713173   3.394   1.705   7.452  0.3292  0.3776 -0.5121
   39MOL   C17813174   3.184   1.762   7.556 -0.5815 -0.8193  0.0788
   39MOL   C17913175   3.114   1.845   7.641  0.7311  0.1548 -0.0798
   39MOL   C18013176   3.050   1.986   7.926 -0.5388 -0.0209 -0.2076
   39MOL   H18113177   3.172   2.119   7.839 -0.0946  0.8090 -0.8898
   39MOL   H18213178   3.353   2.070   7.724 -2.3013  0.5855  1.3437
   39MOL   H18313179   3.478   1.946   7.563 -0.3557  2.7344  1.5987
   39MOL   H18413180   3.344   1.630   7.424 -1.2386  1.8865 -1.8648
   39MOL   H18513181   3.137   1.674   7.514 -2.3949 -0.0201  0.3719
   39MOL   H18613182   3.015   1.817   7.675  1.5361 -1.3944  1.0706
   39MOL   H18713183   2.976   1.913   7.890 -2.2443  1.8973 -0.7128
   39MOL   H18813184   2.998   2.058   7.989 -0.4570 -0.7933  0.7627
   39MOL   C18913185   3.156   1.909   8.007 -0.2158  0.0412  0.2650
   39MOL   C19013186   3.128   1.929   0.120 -0.1071 -0.7132  0.3878
   39MOL   C19113187   3.201   2.027   0.193  0.1063  0.2329  0.2215
   39MOL   C19213188   3.178   2.052   0.333  0.5178  0.3226 -0.1144
   39MOL   C19313189   3.086   1.971   0.400  0.0904  0.1508 -0.0881
   39MOL   O19413190   3.065   1.979   0.533 -0.1271  0.0316 -0.4069
   39MOL   C19513191   3.014   1.874   0.326 -0.5833  0.3009  0.7078
   39MOL   C19613192   3.032   1.857   0.192  0.4715 -0.4304  0.0891
   39MOL   C19713193   3.174   1.753   7.981  0.3045 -0.2960  0.1457
   39MOL   H19813194   3.249   1.958   7.978  0.0032 -0.2828  0.4185
   39MOL   H19913195   3.263   2.095   0.137  0.9741 -1.0316 -0.3774
   39MOL   H20013196   3.216   2.141   0.381  0.9962  0.7324 -1.2191
   39MOL   H20113197   3.109   2.058   0.559 -0.8053  0.5827 -0.9330
   39MOL   H20213198   2.945   1.811   0.380 -0.0865  1.0648  2.2701
   39MOL   H20313199   2.972   1.786   0.137  1.8136 -1.1107 -0.5193
   39MOL   H20413200   3.166   1.727   7.875  0.2419  0.8260 -0.1359
   39MOL   H20513201   3.083   1.709   8.020 -0.2838  0.9125  0.1429
   39MOL   C20613202   3.304   1.681   8.030 -0.3381 -0.6289 -0.0881
   39MOL   C20713203   3.331   1.568   7.922  0.2774  0.4284 -0.5078
   39MOL   C20813204   3.265   1.440   7.921  0.4664  0.5829 -0.6419
   39MOL   C20913205   3.302   1.345   7.827 -0.3385  0.4381  0.0081
   39MOL   C21013206   3.397   1.370   7.727 -0.8112  0.1316 -0.2567
   39MOL   O21113207   3.451   1.271   7.653  0.0374 -0.1438  0.0335
   39MOL   C21213208   3.454   1.496   7.726 -0.6832 -0.4992  0.4356
   39MOL   C21313209   3.421   1.595   7.822 -0.3430 -0.7584 -0.8553
   39MOL   C21413210   3.308   1.616   0.137  0.3336 -0.4129 -0.0559
   39MOL   H21513211   3.392   1.746   8.024 -0.4045 -0.0802  3.7387
   39MOL   H21613212   3.183   1.417   7.987  0.1256 -0.9750 -1.5646
   39MOL   H21713213   3.244   1.254   7.831 -0.5117  0.6159  2.3284
   39MOL   H21813214   3.461   1.191   7.703 -1.2779  0.7362  1.7540
   39MOL   H21913215   3.532   1.522   7.656 -1.9590  2.0272 -0.0842
   39MOL   H22013216   3.474   1.688   7.810 -1.3674  0.4679  3.4444
   39MOL   H22113217   3.285   1.510   0.132 -1.8270  0.0695 -0.7416
   39MOL   H22213218   3.227   1.663   0.192  1.0518  0.4094  0.3162
   39MOL   C22313219   3.437   1.637   0.223  0.1064 -0.1699  0.5801
   39MOL   C22413220   3.444   1.542   0.343  0.6825 -0.1316 -0.4917
   39MOL   C22513221   3.553   1.457   0.358 -0.1451  0.3311 -0.1728
   39MOL   C22613222   3.553   1.365   0.460 -0.5409 -0.6266  0.5296
   39MOL   C22713223   3.450   1.357   0.558 -0.4905 -0.0004  0.2302
   39MOL   O22813224   3.457   1.271   0.662  0.6219 -0.1729 -0.6207
   39MOL   C22913225   3.341   1.448   0.547  0.5475  0.1916 -0.1389
   39MOL   C23013226   3.335   1.535   0.437 -0.1899 -0.1751 -0.4298
   39MOL   C23113227   3.447   1.786   0.276 -0.0549  0.1574  0.4979
   39MOL   H23213228   3.519   1.616   0.154 -0.6782 -3.6988  0.6587
   39MOL   H23313229   3.636   1.457   0.288  0.9793 -2.3700  1.1077
   39MOL   H23413230   3.631   1.291   0.457 -1.1105 -1.1859 -0.8988
   39MOL   H23513231   3.526   1.207   0.672  1.0835  0.3431 -0.4681
   39MOL   H23613232   3.259   1.449   0.618 -0.5240 -0.3525 -1.3429
   39MOL   H23713233   3.254   1.606   0.424 -0.3948 -0.6101 -1.6313
   39MOL   H23813234   3.479   1.841   0.187  0.4364  0.6933  1.0047
   39MOL   H23913235   3.350   1.825   0.307 -0.1136  0.7607 -0.3957
   39MOL   C24013236   3.556   1.821   0.387 -0.2740  0.0649  0.7615
   39MOL   C24113237   3.698   1.780   0.342  0.6639 -0.1839  0.4507
   39MOL   C24213238   3.739   1.814   0.215  1.1266  0.4029  0.1132
   39MOL   C24313239   3.862   1.759   0.169 -0.6165 -0.2191 -0.0317
   39MOL   C24413240   3.949   1.690   0.253 -0.0855  1.2053  0.5709
   39MOL   O24513241   4.064   1.639   0.206 -0.6747  0.1184 -0.1262
   39MOL   C24613242   3.904   1.673   0.388 -0.2004  0.5541 -0.7364
   39MOL   C24713243   3.781   1.716   0.433 -0.4960 -0.4370 -0.0408
   39MOL   C24813244   3.551   1.971   0.433  0.4758 -0.1707  0.1440
   39MOL   H24913245   3.531   1.767   0.479  0.8796  1.9086  2.1852
   39MOL   H25013246   3.685   1.878   0.146 -0.3923 -0.1973  0.7326
   39MOL   H25113247   3.898   1.778   0.069  1.1649  1.2987  0.8666
   39MOL   H25213248   4.078   1.651   0.113 -0.9133 -0.0441 -0.1835
   39MOL   H25313249   3.971   1.634   0.463 -2.3943  0.4413  1.2072
   39MOL   H25413250   3.759   1.694   0.536 -0.4986 -1.1367 -0.1887
   39MOL   H25513251   3.646   2.022   0.418  0.3911  0.3776  1.3840
   39MOL   H25613252   3.489   2.038   0.373  2.1645  1.3796  0.0887
   39MOL   C25713253   3.525   2.001   0.581  0.0818 -0.0433  0.6486
   39MOL   C25813254   3.611   1.919   0.677  0.3857 -0.2363  0.6212
   39MOL   C25913255   3.750   1.944   0.695  0.0074 -0.5827  0.8223
   39MOL   C26013256   3.832   1.859   0.768  0.6224  0.2213 -0.8979
   39MOL   C26113257   3.771   1.752   0.838  0.0137 -0.3026 -0.6540
   39MOL   O26213258   3.852   1.682   0.923  0.0314 -0.2839  0.3222
   39MOL   C26313259   3.639   1.720   0.825  0.4068 -0.0904 -0.5946
   39MOL   C26413260   3.557   1.809   0.756  0.0669  0.8300  0.1768
   39MOL   C26513261   3.536   2.154   0.596  0.1503  0.2362  0.4281
   39MOL   H26613262   3.422   1.974   0.603  0.4023 -0.9778  1.0600
   39MOL   H26713263   3.794   2.021   0.633 -2.0588 -1.5789 -1.9599
   39MOL   H26813264   3.936   1.886   0.779 -0.3888  3.4287  1.7264
   39MOL   H26913265   3.816   1.605   0.966  1.9891 -0.0774  2.3903
   39MOL   H27013266   3.593   1.634   0.871 -1.0210  0.6646 -0.5924
   39MOL   H27113267   3.456   1.774   0.738 -0.2241  0.8657  1.6700
   39MOL   H27213268   3.478   2.199   0.515 -0.5916 -1.5653 -0.0697
   39MOL   H27313269   3.637   2.193   0.583  1.1577 -2.2132  0.7695
   39MOL   C27413270   3.494   2.215   0.731 -0.2695  0.9531  0.1391
   39MOL   C27513271   3.341   2.197   0.749  0.2364  0.2959 -0.7636
   39MOL   C27613272   3.294   2.092   0.827  0.4137  0.1644 -0.5508
   39MOL   C27713273   3.164   2.094   0.880 -0.1518 -0.2097  0.3013
   39MOL   C27813274   3.074   2.182   0.825  0.3084 -0.4161 -0.6277
   39MOL   O27913275   2.941   2.169   0.862  0.1890 -0.4501  0.1502
   39MOL   C28013276   3.105   2.278   0.735 -0.7103 -0.1586 -0.4954
   39MOL   C28113277   3.238   2.282   0.695  0.2030 -0.1096  0.5920
   39MOL   C28213278   3.536   2.362   0.734  0.3105 -0.7676 -0.4285
   39MOL   H28313279   3.554   2.169   0.810  0.8119  1.2006 -0.5212
   39MOL   H28413280   3.363   2.013   0.854  0.2313 -0.1186 -0.9091
   39MOL   H28513281   3.149   2.012   0.950  0.0666  0.2357  0.8765
   39MOL   H28613282   2.886   2.223   0.807 -0.1601 -0.6330  0.3211
   39MOL   H28713283   3.034   2.350   0.700 -0.0359  1.2805  1.0226
   39MOL   H28813284   3.269   2.361   0.629  2.0143 -0.7506  0.6540
   39MOL   H28913285   3.634   2.382   0.691 -1.3799  1.8591 -3.1653
   39MOL   H29013286   3.475   2.424   0.670  1.3072 -1.5702 -2.1838
   39MOL   C29113287   3.538   2.426   0.868 -0.1993  0.4179 -0.3825
   39MOL   C29213288   3.396   2.452   0.920  0.9538 -1.1718  0.8439
   39MOL   C29313289   3.352   2.391   1.033 -0.2818  0.3069 -0.0052
   39MOL   C29413290   3.227   2.423   1.089 -0.1060  0.0081 -0.1122
   39MOL   C29513291   3.142   2.509   1.019 -0.4142 -0.7447  0.8076
   39MOL   O29613292   3.009   2.524   1.055 -0.2544 -0.4336  0.1679
   39MOL   C29713293   3.187   2.575   0.905 -0.6317  0.3353  0.0655
   39MOL   C29813294   3.310   2.545   0.851 -0.0492 -0.0869  0.3477
   39MOL   C29913295   3.619   2.555   0.879 -0.1531 -0.1619  0.4545
   39MOL   H30013296   3.591   2.360   0.937  0.9622  0.5704 -1.1070
   39MOL   H30113297   3.419   2.334   1.096 -0.2915 -1.4377 -1.5270
   39MOL   H30213298   3.201   2.374   1.182  0.3144  1.0887  0.5902
   39MOL   H30313299   2.996   2.483   1.139  0.7687  0.0621  0.5753
   39MOL   H30413300   3.109   2.631   0.856  0.6798  0.9053 -1.4359
   39MOL   H30513301   3.336   2.588   0.755  2.1217  2.8019  2.1484
   39MOL   H30613302   3.609   2.592   0.981 -0.9303 -1.1567  0.7501
   39MOL   H30713303   3.584   2.635   0.814 -1.5982  0.6918  2.2461
   39MOL   C30813304   3.771   2.543   0.888 -1.2695  0.0101  0.2606
   39MOL   C30913305   3.820   2.414   0.959 -0.2893  0.1916  0.6659
   39MOL   C31013306   3.830   2.296   0.879 -0.1567 -0.0383 -0.4006
   39MOL   C31113307   3.864   2.176   0.944  0.5399  0.2003 -0.2179
   39MOL   C31213308   3.896   2.167   1.083 -0.0652 -0.0218 -0.2066
   39MOL   O31313309   3.930   2.043   1.132 -0.5807 -0.4792  0.3124
   39MOL   C31413310   3.879   2.284   1.162  0.4982  0.3010  0.2772
   39MOL   C31513311   3.838   2.404   1.102  0.5369  0.1542 -0.0423
   39MOL   C31613312   3.848   2.667   0.944  0.4576 -0.6921  0.1291
   39MOL   H31713313   3.812   2.528   0.788 -0.4888  0.6591  0.4681
   39MOL   H31813314   3.820   2.301   0.772  0.1381 -0.2075 -0.4366
   39MOL   H31913315   3.876   2.093   0.876 -0.8878  0.8668 -1.3195
   39MOL   H32013316   3.974   1.977   1.081 -1.1330 -1.9166  1.6569
   39MOL   H32113317   3.899   2.293   1.267  2.8661  0.4234 -0.1513
   39MOL   H32213318   3.820   2.496   1.157  0.5808  0.1354  0.0029
   39MOL   H32313319   3.807   2.671   1.045  0.0784  0.4699 -0.0622
   39MOL   H32413320   3.795   2.757   0.910  0.3089  0.6449  3.6293
   39MOL   C32513321   4.004   2.650   0.943  0.7149 -0.2428 -0.1595
   39MOL   C32613322   4.062   2.724   1.065  0.0065 -0.5699  0.8379
   39MOL   C32713323   4.135   2.643   1.159 -0.0465 -0.8143  0.3718
   39MOL   C32813324   4.220   2.702   1.251 -0.4747  0.4061 -0.4401
   39MOL   C32913325   4.216   2.844   1.267 -1.4949 -0.3039 -0.0930
   39MOL   O33013326   4.300   2.898   1.364  0.3751 -0.0678  0.8313
   39MOL   C33113327   4.139   2.928   1.181  0.4043  0.0467 -0.3888
   39MOL   C33213328   4.060   2.864   1.078 -0.5720 -0.2425 -0.2543
   39MOL   C33313329   4.060   2.714   0.808  0.1816  0.6341 -0.8087
   39MOL   H33413330   4.036   2.546   0.949  1.1462 -0.0785  0.4204
   39MOL   H33513331   4.134   2.536   1.144 -0.7130 -0.9013  1.0137
   39MOL   H33613332   4.278   2.640   1.318  1.3419  0.1140 -2.2566
   39MOL   H33713333   4.291   2.854   1.448 -0.4508 -1.1609  0.1883
   39MOL   H33813334   4.149   3.036   1.185 -0.7074  0.2389 -2.1642
   39MOL   H33913335   4.020   2.931   1.004 -0.8217  0.7933  0.7912
   39MOL   H34013336   4.169   2.706   0.805  0.1654 -0.8792  1.5262
   39MOL   H34113337   4.039   2.820   0.796  0.0522  0.8812  1.4364
   39MOL   H34213338   4.015   2.665   0.722  0.5279 -0.9610 -0.0998
   40MOL     C113339   0.898   1.651   3.142 -0.3853  0.2082 -0.0161
   40MOL     C213340   0.828   1.748   3.242 -0.2424 -0.0828 -0.4168
   40MOL     C313341   0.738   1.700   3.346  0.3136 -0.5041  0.3061
   40MOL     C413342   0.679   1.793   3.433 -0.4803  0.0426 -0.1964
   40MOL     C513343   0.710   1.932   3.430  0.3427  0.1592 -0.7399
   40MOL     O613344   0.658   2.022   3.520 -0.2512  0.1397  0.1005
   40MOL     C713345   0.800   1.981   3.332 -0.3425  0.3202 -0.1561
   40MOL     C813346   0.863   1.885   3.246 -0.3152 -0.3854  0.7585
   40MOL     C913347   0.804   1.616   3.029 -0.0994 -0.3120 -0.3546
   40MOL    H1013348   0.993   1.694   3.110 -0.3677  1.3768  1.5247
   40MOL    H1113349   0.727   1.594   3.362 -0.5883 -0.5412 -0.5437
   40MOL    H1213350   0.610   1.766   3.511 -1.2641 -1.4687 -1.3985
   40MOL    H1313351   0.594   1.979   3.574 -0.7050 -1.0242 -1.3029
   40MOL    H1413352   0.826   2.085   3.325 -0.8448  0.4353 -0.3499
   40MOL    H1513353   0.931   1.917   3.169 -2.6902  2.3871 -0.2705
   40MOL    H1613354   0.864   1.577   2.947 -0.1465 -0.4419 -0.3272
   40MOL    H1713355   0.776   1.715   2.991  1.5970  0.5901  0.6601
   40MOL    H1813356   0.929   1.561   3.196 -0.9632  0.2377  0.3659
   40MOL    C1913357   0.688   1.512   3.056  0.4756 -0.1193 -0.4254
   40MOL    C2013358   0.756   1.376   3.071  0.1898  0.0397 -0.6959
   40MOL    C2113359   0.785   1.328   3.203 -0.2622  0.2279 -0.1168
   40MOL    C2213360   0.858   1.212   3.227  0.5095 -0.7893 -0.1408
   40MOL    C2313361   0.891   1.134   3.118 -0.6126 -0.1430 -0.3244
   40MOL    O2413362   0.957   1.012   3.126  0.0893 -0.4667 -0.2598
   40MOL    C2513363   0.856   1.171   2.986  0.3776  0.1904 -0.1130
   40MOL    C2613364   0.786   1.296   2.961 -0.2834  0.0836 -0.9020
   40MOL    C2713365   0.564   1.510   2.954  0.2420  0.2743  0.4226
   40MOL    H2813366   0.644   1.537   3.152  1.3549 -0.4974  0.0846
   40MOL    H2913367   0.777   1.399   3.285  1.2524 -1.4065  1.4895
   40MOL    H3013368   0.882   1.180   3.328  1.3873  0.0556 -0.0743
   40MOL    H3113369   1.004   1.008   3.208 -1.2479 -0.0877  0.5479
   40MOL    H3213370   0.872   1.091   2.915 -0.9771 -2.3022  2.2731
   40MOL    H3313371   0.752   1.310   2.859 -0.0648  0.6742 -0.8924
   40MOL    H3413372   0.487   1.442   2.989 -0.5408  0.0700 -1.5843
   40MOL    H3513373   0.608   1.470   2.862 -1.7451 -1.4108  0.1806
   40MOL    C3613374   0.493   1.642   2.929  0.0462  0.8343 -0.8052
   40MOL    C3713375   0.438   1.700   3.061 -0.0717 -0.5481  0.0017
   40MOL    C3813376   0.484   1.826   3.117 -0.1119 -0.3071 -0.2685
   40MOL    C3913377   0.433   1.864   3.244  0.4069 -1.1655 -0.3693
   40MOL    C4013378   0.345   1.774   3.317 -0.0327 -0.1837  0.0232
   40MOL    O4113379   0.304   1.804   3.440 -0.4125  0.6262 -0.9709
   40MOL    C4213380   0.305   1.648   3.261 -0.6134 -0.9581 -0.3598
   40MOL    C4313381   0.355   1.611   3.138 -0.3674 -0.1582  0.1372
   40MOL    C4413382   0.373   1.617   2.826  0.4285  0.2332  0.5017
   40MOL    H4513383   0.561   1.715   2.886  0.3224  1.9196  1.4160
   40MOL    H4613384   0.553   1.892   3.067  0.0350  0.4543  0.9082
   40MOL    H4713385   0.461   1.961   3.282 -5.4963 -0.4608  2.6829
   40MOL    H4813386   0.328   1.882   3.488 -0.2662  0.0809 -0.1603
   40MOL    H4913387   0.242   1.577   3.312 -1.5856  1.6141  2.1475
   40MOL    H5013388   0.332   1.512   3.103  1.2073  0.3809 -2.5101
   40MOL    H5113389   0.391   1.524   2.771 -0.2695 -0.2535  1.0729
   40MOL    H5213390   0.283   1.591   2.883  0.6385  0.8131  1.1095
   40MOL    C5313391   0.344   1.729   2.724  0.0104  0.5424 -0.5220
   40MOL    C5413392   0.253   1.684   2.610  0.2687 -0.4528  0.2793
   40MOL    C5513393   0.298   1.701   2.481 -0.5883  0.4251 -0.1916
   40MOL    C5613394   0.213   1.672   2.372  0.5896  0.1498 -0.2430
   40MOL    C5713395   0.083   1.617   2.392  0.2116 -0.0028  0.2918
   40MOL    O5813396   8.036   1.589   2.285 -0.4475 -0.0872 -0.2896
   40MOL    C5913397   0.044   1.583   2.519 -0.8526 -0.1505  0.0589
   40MOL    C6013398   0.122   1.622   2.633 -0.4152 -1.1198  0.4929
   40MOL    C6113399   0.286   1.855   2.784  0.5307 -0.4804 -0.3796
   40MOL    H6213400   0.440   1.750   2.677  0.6372  0.6871  0.7937
   40MOL    H6313401   0.396   1.739   2.458 -1.4256  2.0336 -1.2449
   40MOL    H6413402   0.251   1.679   2.271  1.4233  3.0852  0.2133
   40MOL    H6513403   7.949   1.576   2.318 -0.3605 -0.6010 -0.2460
   40MOL    H6613404   7.986   1.541   2.547 -0.3240 -0.5017  1.3617
   40MOL    H6713405   0.083   1.601   2.731 -0.2668 -1.6765  0.4339
   40MOL    H6813406   0.321   1.865   2.887  0.9068 -2.7134 -0.2657
   40MOL    H6913407   0.182   1.841   2.814  0.6389 -0.1978  0.1381
   40MOL    C7013408   0.289   1.991   2.704 -0.5978 -0.5244  0.7780
   40MOL    C7113409   0.436   2.042   2.708  0.4709 -0.4819  0.2295
   40MOL    C7213410   0.509   2.055   2.585  1.3264 -0.3245 -0.0931
   40MOL    C7313411   0.643   2.093   2.591 -0.2974  0.0901  0.3007
   40MOL    C7413412   0.707   2.130   2.714 -0.0100 -0.0047  0.4557
   40MOL    O7513413   0.839   2.173   2.717  0.5859  0.1013 -0.1961
   40MOL    C7613414   0.636   2.138   2.830 -0.1246  0.0183  0.0220
   40MOL    C7713415   0.504   2.085   2.829  0.4991 -0.2657  0.1368
   40MOL    C7813416   0.190   2.096   2.750 -0.0450  0.6851 -0.0470
   40MOL    H7913417   0.263   1.967   2.601 -1.5576 -1.0016  1.1280
   40MOL    H8013418   0.467   2.021   2.491  2.6976  1.1748 -1.2612
   40MOL    H8113419   0.690   2.087   2.494 -0.6768  0.5836  0.0839
   40MOL    H8213420   0.878   2.186   2.632  0.5318 -0.2209 -0.2685
   40MOL    H8313421   0.687   2.163   2.921  0.8298 -0.1862 -0.4565
   40MOL    H8413422   0.444   2.082   2.919 -3.9354 -0.2987 -2.6447
   40MOL    H8513423   0.236   2.189   2.719  0.1112  1.1272  1.4493
   40MOL    H8613424   0.194   2.087   2.859  1.4936  1.3725 -0.0300
   40MOL    C8713425   0.048   2.085   2.693 -0.7908 -0.5877  0.3105
   40MOL    C8813426   0.043   2.088   2.540 -1.0610  0.3837 -0.1193
   40MOL    C8913427   0.009   1.971   2.467  0.2820 -0.1035 -0.2620
   40MOL    C9013428   8.025   1.980   2.330 -0.3445  0.0480 -0.3899
   40MOL    C9113429   0.013   2.106   2.268 -0.4896  0.0404 -0.4137
   40MOL    O9213430   0.004   2.102   2.134  0.3520  0.1448  0.1589
   40MOL    C9313431   0.044   2.225   2.337  0.5786  0.2292 -0.5669
   40MOL    C9413432   0.054   2.214   2.479  0.0710  0.1475 -0.0764
   40MOL    C9513433   7.988   2.190   2.760 -0.5834  0.8004  0.6406
   40MOL    H9613434   0.017   1.986   2.728 -0.7856 -0.1849  1.4815
   40MOL    H9713435   0.010   1.875   2.518 -1.5518 -0.2071 -0.4010
   40MOL    H9813436   8.012   1.894   2.266 -0.0701  0.4051 -0.9294
   40MOL    H9913437   0.038   2.180   2.093  0.3009 -0.2042 -0.5610
   40MOL   H10013438   0.072   2.315   2.284 -0.5988  0.9732  0.0585
   40MOL   H10113439   0.066   2.302   2.542 -1.3639  1.6228 -1.7978
   40MOL   H10213440   7.977   2.184   2.868 -0.4882  1.9908  0.7293
   40MOL   H10313441   0.013   2.279   2.753  0.0259  0.4794  1.8311
   40MOL   C10413442   7.843   2.204   2.696 -0.3290 -0.4391 -0.1367
   40MOL   C10513443   7.788   2.345   2.732 -0.0690 -0.5113 -0.1804
   40MOL   C10613444   7.722   2.366   2.849  0.4325  0.1868 -0.5580
   40MOL   C10713445   7.686   2.496   2.891 -0.6804  0.4107 -0.7289
   40MOL   C10813446   7.707   2.603   2.800  0.3354 -0.5401 -0.4294
   40MOL   O10913447   7.662   2.729   2.836 -0.2011 -0.2467  0.2676
   40MOL   C11013448   7.779   2.581   2.683 -0.7965  0.1875 -0.0957
   40MOL   C11113449   7.817   2.449   2.644 -0.4658 -0.2652  0.4803
   40MOL   C11213450   7.756   2.079   2.717 -0.0599 -0.1697  0.6937
   40MOL   H11313451   7.863   2.210   2.589  0.6310 -0.3007  0.0432
   40MOL   H11413452   7.705   2.279   2.910 -0.3323 -0.3545 -1.5352
   40MOL   H11513453   7.639   2.519   2.985 -1.5694  2.3179 -1.6085
   40MOL   H11613454   7.676   2.794   2.769 -0.5184 -0.5335 -0.0754
   40MOL   H11713455   7.811   2.662   2.619  1.2165  1.6997  2.6859
   40MOL   H11813456   7.871   2.435   2.552 -0.3986  2.6184  0.0288
   40MOL   H11913457   7.770   2.041   2.818  0.3550 -2.7192 -0.2931
   40MOL   H12013458   7.799   1.998   2.658  0.5184 -0.9859  2.2107
   40MOL   C12113459   7.606   2.093   2.677  0.2658 -0.7223 -0.3768
   40MOL   C12213460   7.519   2.079   2.805 -0.4241  0.0214  0.5067
   40MOL   C12313461   7.506   1.950   2.863 -0.6149  0.0670 -0.0378
   40MOL   C12413462   7.424   1.929   2.975  0.6207 -0.3762  0.7011
   40MOL   C12513463   7.359   2.042   3.018 -0.3619 -0.2363 -0.3310
   40MOL   O12613464   7.267   2.031   3.122 -0.2217 -0.4377 -0.2635
   40MOL   C12713465   7.371   2.170   2.955  0.2588  0.0824  0.1324
   40MOL   C12813466   7.455   2.190   2.851 -0.2544  0.2237  0.4002
   40MOL   C12913467   7.559   2.197   2.568  0.2767  0.3491 -0.5113
   40MOL   H13013468   7.579   2.002   2.624 -0.9134 -1.2129  1.0279
   40MOL   H13113469   7.566   1.867   2.830  0.4240  0.6753  0.3012
   40MOL   H13213470   7.413   1.834   3.026  0.9528 -0.1209  1.2555
   40MOL   H13313471   7.249   1.948   3.164 -0.5197  0.0840  0.6701
   40MOL   H13413472   7.329   2.263   2.988  1.1653  0.7138 -0.4767
   40MOL   H13513473   7.459   2.283   2.797 -0.9879  1.1363  1.8841
   40MOL   H13613474   7.563   2.303   2.594 -2.6618  0.8871 -2.0293
   40MOL   H13713475   7.450   2.188   2.569  0.3229 -0.3424 -2.0967
   40MOL   C13813476   7.601   2.172   2.419 -0.2539  0.3053 -0.4400
   40MOL   C13913477   7.597   2.317   2.354 -0.4436 -0.0525  0.3857
   40MOL   C14013478   7.467   2.376   2.317 -0.1587 -0.1136  0.2382
   40MOL   C14113479   7.462   2.504   2.270  0.0609 -1.4675  0.4795
   40MOL   C14213480   7.574   2.584   2.266  0.1772 -0.2783  0.7891
   40MOL   O14313481   7.565   2.714   2.234  0.5982 -0.2238 -0.2745
   40MOL   C14413482   7.703   2.530   2.288  0.3242 -0.3446  0.5132
   40MOL   C14513483   7.713   2.394   2.330  0.6324 -0.0699 -0.3164
   40MOL   C14613484   7.508   2.079   2.349  0.0885  0.7060 -0.9335
   40MOL   H14713485   7.696   2.121   2.407  0.0920  0.3584  1.9195
   40MOL   H14813486   7.373   2.323   2.316  0.4286 -1.2213  2.4670
   40MOL   H14913487   7.363   2.541   2.248  1.6477  2.2237 -0.9165
   40MOL   H15013488   7.630   2.765   2.281 -0.0639 -1.7882  2.4210
   40MOL   H15113489   7.795   2.586   2.284 -1.0547  1.9041 -0.2689
   40MOL   H15213490   7.810   2.351   2.348  1.2678  0.3537 -2.5420
   40MOL   H15313491   7.407   2.118   2.358 -0.0181 -0.1726  2.0466
   40MOL   H15413492   7.500   1.985   2.404 -0.4713 -0.3656 -2.7814
   40MOL   C15513493   7.546   2.041   2.203  0.7296  0.7194 -0.3140
   40MOL   C15613494   7.419   2.008   2.128  0.3040 -0.1332 -0.0635
   40MOL   C15713495   7.337   1.900   2.172 -0.7529 -0.0536 -0.7009
   40MOL   C15813496   7.219   1.861   2.113  0.0530 -0.3881 -0.6381
   40MOL   C15913497   7.184   1.932   1.997  0.4092  0.6959  0.0939
   40MOL   O16013498   7.072   1.898   1.928  0.2120  0.0181  0.1486
   40MOL   C16113499   7.266   2.033   1.949 -0.6852  0.2541 -0.1368
   40MOL   C16213500   7.374   2.080   2.020 -0.5632 -0.4194  0.1591
   40MOL   C16313501   7.661   1.937   2.186  0.4893 -0.4589 -0.2980
   40MOL   H16413502   7.577   2.133   2.153  0.8662  0.4201 -0.7826
   40MOL   H16513503   7.369   1.835   2.252 -0.6471 -2.2870 -2.5305
   40MOL   H16613504   7.160   1.776   2.144 -0.9054  0.8444  0.9802
   40MOL   H16713505   7.050   1.964   1.864 -1.7732 -0.3584  0.4198
   40MOL   H16813506   7.233   2.087   1.861  2.0491 -0.1479 -1.4753
   40MOL   H16913507   7.424   2.164   1.974 -0.0606  0.2466  1.9214
   40MOL   H17013508   7.636   1.851   2.248 -1.3588  0.6618  0.5566
   40MOL   H17113509   7.749   1.988   2.223 -0.8846  0.8929  1.1958
   40MOL   C17213510   7.685   1.879   2.039  0.7314  0.6786  0.7202
   40MOL   C17313511   7.638   1.729   2.033  0.6482 -0.3998  0.4656
   40MOL   C17413512   7.526   1.687   1.956 -0.0677  0.1414 -0.4532
   40MOL   C17513513   7.488   1.553   1.948 -0.1657 -0.0247  0.5403
   40MOL   C17613514   7.569   1.450   1.999 -0.1825  0.7963  0.0769
   40MOL   O17713515   7.538   1.317   1.993  0.2314  0.2729  0.1905
   40MOL   C17813516   7.680   1.481   2.075 -0.1905  0.2737  0.0722
   40MOL   C17913517   7.714   1.624   2.092  0.3331  0.2376  0.0769
   40MOL   C18013518   7.826   1.900   1.981 -0.2667  0.2786  0.1687
   40MOL   H18113519   7.626   1.927   1.960  0.9572  1.7988  1.2253
   40MOL   H18213520   7.466   1.764   1.909 -0.4896 -0.3173 -0.6726
   40MOL   H18313521   7.396   1.548   1.893 -0.5268  0.7026  1.0738
   40MOL   H18413522   7.597   1.256   2.034 -0.4564 -0.7681 -0.3380
   40MOL   H18513523   7.742   1.408   2.125 -3.4325 -3.5711 -1.3165
   40MOL   H18613524   7.802   1.659   2.142  0.0523  1.5184 -0.3199
   40MOL   H18713525   7.888   1.876   2.067 -0.3304 -1.9911 -0.3819
   40MOL   H18813526   7.829   2.006   1.955  0.0967 -0.0348 -1.0803
   40MOL   C18913527   7.864   1.816   1.853 -0.7503  0.2855 -0.1089
   40MOL   C19013528   7.759   1.819   1.740  0.2600  0.4153  0.0761
   40MOL   C19113529   7.735   1.705   1.663 -0.0259  0.2094  0.5853
   40MOL   C19213530   7.627   1.697   1.577  0.6165  0.2148 -0.0855
   40MOL   C19313531   7.534   1.804   1.555  0.0583  0.5152 -0.3013
   40MOL   O19413532   7.431   1.790   1.464 -0.4222  0.3105  0.3499
   40MOL   C19513533   7.558   1.922   1.629 -0.3859  0.6871 -0.0068
   40MOL   C19613534   7.679   1.937   1.710  0.0265  0.6620 -0.4014
   40MOL   C19713535   7.999   1.843   1.795 -0.3296  0.5213 -0.6288
   40MOL   H19813536   7.878   1.712   1.880  0.9998  0.9735  1.7024
   40MOL   H19913537   7.794   1.616   1.679 -0.6524 -0.3951 -0.4416
   40MOL   H20013538   7.609   1.604   1.526 -2.2006  0.3488  0.5393
   40MOL   H20113539   7.420   1.882   1.442 -1.3199  0.0090 -0.4809
   40MOL   H20213540   7.498   2.010   1.613 -0.4950  0.4221 -1.0974
   40MOL   H20313541   7.692   2.032   1.760 -1.7993  0.2431  0.9332
   40MOL   H20413542   8.000   1.941   1.748 -0.1178  0.8575  0.0803
   40MOL   H20513543   8.015   1.780   1.707  1.8890  0.8686 -0.5120
   40MOL   C20613544   0.086   1.842   1.885  0.2505  0.3203 -0.1596
   40MOL   C20713545   0.218   1.867   1.817  0.1751  0.2422  0.2685
   40MOL   C20813546   0.332   1.897   1.892  0.2143  0.8696 -0.1913
   40MOL   C20913547   0.460   1.898   1.836 -0.6291 -0.5969 -0.0834
   40MOL   C21013548   0.483   1.872   1.700 -0.2429 -0.0976 -0.8917
   40MOL   O21113549   0.608   1.865   1.651  0.3953 -0.8211 -0.0896
   40MOL   C21213550   0.368   1.856   1.625 -0.1323  0.2854 -0.1427
   40MOL   C21313551   0.235   1.856   1.680  0.2395 -0.0970 -0.4732
   40MOL   C21413552   0.100   1.722   1.976 -0.0778  0.4233 -0.0914
   40MOL   H21513553   0.087   1.929   1.952  1.4661 -0.8722  1.4219
   40MOL   H21613554   0.325   1.911   1.999  0.1129  0.2260 -0.1133
   40MOL   H21713555   0.551   1.911   1.892 -0.8077 -2.1447  0.5993
   40MOL   H21813556   0.609   1.842   1.559 -0.0463 -0.9127 -0.0731
   40MOL   H21913557   0.378   1.841   1.519 -0.7672  0.9682 -0.3042
   40MOL   H22013558   0.150   1.829   1.619 -1.1301 -0.6589  1.6088
   40MOL   H22113559   0.006   1.701   2.027  0.0193  1.3801  0.4857
   40MOL   H22213560   0.155   1.757   2.062 -1.6251 -1.5856  1.7698
   40MOL   C22313561   0.150   1.592   1.909 -0.5770  0.2876  0.0303
   40MOL   C22413562   0.041   1.523   1.821 -0.6380 -0.5473 -0.1667
   40MOL   C22513563   0.048   1.503   1.685 -0.6962 -0.0357 -0.9144
   40MOL   C22613564   7.988   1.426   1.610 -0.2496 -0.6149 -0.5187
   40MOL   C22713565   7.875   1.372   1.673  0.0591 -0.5828 -0.1637
   40MOL   O22813566   7.776   1.303   1.610  0.1011 -0.2639 -0.0689
   40MOL   C22913567   7.864   1.394   1.806  0.2336  0.6489 -0.4316
   40MOL   C23013568   7.961   1.466   1.881  0.3082 -0.3476 -0.0914
   40MOL   C23113569   0.220   1.486   1.998 -0.3563  0.6525 -0.2828
   40MOL   H23213570   0.229   1.611   1.838 -0.0006 -2.1359 -0.0397
   40MOL   H23313571   0.133   1.539   1.629  0.7531 -2.1918 -0.1811
   40MOL   H23413572   8.002   1.418   1.503 -0.2470  1.6776 -0.7162
   40MOL   H23513573   7.749   1.334   1.525  0.3256 -0.6131 -0.2685
   40MOL   H23613574   7.780   1.355   1.862 -0.4417  1.7983 -0.6431
   40MOL   H23713575   7.937   1.477   1.986  2.2959 -1.7605  0.5430
   40MOL   H23813576   0.288   1.519   2.076 -1.9952 -0.2051  1.5605
   40MOL   H23913577   0.136   1.434   2.043  0.1164 -0.9239 -1.1825
   40MOL   C24013578   0.288   1.372   1.919 -0.3840  0.5581 -0.3657
   40MOL   C24113579   0.391   1.428   1.819  0.0704  0.6906  0.2824
   40MOL   C24213580   0.497   1.514   1.862  0.1199  0.3889 -0.0496
   40MOL   C24313581   0.589   1.559   1.770  0.1075  0.0916  0.5250
   40MOL   C24413582   0.592   1.521   1.634  0.1742  0.5772  1.0118
   40MOL   O24513583   0.693   1.551   1.547 -0.4517  0.1940 -0.2656
   40MOL   C24613584   0.487   1.440   1.591  0.6053 -0.0580  0.5041
   40MOL   C24713585   0.388   1.388   1.678 -0.4248  0.3333  0.0148
   40MOL   C24813586   0.346   1.267   2.019 -0.0471  0.6354  0.0304
   40MOL   H24913587   0.218   1.317   1.857 -2.5888 -0.5283  2.9926
   40MOL   H25013588   0.500   1.531   1.969  1.5595  0.0376 -0.0182
   40MOL   H25113589   0.668   1.624   1.805  0.4617  0.9235 -1.6924
   40MOL   H25213590   0.773   1.582   1.587 -0.4635  0.4321 -0.4265
   40MOL   H25313591   0.479   1.401   1.490 -2.0580  0.9760  0.2691
   40MOL   H25413592   0.314   1.317   1.646  0.2300 -0.6424  0.6320
   40MOL   H25513593   0.361   1.180   1.955  1.6059  0.2352  0.9334
   40MOL   H25613594   0.438   1.312   2.055 -0.6270  2.9772 -1.3353
   40MOL   C25713595   0.260   1.216   2.135 -0.3142 -0.1295 -0.0095
   40MOL   C25813596   0.113   1.183   2.105  0.3999 -0.5263  0.3643
   40MOL   C25913597   0.069   1.135   1.974  0.3095  0.1425  0.2248
   40MOL   C26013598   7.972   1.108   1.947 -0.3622  0.7922 -0.4713
   40MOL   C26113599   7.877   1.119   2.049  0.1051 -0.6370  0.2521
   40MOL   O26213600   7.746   1.106   2.015  0.1817  0.1464  0.4618
   40MOL   C26313601   7.914   1.162   2.179 -0.0739 -0.5028 -0.6487
   40MOL   C26413602   0.010   1.190   2.201 -0.4053 -0.4613  0.5195
   40MOL   C26513603   0.323   1.098   2.219 -0.2723 -0.3296 -0.8660
   40MOL   H26613604   0.242   1.299   2.204  0.4876  0.3415 -0.3540
   40MOL   H26713605   0.134   1.120   1.889 -0.0758 -1.9781  0.2865
   40MOL   H26813606   7.955   1.086   1.843  0.0630  0.1025 -0.3959
   40MOL   H26913607   7.732   1.127   1.924 -0.2791  1.2995  0.7914
   40MOL   H27013608   7.846   1.160   2.263  0.4913  2.1293 -0.0558
   40MOL   H27113609   0.040   1.223   2.299 -1.4906 -1.0029  1.0393
   40MOL   H27213610   0.309   1.006   2.164  0.5045 -0.2640 -1.1823
   40MOL   H27313611   0.276   1.105   2.317  0.6747 -0.2469 -0.4161
   40MOL   C27413612   0.473   1.104   2.267 -0.7781  0.5245  0.1518
   40MOL   C27513613   0.519   0.973   2.332  0.0651  0.0036  0.1845
   40MOL   C27613614   0.656   0.946   2.343 -0.2389 -0.9570  0.0716
   40MOL   C27713615   0.696   0.818   2.393 -0.8224  0.5007 -0.1998
   40MOL   C27813616   0.608   0.718   2.432 -0.0642 -0.0599  0.1869
   40MOL   O27913617   0.638   0.593   2.457  0.4294 -0.1865 -0.2274
   40MOL   C28013618   0.473   0.749   2.419 -0.2702 -0.2765  0.0050
   40MOL   C28113619   0.427   0.870   2.363 -0.6526  0.9745 -0.4546
   40MOL   C28213620   0.517   1.231   2.338  0.3027  0.0058 -0.4106
   40MOL   H28313621   0.530   1.104   2.174  0.5139 -1.5594  0.8987
   40MOL   H28413622   0.723   1.020   2.303 -1.7810  0.2458 -0.3553
   40MOL   H28513623   0.803   0.804   2.404 -0.9838  1.3670  2.9717
   40MOL   H28613624   0.718   0.581   2.507  1.9343 -0.7262 -2.7134
   40MOL   H28713625   0.399   0.673   2.437  0.8863 -1.4654 -0.2164
   40MOL   H28813626   0.320   0.884   2.351 -0.4952  0.4332 -2.6351
   40MOL   H28913627   0.610   1.260   2.290  0.5125 -0.6942 -0.4332
   40MOL   H29013628   0.443   1.306   2.312  1.8850  1.7109 -0.0748
   40MOL   C29113629   0.540   1.229   2.494  0.1357  0.1740  0.4989
   40MOL   C29213630   0.409   1.187   2.557  0.5026 -0.1099 -0.0652
   40MOL   C29313631   0.301   1.283   2.580  0.4350 -0.5769  0.1703
   40MOL   C29413632   0.186   1.251   2.653  0.1484 -0.6000  1.1237
   40MOL   C29513633   0.181   1.114   2.704 -0.2447 -0.5420  0.2248
   40MOL   O29613634   0.065   1.076   2.771 -0.7517 -0.1284 -0.1428
   40MOL   C29713635   0.289   1.023   2.688  0.4260 -0.2621  0.1458
   40MOL   C29813636   0.403   1.064   2.624  0.1543  0.6227  0.0365
   40MOL   C29913637   0.590   1.368   2.544 -0.2742  0.2741  0.3588
   40MOL   H30013638   0.623   1.160   2.511  0.2328  0.6409  2.0133
   40MOL   H30113639   0.313   1.387   2.556  0.6829 -0.9964 -1.6164
   40MOL   H30213640   0.111   1.328   2.668  0.8686  0.3721 -0.1793
   40MOL   H30313641   0.002   1.142   2.796 -0.0989  0.3338  0.2590
   40MOL   H30413642   0.291   0.926   2.735 -0.8012  0.0159  0.7819
   40MOL   H30513643   0.483   0.991   2.620  0.2196  0.5442  1.9448
   40MOL   H30613644   0.578   1.366   2.653  1.3052 -0.7782  0.5270
   40MOL   H30713645   0.531   1.448   2.500 -0.7757 -0.4798 -0.3514
   40MOL   C30813646   0.733   1.431   2.514  0.4616  0.9131 -0.2018
   40MOL   C30913647   0.852   1.329   2.514 -0.0883  0.5918 -0.2780
   40MOL   C31013648   0.939   1.338   2.404  0.6349 -0.1080  0.0916
   40MOL   C31113649   1.011   1.226   2.371 -0.9950  0.4001  0.0966
   40MOL   C31213650   1.018   1.110   2.451 -0.0582  0.6752  0.7924
   40MOL   O31313651   1.080   0.999   2.410 -0.6839  0.1390 -0.0397
   40MOL   C31413652   0.946   1.113   2.575 -0.6035  0.4438  0.5754
   40MOL   C31513653   0.857   1.212   2.600  1.2689  0.0140  0.0731
   40MOL   C31613654   0.753   1.550   2.620  0.4634 -0.2818  0.0557
   40MOL   H31713655   0.719   1.470   2.413 -1.3662  1.2024  0.1334
   40MOL   H31813656   0.931   1.420   2.334 -0.4648  1.3595  1.9225
   40MOL   H31913657   1.063   1.235   2.277  2.2330  1.1841  1.8788
   40MOL   H32013658   1.081   0.933   2.478  2.1663  1.4863  1.3267
   40MOL   H32113659   0.954   1.031   2.645 -3.3151  0.6393  1.1557
   40MOL   H32213660   0.800   1.212   2.691 -1.8382 -2.5508 -1.7376
   40MOL   H32313661   0.794   1.505   2.711 -0.6854 -0.9120  0.2681
   40MOL   H32413662   0.658   1.591   2.653  1.2407  1.4198  0.2419
   40MOL   C32513663   0.837   1.674   2.572 -0.9183  0.3040 -0.1392
   40MOL   C32613664   0.926   1.733   2.686  0.5082 -0.0102 -0.1063
   40MOL   C32713665   0.878   1.849   2.757 -0.2929  0.2731  0.1561
   40MOL   C32813666   0.949   1.899   2.861  0.4154  0.1616 -0.5231
   40MOL   C32913667   1.078   1.850   2.890  0.3929  0.2938  0.2701
   40MOL   O33013668   1.148   1.912   2.989  0.0494  0.2212 -0.0658
   40MOL   C33113669   1.130   1.747   2.817 -0.6374  0.1507  0.6098
   40MOL   C33213670   1.059   1.692   2.711 -0.8063 -0.1332 -0.8513
   40MOL   C33313671   0.761   1.773   2.487 -0.7087 -0.2590  0.5165
   40MOL   H33413672   0.913   1.634   2.504 -0.3841 -0.1501  0.7094
   40MOL   H33513673   0.780   1.889   2.737  0.2420  0.7288 -1.6270
   40MOL   H33613674   0.902   1.978   2.918  0.3380  1.8285 -2.7995
   40MOL   H33713675   1.140   2.006   2.987 -1.7668  0.1222  1.3653
   40MOL   H33813676   1.232   1.718   2.837 -0.2101 -0.6532 -2.6091
   40MOL   H33913677   1.104   1.611   2.657 -0.9062 -1.0799  0.4676
   40MOL   H34013678   0.671   1.804   2.539 -2.8375 -3.1119 -1.3247
   40MOL   H34113679   0.726   1.730   2.394  0.2505 -0.9095  0.4475
   40MOL   H34213680   0.814   1.867   2.466  4.3039 -2.9483  0.2740
   41MOL     C113681   4.858   3.791   3.392 -0.5893 -0.1269 -0.2496
   41MOL     C213682   4.950   3.689   3.332  0.0410  0.1605  0.0389
   41MOL     C313683   4.902   3.559   3.305 -1.0250 -0.9349  0.0365
   41MOL     C413684   4.972   3.458   3.246 -0.6444  0.1143  0.6609
   41MOL     C513685   5.110   3.487   3.215 -0.6783  0.1348 -0.2786
   41MOL     O613686   5.175   3.388   3.148 -0.1051 -0.2626  0.0020
   41MOL     C713687   5.152   3.626   3.219  0.0708  0.2095 -0.2257
   41MOL     C813688   5.076   3.725   3.292 -0.1089  0.3853 -0.2124
   41MOL     C913689   4.902   3.831   3.536  0.9323 -0.2907 -0.0042
   41MOL    H1013690   4.856   3.884   3.337  0.1194 -0.6967 -1.2474
   41MOL    H1113691   4.796   3.544   3.320 -1.5778  1.6790 -0.9131
   41MOL    H1213692   4.935   3.360   3.220  1.6076 -1.2024  2.2057
   41MOL    H1313693   5.242   3.363   3.210  0.1874 -1.9217 -0.9372
   41MOL    H1413694   5.250   3.652   3.182 -0.0873  0.3929 -0.5181
   41MOL    H1513695   5.111   3.827   3.295  0.0442  0.3570 -0.9733
   41MOL    H1613696   4.982   3.905   3.523 -0.0999  0.8334 -0.0676
   41MOL    H1713697   4.941   3.752   3.600  2.4201  0.4559  0.0463
   41MOL    H1813698   4.760   3.743   3.396 -1.3611  1.0732 -3.3718
   41MOL    C1913699   4.789   3.898   3.605 -0.0082  0.1695 -0.6247
   41MOL    C2013700   4.721   4.010   3.526 -0.1225  0.4995  0.2494
   41MOL    C2113701   4.792   4.119   3.465 -0.2415  0.1184  0.5577
   41MOL    C2213702   4.721   4.210   3.378 -0.8345  0.0399 -0.1100
   41MOL    C2313703   4.584   4.200   3.360 -0.2604  0.4670 -0.0153
   41MOL    O2413704   4.522   4.287   3.277 -0.2403  0.0071 -0.5376
   41MOL    C2513705   4.517   4.095   3.430 -0.2220 -0.3429  0.4043
   41MOL    C2613706   4.583   4.002   3.504 -0.2149 -0.4420 -0.5061
   41MOL    C2713707   4.841   3.970   3.738  0.6818  0.7220 -0.1551
   41MOL    H2813708   4.713   3.824   3.630  2.0673 -1.5187  0.8978
   41MOL    H2913709   4.899   4.125   3.479  0.2322 -2.2808 -1.6900
   41MOL    H3013710   4.786   4.281   3.330 -1.4533  1.5917  1.2970
   41MOL    H3113711   4.427   4.288   3.279 -0.2688  1.0341 -1.6801
   41MOL    H3213712   4.410   4.086   3.416  0.1026 -1.1898 -1.6485
   41MOL    H3313713   4.526   3.916   3.536  0.3044  0.2084  2.2247
   41MOL    H3413714   4.767   4.036   3.781 -0.2153  0.0778 -0.6805
   41MOL    H3513715   4.926   4.037   3.725  0.3323  1.0224 -0.9386
   41MOL    C3613716   4.901   3.863   3.838  0.5316 -0.1801 -0.0836
   41MOL    C3713717   4.815   3.743   3.855 -0.0010 -0.3755 -0.4082
   41MOL    C3813718   4.679   3.767   3.895  0.5869  0.8813 -1.4734
   41MOL    C3913719   4.597   3.654   3.914 -0.0026 -0.1942  0.6491
   41MOL    C4013720   4.636   3.522   3.879  0.0185  0.1236 -0.0168
   41MOL    O4113721   4.538   3.426   3.874  0.5016  0.5137  0.1851
   41MOL    C4213722   4.765   3.499   3.826  0.1020 -0.0918 -0.3229
   41MOL    C4313723   4.853   3.614   3.818  0.1467 -0.9661  0.3338
   41MOL    C4413724   4.940   3.934   3.968  0.5380  0.1878  0.0313
   41MOL    H4513725   4.994   3.821   3.798  0.8419  2.3608 -2.2000
   41MOL    H4613726   4.637   3.864   3.916  0.7717  0.7509 -0.5065
   41MOL    H4713727   4.495   3.679   3.936 -0.3038 -1.8896  1.2964
   41MOL    H4813728   4.575   3.339   3.868 -0.8537  0.0459 -1.8632
   41MOL    H4913729   4.802   3.399   3.811 -2.7903 -1.1231 -1.0229
   41MOL    H5013730   4.956   3.599   3.788  0.6506  0.2324  1.4219
   41MOL    H5113731   4.960   4.042   3.964 -0.1104  0.2314 -2.4993
   41MOL    H5213732   4.850   3.951   4.028 -1.3647  1.8482 -3.1881
   41MOL    C5313733   5.052   3.867   4.043 -0.9740 -0.4259 -0.6274
   41MOL    C5413734   5.178   3.832   3.966 -0.1669 -0.3227  0.1234
   41MOL    C5513735   5.238   3.936   3.881  0.3184  0.7003  0.1236
   41MOL    C5613736   5.343   3.905   3.800 -0.1325  0.0220  0.0106
   41MOL    C5713737   5.410   3.784   3.813 -0.3434 -0.1253 -0.4376
   41MOL    O5813738   5.524   3.764   3.749 -0.1718  0.1869  0.0218
   41MOL    C5913739   5.349   3.679   3.891  0.2982 -0.1550  0.1893
   41MOL    C6013740   5.230   3.699   3.963  0.5862  0.1364 -0.8847
   41MOL    C6113741   5.081   3.948   4.176 -0.3849 -0.0308  0.4939
   41MOL    H6213742   4.989   3.781   4.067 -0.2512 -1.1548 -1.2820
   41MOL    H6313743   5.182   4.028   3.877 -1.5071 -0.3531  0.5343
   41MOL    H6413744   5.384   3.979   3.733  0.7534 -1.8958 -1.5676
   41MOL    H6513745   5.533   3.676   3.717 -2.4429 -0.7886  1.9629
   41MOL    H6613746   5.403   3.587   3.876  1.8656  0.7057  0.3502
   41MOL    H6713747   5.179   3.619   4.015 -1.8020  1.7253 -0.6893
   41MOL    H6813748   5.000   4.004   4.224 -1.0168 -1.4660  1.1228
   41MOL    H6913749   5.155   4.023   4.148  0.7484 -1.6422 -0.9121
   41MOL    C7013750   5.128   3.848   4.284  0.4270  0.4263  0.1140
   41MOL    C7113751   5.025   3.749   4.333  0.0801 -0.2257  0.2153
   41MOL    C7213752   5.076   3.625   4.370 -0.0425  0.3653 -1.1710
   41MOL    C7313753   4.985   3.529   4.418  0.0324  0.2396  0.2064
   41MOL    C7413754   4.846   3.556   4.417 -0.1867 -0.7099 -0.0166
   41MOL    O7513755   4.760   3.464   4.467 -0.3131 -0.6103  0.5352
   41MOL    C7613756   4.798   3.682   4.372  0.0593 -0.4162  0.0430
   41MOL    C7713757   4.887   3.776   4.329  0.4446 -0.4482  0.0274
   41MOL    C7813758   5.202   3.916   4.399  0.5108 -0.3748  0.2812
   41MOL    H7913759   5.205   3.788   4.236  0.1327  1.1544 -1.2911
   41MOL    H8013760   5.180   3.594   4.365  0.6859  2.8540 -2.1036
   41MOL    H8113761   5.024   3.439   4.464 -0.9734 -0.5244 -0.4063
   41MOL    H8213762   4.670   3.492   4.467 -0.2602 -0.4468  0.4238
   41MOL    H8313763   4.693   3.706   4.385  0.2444  0.3818  0.1414
   41MOL    H8413764   4.844   3.871   4.300 -3.0770 -2.3618 -1.3641
   41MOL    H8513765   5.222   3.845   4.479 -2.4273  0.1682  1.5422
   41MOL    H8613766   5.143   3.997   4.440  2.0683  1.1107 -0.3314
   41MOL    C8713767   5.339   3.982   4.361  0.2323 -0.0195 -0.1230
   41MOL    C8813768   5.439   3.936   4.464 -0.1725  0.8899 -0.5764
   41MOL    C8913769   5.406   3.949   4.603 -0.0445  0.1871  0.5478
   41MOL    C9013770   5.492   3.904   4.700 -0.0188  0.3419 -0.2465
   41MOL    C9113771   5.620   3.848   4.653  0.4355  0.3899  0.1086
   41MOL    O9213772   5.697   3.784   4.748 -0.1259  0.3065 -0.5943
   41MOL    C9313773   5.652   3.838   4.516 -0.0203  0.4589 -0.7326
   41MOL    C9413774   5.562   3.886   4.420 -0.5670 -0.3259  0.0949
   41MOL    C9513775   5.337   4.132   4.340  0.2706 -0.3400  0.3578
   41MOL    H9613776   5.383   3.944   4.269  0.1526 -0.6664  0.1061
   41MOL    H9713777   5.311   3.994   4.626 -0.5087 -1.4632  1.9473
   41MOL    H9813778   5.465   3.906   4.804 -0.1934 -1.1637 -0.2432
   41MOL    H9913779   5.653   3.763   4.828 -1.2187 -1.6561 -1.6594
   41MOL   H10013780   5.747   3.799   4.484 -0.1452  1.9532 -3.1118
   41MOL   H10113781   5.593   3.877   4.317  0.3916  1.8560  0.1634
   41MOL   H10213782   5.263   4.155   4.264  1.2191  0.2370 -0.4076
   41MOL   H10313783   5.292   4.190   4.420  0.2647  2.0259 -1.3048
   41MOL   C10413784   5.463   4.213   4.298  0.0836 -0.4480 -0.2248
   41MOL   C10513785   5.483   4.341   4.378 -0.3709 -0.0234  0.2334
   41MOL   C10613786   5.598   4.368   4.462  0.1849 -0.1355 -0.6545
   41MOL   C10713787   5.609   4.495   4.525 -0.5957  0.0200  0.1937
   41MOL   C10813788   5.510   4.598   4.511 -0.6081  1.3686  0.5555
   41MOL   O10913789   5.536   4.722   4.550 -0.3267 -0.4057 -0.3909
   41MOL   C11013790   5.403   4.573   4.432 -0.3433 -0.4605  0.3321
   41MOL   C11113791   5.385   4.446   4.365  0.0461  0.1369 -0.3621
   41MOL   C11213792   5.468   4.247   4.148  0.5609 -0.0427  0.4100
   41MOL   H11313793   5.550   4.152   4.321 -0.6171 -1.2380  0.3382
   41MOL   H11413794   5.669   4.291   4.487 -0.7893 -0.0369  2.5534
   41MOL   H11513795   5.696   4.529   4.581  1.2972 -2.9448 -0.8108
   41MOL   H11613796   5.460   4.769   4.579 -0.4065  0.9798 -2.7133
   41MOL   H11713797   5.319   4.641   4.428 -1.0836 -1.4321 -1.5320
   41MOL   H11813798   5.293   4.422   4.315 -1.0871  2.3750  0.6116
   41MOL   H11913799   5.467   4.355   4.141  0.5114 -0.2153 -3.0344
   41MOL   H12013800   5.379   4.220   4.091  1.0137  1.3297 -0.9854
   41MOL   C12113801   5.589   4.195   4.067 -0.5826 -0.2522 -1.1737
   41MOL   C12213802   5.587   4.245   3.925 -0.7754  0.2214 -0.0128
   41MOL   C12313803   5.609   4.384   3.893 -0.0008 -0.0861 -0.0524
   41MOL   C12413804   5.631   4.421   3.760 -0.8460  0.0248  0.2184
   41MOL   C12513805   5.643   4.317   3.662  0.1549  0.1431  0.3753
   41MOL   O12613806   5.683   4.361   3.542  0.3365 -0.0196 -0.5867
   41MOL   C12713807   5.624   4.184   3.690 -0.5008  0.4154 -0.7657
   41MOL   C12813808   5.594   4.145   3.821 -0.9448  0.2733  0.1252
   41MOL   C12913809   5.728   4.234   4.133 -0.3410  0.5357 -0.9320
   41MOL   H13013810   5.591   4.086   4.055  2.0782 -0.3887  0.0017
   41MOL   H13113811   5.600   4.461   3.969 -0.2556 -0.5309  0.3700
   41MOL   H13213812   5.650   4.525   3.737 -2.8221  0.0639 -1.3361
   41MOL   H13313813   5.734   4.295   3.497 -1.1138 -0.8260 -1.0724
   41MOL   H13413814   5.633   4.115   3.607 -0.4126  1.3936 -1.5788
   41MOL   H13513815   5.599   4.039   3.842  1.0079  0.4697  0.7204
   41MOL   H13613816   5.715   4.300   4.218 -0.3682  0.1636 -0.6495
   41MOL   H13713817   5.785   4.311   4.080  0.5434 -0.8592 -2.0344
   41MOL   C13813818   5.826   4.109   4.172 -0.8112 -0.4399 -0.0833
   41MOL   C13913819   5.951   4.173   4.236 -0.5175 -0.1864 -0.1462
   41MOL   C14013820   5.953   4.176   4.376  0.0829  0.7055  0.0596
   41MOL   C14113821   6.068   4.222   4.446  0.8114 -0.5718  0.0910
   41MOL   C14213822   6.176   4.267   4.371  0.1090  0.1392 -0.1924
   41MOL   O14313823   6.284   4.320   4.437  0.1678 -0.3388 -0.0722
   41MOL   C14413824   6.177   4.253   4.228 -0.1588 -0.3378 -0.5745
   41MOL   C14513825   6.062   4.223   4.155  0.9494  0.6869 -0.6094
   41MOL   C14613826   5.865   4.001   4.058 -0.4692 -0.7722  0.0277
   41MOL   H14713827   5.771   4.059   4.252 -0.0899  1.1857  1.4487
   41MOL   H14813828   5.875   4.133   4.437 -0.2975  1.6854  0.2775
   41MOL   H14913829   6.070   4.215   4.553 -1.0315 -0.2156  0.1716
   41MOL   H15013830   6.254   4.350   4.521 -3.2110 -2.1372 -0.5264
   41MOL   H15113831   6.268   4.279   4.176  0.1466 -2.2444 -1.0469
   41MOL   H15213832   6.057   4.220   4.048 -0.9613 -0.5490 -0.5049
   41MOL   H15313833   5.890   4.059   3.969 -2.2672 -0.3068 -0.1909
   41MOL   H15413834   5.783   3.936   4.026 -0.7517 -0.7175  0.6293
   41MOL   C15513835   5.991   3.911   4.084  0.1632 -0.4634  0.5398
   41MOL   C15613836   6.045   3.857   3.956  0.4807  0.4367 -0.3015
   41MOL   C15713837   5.972   3.770   3.867  0.1751 -0.4882  0.0563
   41MOL   C15813838   6.041   3.701   3.761 -0.1199  0.4509 -0.1004
   41MOL   C15913839   6.177   3.714   3.741  0.7760 -0.4934  0.0298
   41MOL   O16013840   6.249   3.649   3.642  0.3341  0.0944  0.3652
   41MOL   C16113841   6.246   3.805   3.825  0.7093  0.4389  0.7243
   41MOL   C16213842   6.183   3.869   3.930 -0.5197 -0.1369  0.5159
   41MOL   C16313843   5.963   3.795   4.195  0.1064  0.2066 -0.0042
   41MOL   H16413844   6.065   3.975   4.131 -0.7568  1.5971 -0.7054
   41MOL   H16513845   5.867   3.749   3.882  0.8369 -4.0498  0.0071
   41MOL   H16613846   5.978   3.629   3.710 -1.1504  0.5848  0.9625
   41MOL   H16713847   6.207   3.566   3.625 -1.1813  0.1323  3.4894
   41MOL   H16813848   6.354   3.803   3.815  0.7904 -0.7420  1.6973
   41MOL   H16913849   6.242   3.930   3.996  0.2953  0.3004 -0.5952
   41MOL   H17013850   5.923   3.711   4.138  1.9736 -1.0803  0.5426
   41MOL   H17113851   5.881   3.822   4.262 -0.0012 -0.8329  0.2945
   41MOL   C17213852   6.094   3.751   4.273  0.2281  0.2131  0.0778
   41MOL   C17313853   6.072   3.622   4.359 -0.2784 -0.2099 -0.5407
   41MOL   C17413854   6.106   3.493   4.309 -0.4531  0.6875 -0.1794
   41MOL   C17513855   6.080   3.374   4.384 -0.8454 -0.5909 -0.2106
   41MOL   C17613856   6.021   3.384   4.509  0.1311 -0.7282  0.2267
   41MOL   O17713857   5.982   3.266   4.570 -0.5913  0.0024 -0.0207
   41MOL   C17813858   6.006   3.509   4.567 -0.2564 -0.4367 -0.4057
   41MOL   C17913859   6.032   3.630   4.496 -0.2076 -0.3476  0.0843
   41MOL   C18013860   6.152   3.875   4.357 -0.5948 -0.2438  0.1120
   41MOL   H18113861   6.159   3.715   4.194  1.6806 -0.6122  1.6260
   41MOL   H18213862   6.136   3.488   4.206 -1.7941 -0.7512 -0.5305
   41MOL   H18313863   6.116   3.282   4.339  0.3431 -0.6466  0.8151
   41MOL   H18413864   5.990   3.193   4.511 -0.5462 -0.8477  1.0110
   41MOL   H18513865   5.962   3.525   4.664  0.9538 -0.0169  0.0839
   41MOL   H18613866   6.017   3.729   4.537 -0.8852 -0.2644 -0.3619
   41MOL   H18713867   6.071   3.899   4.425 -1.1435 -1.8441  0.0331
   41MOL   H18813868   6.177   3.956   4.287  0.7037 -0.4805  0.2791
   41MOL   C18913869   6.280   3.843   4.434  0.2387  0.0864  0.5298
   41MOL   C19013870   6.403   3.874   4.349 -0.3356  0.3487  0.7531
   41MOL   C19113871   6.443   4.001   4.305  0.3220 -0.0099 -0.4127
   41MOL   C19213872   6.570   4.018   4.243 -0.9167 -0.1247  0.3602
   41MOL   C19313873   6.655   3.905   4.221  0.2317 -0.4589 -0.0404
   41MOL   O19413874   6.779   3.923   4.170 -0.7560  0.0184  0.1509
   41MOL   C19513875   6.612   3.776   4.257 -0.5025  0.2598  0.4171
   41MOL   C19613876   6.487   3.762   4.324  0.0511 -0.2736  0.6658
   41MOL   C19713877   6.288   3.928   4.563 -0.0471 -0.1579 -0.2131
   41MOL   H19813878   6.275   3.738   4.465 -2.1301  0.0014 -0.0514
   41MOL   H19913879   6.381   4.088   4.321  0.7159 -0.1537  2.0456
   41MOL   H20013880   6.599   4.120   4.225 -0.3162 -0.9188 -3.7716
   41MOL   H20113881   6.794   4.011   4.140 -0.9028 -0.2080 -0.6044
   41MOL   H20213882   6.674   3.689   4.239 -1.6147 -0.8160  1.6054
   41MOL   H20313883   6.452   3.664   4.353  0.1719 -0.3469  0.5641
   41MOL   H20413884   6.188   3.926   4.605 -0.1091  0.7876 -0.3059
   41MOL   H20513885   6.304   4.035   4.548 -1.5669 -0.1564 -1.9598
   41MOL   C20613886   6.390   3.882   4.665 -0.6499 -0.3716  0.3627
   41MOL   C20713887   6.368   3.745   4.722 -0.4292  0.2362  0.0347
   41MOL   C20813888   6.255   3.713   4.803 -0.4641  0.4459 -0.1535
   41MOL   C20913889   6.249   3.581   4.857  0.3491 -0.2613 -0.9164
   41MOL   C21013890   6.339   3.478   4.828  0.4486 -0.5332  0.8302
   41MOL   O21113891   6.334   3.354   4.885 -0.0647 -0.4977  0.1328
   41MOL   C21213892   6.451   3.518   4.750  0.8165  0.6513 -0.7471
   41MOL   C21313893   6.456   3.641   4.688 -0.1385  0.2854  0.4110
   41MOL   C21413894   6.405   3.985   4.782 -1.3868  0.3044 -0.1862
   41MOL   H21513895   6.488   3.873   4.617 -1.0270 -0.1627 -0.4476
   41MOL   H21613896   6.192   3.794   4.837 -0.4978  0.6614 -0.7254
   41MOL   H21713897   6.167   3.563   4.926 -0.9283 -4.7543 -3.4130
   41MOL   H21813898   6.243   3.336   4.905 -0.1265  1.3349  1.6275
   41MOL   H21913899   6.529   3.446   4.732  1.6313  0.6376  2.5005
   41MOL   H22013900   6.537   3.651   4.617 -0.8424  2.0773 -0.1567
   41MOL   H22113901   6.397   3.941   4.882  0.8315  0.4672  0.0768
   41MOL   H22213902   6.318   4.050   4.770 -1.0014  0.7427 -0.6222
   41MOL   C22313903   6.540   4.065   4.770  0.3293 -0.6346 -0.1445
   41MOL   C22413904   6.655   3.964   4.779 -0.1069  0.0291 -0.1689
   41MOL   C22513905   6.678   3.888   4.894 -0.4385 -0.5824  1.1858
   41MOL   C22613906   6.786   3.798   4.884 -0.3776 -0.1199 -0.3769
   41MOL   C22713907   6.865   3.774   4.770 -0.0754 -0.0625  0.1995
   41MOL   O22813908   6.962   3.683   4.770  0.1913 -0.1792 -0.3463
   41MOL   C22913909   6.844   3.856   4.660 -0.0820  0.5561 -0.1166
   41MOL   C23013910   6.736   3.945   4.661  0.6613 -0.0774 -0.3646
   41MOL   C23113911   6.555   4.188   4.869 -0.4137  0.4090 -0.2569
   41MOL   H23213912   6.536   4.096   4.666 -1.2855  1.1765  0.4271
   41MOL   H23313913   6.622   3.900   4.986 -1.6173 -0.0525  0.4095
   41MOL   H23413914   6.796   3.747   4.978 -1.6513  0.8691  0.3259
   41MOL   H23513915   6.926   3.606   4.813  2.4625 -0.4300  1.2051
   41MOL   H23613916   6.911   3.847   4.575 -1.3572 -2.1840 -0.8924
   41MOL   H23713917   6.730   4.007   4.573 -0.9100  1.5185  0.8228
   41MOL   H23813918   6.458   4.235   4.884 -0.3149  0.1541  1.3503
   41MOL   H23913919   6.575   4.144   4.967 -0.5292 -2.1043 -1.3486
   41MOL   C24013920   6.657   4.300   4.835 -0.2306  0.1963 -0.5218
   41MOL   C24113921   6.643   4.399   4.944  0.4301  0.1629 -0.2507
   41MOL   C24213922   6.558   4.511   4.926 -0.3923  0.2524  0.4509
   41MOL   C24313923   6.553   4.611   5.026 -0.2218  0.1539  0.0367
   41MOL   C24413924   6.618   4.592   5.146 -0.0029 -0.1503 -0.7764
   41MOL   O24513925   6.600   4.690   5.236  0.0205  0.0022  0.3903
   41MOL   C24613926   6.698   4.480   5.170 -0.0030 -0.9546 -0.1789
   41MOL   C24713927   6.711   4.379   5.065 -0.8413  0.0568 -0.1428
   41MOL   C24813928   6.803   4.251   4.810 -0.3182  0.4392  0.3902
   41MOL   H24913929   6.617   4.352   4.748  0.4557  0.5543 -0.6265
   41MOL   H25013930   6.503   4.527   4.834  1.4925  1.9159 -0.4133
   41MOL   H25113931   6.501   4.704   5.010  0.3605  0.2521 -1.3899
   41MOL   H25213932   6.566   4.656   5.318 -0.6200  1.2080  0.6421
   41MOL   H25313933   6.750   4.478   5.264 -1.5033 -0.2146  0.6905
   41MOL   H25413934   6.773   4.295   5.095 -0.0705  1.4913  2.5327
   41MOL   H25513935   6.836   4.173   4.878 -0.7393 -0.4871 -0.4547
   41MOL   H25613936   6.804   4.208   4.710  0.2454  2.0858 -0.3385
   41MOL   C25713937   6.916   4.358   4.809  0.3595 -0.2510 -0.6102
   41MOL   C25813938   7.046   4.281   4.785 -0.0082  0.7859 -0.4141
   41MOL   C25913939   7.148   4.299   4.883 -0.4587  0.2198  0.3577
   41MOL   C26013940   7.269   4.233   4.860  0.1957 -0.4909 -0.0104
   41MOL   C26113941   7.288   4.163   4.738  0.0010 -0.3086 -0.6364
   41MOL   O26213942   7.407   4.103   4.726  0.0548 -0.2929 -0.6633
   41MOL   C26313943   7.185   4.146   4.645  0.5598 -0.1930 -0.6736
   41MOL   C26413944   7.066   4.213   4.663  0.2688 -0.5374 -0.0180
   41MOL   C26513945   6.892   4.470   4.711  0.0942  0.4720 -1.2244
   41MOL   H26613946   6.922   4.407   4.905  0.4161  1.5701 -1.5222
   41MOL   H26713947   7.138   4.359   4.972 -1.5807 -1.9205  1.7213
   41MOL   H26813948   7.356   4.249   4.922 -0.8712  0.2526  1.3388
   41MOL   H26913949   7.404   4.024   4.674  1.3221 -1.1839  0.5819
   41MOL   H27013950   7.211   4.089   4.557  2.4933 -0.4782  0.0553
   41MOL   H27113951   6.988   4.217   4.588  1.8602  0.4161 -1.6844
   41MOL   H27213952   6.800   4.518   4.745  0.3245 -0.1408  0.3032
   41MOL   H27313953   6.863   4.436   4.611  1.1169 -2.2371 -0.6503
   41MOL   C27413954   7.016   4.573   4.716 -0.0784 -0.0107  0.1450
   41MOL   C27513955   7.044   4.623   4.861 -0.2635  0.2016 -0.8140
   41MOL   C27613956   7.177   4.626   4.917  0.4484  0.3843  0.6140
   41MOL   C27713957   7.204   4.690   5.036 -0.2333 -0.5776 -0.4530
   41MOL   C27813958   7.099   4.749   5.110  0.1460  0.5331 -0.5967
   41MOL   O27913959   7.124   4.811   5.229 -0.2164  0.3789  0.5537
   41MOL   C28013960   6.971   4.739   5.065 -0.5861 -0.3076  0.3201
   41MOL   C28113961   6.943   4.677   4.940 -0.2401  0.4411 -0.1206
   41MOL   C28213962   6.997   4.692   4.627  0.3494 -0.7404  0.1925
   41MOL   H28313963   7.098   4.515   4.674 -0.2431  0.4410 -0.7888
   41MOL   H28413964   7.256   4.579   4.860  0.0917 -0.2586  0.6383
   41MOL   H28513965   7.303   4.697   5.078 -0.7756 -0.9493  0.9348
   41MOL   H28613966   7.046   4.853   5.263  0.4711 -0.1715  2.8904
   41MOL   H28713967   6.893   4.783   5.126 -0.3739 -0.3008  0.5846
   41MOL   H28813968   6.841   4.670   4.906 -0.7420 -2.1630  1.7721
   41MOL   H28913969   7.082   4.754   4.656  0.9441 -1.6999  0.5452
   41MOL   H29013970   7.031   4.653   4.531 -1.5536  1.7488 -1.5511
   41MOL   C29113971   6.858   4.763   4.614  0.4803 -0.4359  0.0696
   41MOL   C29213972   6.753   4.686   4.525 -0.9348 -0.4907  0.1487
   41MOL   C29313973   6.779   4.634   4.401 -0.3597 -0.0641  0.3203
   41MOL   C29413974   6.694   4.550   4.333 -0.1056  0.1543 -0.1158
   41MOL   C29513975   6.568   4.525   4.388 -0.0112  0.2855  0.3138
   41MOL   O29613976   6.483   4.437   4.322 -0.2661  0.0503 -0.5341
   41MOL   C29713977   6.529   4.589   4.507 -0.4511 -1.2192 -0.0935
   41MOL   C29813978   6.626   4.666   4.581  0.1444 -0.0662 -0.2064
   41MOL   C29913979   6.877   4.909   4.565  0.4451  0.4381  0.3427
   41MOL   H30013980   6.824   4.772   4.718  0.5386 -2.5876  0.3015
   41MOL   H30113981   6.880   4.648   4.364  0.2702  1.7745  2.6079
   41MOL   H30213982   6.725   4.508   4.238  0.6321  0.7859 -0.1663
   41MOL   H30313983   6.412   4.405   4.375 -0.9164 -2.2957 -2.7198
   41MOL   H30413984   6.441   4.556   4.561 -0.2277 -0.5026  0.7165
   41MOL   H30513985   6.591   4.692   4.680 -0.9925 -0.8225 -0.4054
   41MOL   H30613986   6.853   4.913   4.459  0.7749  0.4254  0.2683
   41MOL   H30713987   6.979   4.940   4.586  0.4459  0.0530  0.9230
   41MOL   C30813988   6.779   5.006   4.633 -0.1705 -0.4268  0.5140
   41MOL   C30913989   6.767   5.135   4.553  0.2119  0.3739  0.2491
   41MOL   C31013990   6.641   5.177   4.511  0.4337 -0.0427  0.3991
   41MOL   C31113991   6.628   5.295   4.430  0.2686  0.3514  0.6802
   41MOL   C31213992   6.740   5.364   4.383 -0.1668 -0.0464  0.3475
   41MOL   O31313993   6.733   5.476   4.303  0.1069  0.3633 -0.3522
   41MOL   C31413994   6.869   5.316   4.413 -0.2512 -0.1598 -1.1335
   41MOL   C31513995   6.883   5.206   4.503  0.1685  0.0612 -0.1108
   41MOL   C31613996   6.824   5.035   4.782  0.3279  0.1473  0.5834
   41MOL   H31713997   6.687   4.949   4.644 -0.9423  0.4340 -1.3000
   41MOL   H31813998   6.555   5.123   4.548  0.2411  1.2234  1.8517
   41MOL   H31913999   6.530   5.324   4.394  0.3028  0.1819  0.4424
   41MOL   H32014000   6.646   5.513   4.298  0.7036  1.8764  0.0706
   41MOL   H32114001   6.960   5.364   4.379  0.5419 -0.4717  0.4852
   41MOL   H32214002   6.983   5.173   4.529 -0.0129  1.3783  2.4097
   41MOL   H32314003   6.913   5.098   4.782  0.8720 -0.6036  2.2741
   41MOL   H32414004   6.855   4.940   4.825  2.2582  0.1874 -0.6487
   41MOL   C32514005   6.725   5.091   4.881  0.1738  0.3725 -0.3962
   41MOL   C32614006   6.787   5.083   5.021 -0.2198 -0.3596  0.3650
   41MOL   C32714007   6.906   5.158   5.045 -0.0117  0.0140 -0.6736
   41MOL   C32814008   6.971   5.160   5.171  0.1875  0.0103 -0.0508
   41MOL   C32914009   6.917   5.074   5.272 -0.2198  0.2365  0.1888
   41MOL   O33014010   6.966   5.052   5.395 -0.2024  0.0377  0.5029
   41MOL   C33114011   6.799   5.004   5.244  0.5349 -0.4251 -0.3578
   41MOL   C33214012   6.732   5.008   5.126  0.0779  0.2941  0.1398
   41MOL   C33314013   6.587   5.023   4.873 -0.3283  1.0366 -0.4701
   41MOL   H33414014   6.698   5.196   4.873 -4.4515 -0.5626  1.0412
   41MOL   H33514015   6.962   5.216   4.973 -1.4025  1.4596 -0.6256
   41MOL   H33614016   7.061   5.216   5.192  1.0458 -1.6332  0.8126
   41MOL   H33714017   7.052   5.087   5.408  0.1149  0.1797 -1.7955
   41MOL   H33814018   6.752   4.941   5.319 -0.0190 -1.9609 -1.9645
   41MOL   H33914019   6.646   4.943   5.123 -0.7656  1.4401 -1.0053
   41MOL   H34014020   6.508   5.064   4.937 -0.0602  0.3190  0.3248
   41MOL   H34114021   6.598   4.917   4.893  1.8068  0.9504 -1.9643
   41MOL   H34214022   6.543   5.029   4.773 -0.9898  0.7847 -0.1966
   42MOL     C114023   3.638   5.521   2.610 -0.3857  0.1202 -0.9554
   42MOL     C214024   3.789   5.496   2.591  0.0559  0.3903 -0.1596
   42MOL     C314025   3.892   5.573   2.655 -0.4950 -0.0480  0.0263
   42MOL     C414026   4.026   5.535   2.649  0.2168 -0.5933  0.4497
   42MOL     C514027   4.064   5.414   2.588 -0.7260  0.1388 -0.0990
   42MOL     O614028   4.197   5.384   2.585  0.0609  0.4017 -0.2573
   42MOL     C714029   3.970   5.344   2.508 -0.7004 -0.2951  0.3026
   42MOL     C814030   3.834   5.380   2.511  0.2888  0.2485  0.2407
   42MOL     C914031   3.612   5.655   2.539 -0.0858 -0.9897  0.3539
   42MOL    H1014032   3.580   5.439   2.568  0.6686 -1.8456  1.3297
   42MOL    H1114033   3.876   5.671   2.698  1.9341  1.6219 -2.6730
   42MOL    H1214034   4.101   5.603   2.687 -1.7779  2.0426 -0.1228
   42MOL    H1314035   4.247   5.440   2.642  0.2726 -1.6331  1.6249
   42MOL    H1414036   3.992   5.257   2.449 -0.2079  0.6267 -0.9115
   42MOL    H1514037   3.763   5.324   2.452 -1.1062  3.2346 -1.0539
   42MOL    H1614038   3.643   5.647   2.435  0.0320  0.4987  0.2645
   42MOL    H1714039   3.673   5.733   2.584 -0.3329 -0.9150  0.5630
   42MOL    H1814040   3.611   5.522   2.715 -0.9432  0.8235 -1.1024
   42MOL    C1914041   3.465   5.698   2.539  0.2704  0.2058 -0.9967
   42MOL    C2014042   3.414   5.731   2.684 -0.3422  0.1980 -0.5054
   42MOL    C2114043   3.326   5.653   2.755  0.0782  0.1667  0.2810
   42MOL    C2214044   3.303   5.669   2.892  0.2384  0.0003 -0.3892
   42MOL    C2314045   3.379   5.765   2.961  0.1341 -0.3864 -0.0569
   42MOL    O2414046   3.355   5.782   3.092 -0.3610  0.2555  0.2937
   42MOL    C2514047   3.454   5.859   2.893  0.2087  0.4223 -0.5228
   42MOL    C2614048   3.475   5.840   2.753 -0.3218 -0.4550 -0.2789
   42MOL    C2714049   3.367   5.606   2.463  0.0637 -0.6938 -0.3364
   42MOL    H2814050   3.466   5.799   2.498  0.0656  0.6361  0.0490
   42MOL    H2914051   3.278   5.569   2.707  0.2299 -0.3974  1.1038
   42MOL    H3014052   3.243   5.595   2.942 -0.8715  2.7323  2.4966
   42MOL    H3114053   3.433   5.818   3.132  1.2076 -2.0847 -0.4893
   42MOL    H3214054   3.504   5.935   2.952 -0.2694 -0.2599  0.7765
   42MOL    H3314055   3.545   5.898   2.693 -1.4127 -1.0159 -2.1185
   42MOL    H3414056   3.266   5.648   2.466  1.3624  3.0824 -3.9398
   42MOL    H3514057   3.359   5.504   2.500  1.5351  0.1868  2.5215
   42MOL    C3614058   3.385   5.597   2.307 -0.4963 -0.0405  0.1758
   42MOL    C3714059   3.406   5.732   2.238  1.4311  0.6712 -0.2066
   42MOL    C3814060   3.534   5.776   2.195  0.1416 -0.1109 -0.7243
   42MOL    C3914061   3.546   5.884   2.114  0.1855 -0.3871 -0.2266
   42MOL    C4014062   3.433   5.961   2.082 -0.5779 -0.9525 -0.2571
   42MOL    O4114063   3.447   6.075   2.016  0.7037  0.4770  0.0184
   42MOL    C4214064   3.309   5.928   2.129  0.3032 -0.4358 -0.1818
   42MOL    C4314065   3.296   5.812   2.211  0.2699  0.2947 -0.3056
   42MOL    C4414066   3.264   5.515   2.259 -0.5697 -0.3888 -0.1097
   42MOL    H4514067   3.471   5.532   2.298 -2.1259 -2.3307  0.6201
   42MOL    H4614068   3.630   5.735   2.224  0.3994  0.4381 -0.8041
   42MOL    H4714069   3.642   5.911   2.072 -0.1252  3.3146  1.2253
   42MOL    H4814070   3.529   6.118   2.035  1.6710 -0.2790 -2.1711
   42MOL    H4914071   3.226   5.994   2.110  0.9808  0.3373 -0.5404
   42MOL    H5014072   3.194   5.777   2.223 -0.6144  2.9394  0.1691
   42MOL    H5114073   3.264   5.428   2.324 -0.4111  0.3895  0.9351
   42MOL    H5214074   3.165   5.561   2.264 -0.1138  0.6336 -0.2996
   42MOL    C5314075   3.262   5.461   2.111 -0.6060 -0.0347  0.4636
   42MOL    C5414076   3.121   5.466   2.055  0.0202  0.5386 -0.0895
   42MOL    C5514077   3.065   5.580   2.004 -0.9403  0.0921  0.2340
   42MOL    C5614078   2.937   5.584   1.951  0.1144  0.3549 -0.6404
   42MOL    C5714079   2.868   5.463   1.937  0.6646  0.1910 -0.3508
   42MOL    O5814080   2.748   5.460   1.871 -0.9262 -0.2748 -0.1015
   42MOL    C5914081   2.918   5.347   1.991 -0.8636  0.0620 -0.1560
   42MOL    C6014082   3.045   5.349   2.057  0.5680 -0.2899 -0.1024
   42MOL    C6114083   3.369   5.501   2.006  0.3193 -0.4844  0.6126
   42MOL    H6214084   3.283   5.355   2.127  3.0690  0.6207  0.4760
   42MOL    H6314085   3.120   5.673   2.009  1.0663 -0.9063 -2.2491
   42MOL    H6414086   2.909   5.680   1.910  1.7046  0.1618 -2.2234
   42MOL    H6514087   2.719   5.548   1.852  2.0639  0.9958  0.9197
   42MOL    H6614088   2.876   5.248   1.985  0.7816 -0.7097  0.7233
   42MOL    H6714089   3.091   5.261   2.098 -0.0007 -0.4184  0.2587
   42MOL    H6814090   3.463   5.459   2.044 -0.1815 -1.8276  0.3788
   42MOL    H6914091   3.386   5.609   2.010 -2.5037 -0.0280  1.5927
   42MOL    C7014092   3.359   5.453   1.856  0.4810 -0.2807  0.1521
   42MOL    C7114093   3.335   5.307   1.846  0.7557  0.2015  0.5832
   42MOL    C7214094   3.435   5.215   1.885 -0.8448 -0.8048  0.5371
   42MOL    C7314095   3.416   5.078   1.883 -0.4327  0.7016  0.0653
   42MOL    C7414096   3.306   5.026   1.811  0.5600 -0.3101  0.1086
   42MOL    O7514097   3.299   4.890   1.782  0.4054 -0.4612  0.0473
   42MOL    C7614098   3.197   5.115   1.773 -0.2973  0.7730  0.2878
   42MOL    C7714099   3.209   5.256   1.794  0.0032 -0.5741 -0.3748
   42MOL    C7814100   3.473   5.502   1.768 -0.3514 -0.8073  0.1905
   42MOL    H7914101   3.266   5.497   1.821 -0.0563 -1.9228 -0.5395
   42MOL    H8014102   3.526   5.255   1.926 -0.3606 -1.6591  0.3093
   42MOL    H8114103   3.490   5.012   1.925 -0.1894  1.8740  1.5049
   42MOL    H8214104   3.221   4.866   1.735  0.9116 -2.1789  0.0414
   42MOL    H8314105   3.105   5.071   1.738 -0.2995 -0.1286  1.3985
   42MOL    H8414106   3.121   5.314   1.770  0.2228  0.0284  0.2909
   42MOL    H8514107   3.489   5.432   1.686  0.5355 -1.8601  1.2413
   42MOL    H8614108   3.567   5.481   1.820  0.4122  1.3712 -0.2421
   42MOL    C8714109   3.469   5.646   1.723  0.6017 -0.0111  0.0576
   42MOL    C8814110   3.333   5.688   1.666 -0.1483  1.1362 -0.0190
   42MOL    C8914111   3.290   5.640   1.542  0.2340 -0.0243 -0.6568
   42MOL    C9014112   3.173   5.697   1.484 -0.3113  0.0141  0.0530
   42MOL    C9114113   3.110   5.805   1.549  0.4273  0.7456  0.0125
   42MOL    O9214114   3.017   5.881   1.481 -0.0752  0.3598  0.1836
   42MOL    C9314115   3.146   5.834   1.680 -0.6102  0.1194  0.0769
   42MOL    C9414116   3.262   5.781   1.737 -0.5014  1.0357 -0.3322
   42MOL    C9514117   3.585   5.675   1.623 -0.3861  0.8295  0.0370
   42MOL    H9614118   3.487   5.707   1.811  0.1418 -0.0743  0.2008
   42MOL    H9714119   3.353   5.567   1.492 -0.8824 -0.3938 -1.5464
   42MOL    H9814120   3.157   5.665   1.382 -0.8247  1.8888 -0.4756
   42MOL    H9914121   3.015   5.973   1.503  1.0615  1.4610 -3.7522
   42MOL   H10014122   3.108   5.923   1.729 -1.4451 -0.5664  0.6707
   42MOL   H10114123   3.300   5.821   1.830 -0.9554 -0.8301  0.6908
   42MOL   H10214124   3.682   5.665   1.672  0.8034  0.5678 -2.2908
   42MOL   H10314125   3.570   5.602   1.543  0.5591  0.5045  0.1419
   42MOL   C10414126   3.587   5.814   1.556 -0.3195 -0.3562 -0.1752
   42MOL   C10514127   3.685   5.812   1.434  0.1360 -0.1759 -0.6775
   42MOL   C10614128   3.645   5.783   1.302  0.4267 -0.0559  0.1805
   42MOL   C10714129   3.740   5.783   1.191  0.1830  0.3039  0.7348
   42MOL   C10814130   3.875   5.801   1.224 -0.6545 -0.1189  0.1464
   42MOL   O10914131   3.971   5.780   1.130  0.1802  0.0681 -0.5308
   42MOL   C11014132   3.916   5.832   1.359 -0.5761  0.1331  0.2634
   42MOL   C11114133   3.822   5.836   1.463  0.9458  0.0737  0.3701
   42MOL   C11214134   3.611   5.938   1.649  0.3497  0.2206 -0.4057
   42MOL   H11314135   3.490   5.826   1.509  0.8353  1.4640 -2.2164
   42MOL   H11414136   3.538   5.775   1.289  0.3089  0.1874  0.9653
   42MOL   H11514137   3.713   5.757   1.090 -1.1446 -0.2137  1.2046
   42MOL   H11614138   3.951   5.766   1.038  0.4723  1.8837 -0.8753
   42MOL   H11714139   4.018   5.846   1.390  0.3398 -1.2703 -2.0636
   42MOL   H11814140   3.857   5.849   1.565  1.7369 -2.7409  0.4954
   42MOL   H11914141   3.705   5.931   1.703  0.0203  1.1043  0.2956
   42MOL   H12014142   3.540   5.934   1.731 -0.0965 -0.7888 -0.8253
   42MOL   C12114143   3.598   6.062   1.569  0.5262 -0.0750 -0.1311
   42MOL   C12214144   3.452   6.095   1.546  0.0282  0.4627  0.6493
   42MOL   C12314145   3.364   6.127   1.657 -0.9173  0.0599 -0.2171
   42MOL   C12414146   3.230   6.158   1.628 -0.1863 -0.2783  0.9654
   42MOL   C12514147   3.181   6.156   1.496 -0.6050  0.1020  0.2628
   42MOL   O12614148   3.049   6.173   1.473  0.0226  0.2522 -0.1056
   42MOL   C12714149   3.268   6.124   1.389 -0.0417 -0.3517  0.3788
   42MOL   C12814150   3.405   6.099   1.410  0.8508  0.4911 -0.3306
   42MOL   C12914151   3.674   6.179   1.637 -0.0715 -0.4323 -0.2882
   42MOL   H13014152   3.644   6.046   1.472 -2.0970  0.0425 -1.4511
   42MOL   H13114153   3.404   6.126   1.758 -0.0302  1.3291 -0.5388
   42MOL   H13214154   3.164   6.165   1.713 -2.5780 -1.7069 -0.7304
   42MOL   H13314155   3.026   6.176   1.382 -1.0346 -1.3629  0.0868
   42MOL   H13414156   3.239   6.132   1.286 -1.7162 -0.2829  0.8359
   42MOL   H13514157   3.450   6.089   1.312  1.1384  0.5971 -0.2102
   42MOL   H13614158   3.762   6.146   1.692  0.8912  0.6072 -1.1603
   42MOL   H13714159   3.615   6.222   1.717  0.5155 -0.8853  0.4001
   42MOL   C13814160   3.737   6.278   1.536 -0.4941  0.6511 -0.0018
   42MOL   C13914161   3.893   6.296   1.535  0.5022  0.4233  0.6883
   42MOL   C14014162   3.970   6.212   1.451 -0.0566  0.4628 -0.7196
   42MOL   C14114163   4.107   6.232   1.445 -0.8844  0.3385  0.5211
   42MOL   C14214164   4.170   6.338   1.512 -0.3981  1.1189 -0.7267
   42MOL   O14314165   4.300   6.353   1.506 -0.0474  0.1300  0.2476
   42MOL   C14414166   4.092   6.431   1.586  0.6673  0.1927  0.7401
   42MOL   C14514167   3.954   6.407   1.601  0.1685  0.1742  0.2425
   42MOL   C14614168   3.659   6.406   1.520  0.4536 -0.1806 -0.7363
   42MOL   H14714169   3.727   6.239   1.435 -1.0532 -0.2184  0.3851
   42MOL   H14814170   3.926   6.131   1.396 -1.5614 -0.2682  1.4900
   42MOL   H14914171   4.174   6.169   1.389 -0.8816  0.8419 -0.0522
   42MOL   H15014172   4.333   6.391   1.586  0.8684 -1.8510  0.8427
   42MOL   H15114173   4.135   6.514   1.641 -1.1385  0.6264  1.5233
   42MOL   H15214174   3.902   6.462   1.678  0.6128  0.1326  0.5732
   42MOL   H15314175   3.685   6.474   1.602 -0.7386  0.9928 -1.3027
   42MOL   H15414176   3.553   6.391   1.545  1.0596 -0.5803  1.7986
   42MOL   C15514177   3.679   6.468   1.385 -0.1891  0.4579 -0.5547
   42MOL   C15614178   3.664   6.616   1.400  0.4433  0.2776  0.8472
   42MOL   C15714179   3.543   6.669   1.424 -0.4029  0.1074  0.0208
   42MOL   C15814180   3.530   6.811   1.446  0.0427  0.4517 -0.5921
   42MOL   C15914181   3.645   6.887   1.454  0.0931  0.4753  0.5614
   42MOL   O16014182   3.630   7.019   1.478  0.4264  0.0917  0.0321
   42MOL   C16114183   3.770   6.831   1.422 -0.5545 -0.5107  0.7076
   42MOL   C16214184   3.783   6.696   1.398  0.4407  0.0544  0.1467
   42MOL   C16314185   3.595   6.407   1.268  0.4556  0.1553 -0.1253
   42MOL   H16414186   3.784   6.447   1.366 -0.6487  1.4291 -4.6877
   42MOL   H16514187   3.454   6.609   1.439 -2.0725  2.6769  0.7525
   42MOL   H16614188   3.436   6.857   1.472 -0.2566 -0.6114  0.2190
   42MOL   H16714189   3.712   7.064   1.471  0.3545 -0.0058 -1.4350
   42MOL   H16814190   3.854   6.897   1.411 -1.9507  1.2609  0.3984
   42MOL   H16914191   3.885   6.663   1.384  0.6685  0.6024  0.4963
   42MOL   H17014192   3.498   6.456   1.263 -0.6980 -1.7812  2.4461
   42MOL   H17114193   3.582   6.298   1.265  3.1651 -0.2388  0.4790
   42MOL   C17214194   3.645   6.433   1.121  0.1256  0.0956 -0.6652
   42MOL   C17314195   3.531   6.421   1.010 -0.4870  0.3585  0.0060
   42MOL   C17414196   3.456   6.301   0.989 -0.0132  0.1510  0.3285
   42MOL   C17514197   3.357   6.286   0.891  0.4154 -0.5644 -0.1267
   42MOL   C17614198   3.323   6.398   0.816  0.7748  0.1419  0.1737
   42MOL   O17714199   3.239   6.380   0.711 -0.3822  0.3476  0.2329
   42MOL   C17814200   3.390   6.518   0.843 -0.5974  0.5777 -0.6051
   42MOL   C17914201   3.496   6.528   0.933 -0.1936 -0.2015  0.0742
   42MOL   C18014202   3.774   6.343   1.094  0.1333 -0.3979 -0.4576
   42MOL   H18114203   3.686   6.535   1.121  3.8234 -1.2983 -0.9483
   42MOL   H18214204   3.470   6.221   1.060 -0.2887 -0.3928 -0.2232
   42MOL   H18314205   3.297   6.196   0.889 -0.7471  0.2027 -1.0873
   42MOL   H18414206   3.204   6.292   0.719  0.6600 -0.2130 -1.1723
   42MOL   H18514207   3.371   6.611   0.792  0.4997  0.5878 -1.0017
   42MOL   H18614208   3.552   6.619   0.951 -1.0595  0.7985 -2.0978
   42MOL   H18714209   3.743   6.245   1.056  0.4253 -0.6373 -0.0925
   42MOL   H18814210   3.839   6.319   1.179  0.3517  2.0361  0.0970
   42MOL   C18914211   3.871   6.403   0.991  0.6793 -0.2697 -0.9055
   42MOL   C19014212   3.919   6.544   1.029 -0.0415  0.0050  0.3871
   42MOL   C19114213   3.893   6.654   0.940  0.7673 -0.5447  0.2575
   42MOL   C19214214   3.929   6.784   0.983  0.5341  0.0408 -0.3291
   42MOL   C19314215   4.002   6.811   1.105  0.1708  0.1596  0.0855
   42MOL   O19414216   4.036   6.936   1.138 -0.6638 -0.0610 -0.1958
   42MOL   C19514217   4.038   6.701   1.183 -1.1722  1.3225  0.3639
   42MOL   C19614218   3.997   6.572   1.143  0.7872 -0.0939  0.3056
   42MOL   C19714219   3.991   6.317   0.950  0.3030 -0.1640  0.0037
   42MOL   H19814220   3.811   6.411   0.901 -0.5607 -1.0321 -0.1610
   42MOL   H19914221   3.835   6.632   0.852 -0.3104  3.4131 -0.0870
   42MOL   H20014222   3.898   6.861   0.914 -1.5218 -2.0528 -1.8075
   42MOL   H20114223   4.119   6.942   1.184 -0.3857 -0.5944 -0.6233
   42MOL   H20214224   4.096   6.708   1.273 -1.5351  1.5340  0.5839
   42MOL   H20314225   4.041   6.488   1.196  0.1729  0.6139  1.9879
   42MOL   H20414226   3.951   6.216   0.959  0.4248 -0.4287 -2.0919
   42MOL   H20514227   4.068   6.319   1.027 -0.3197  1.0420  0.6009
   42MOL   C20614228   4.048   6.337   0.811 -0.2312  0.3686  0.0913
   42MOL   C20714229   3.932   6.326   0.709  0.1023  0.3788  0.0065
   42MOL   C20814230   3.828   6.227   0.715 -0.6081 -0.1890  0.2131
   42MOL   C20914231   3.718   6.226   0.623  0.3063 -0.4009  0.0855
   42MOL   C21014232   3.713   6.323   0.523 -0.4481 -0.6336  0.9276
   42MOL   O21114233   3.613   6.316   0.432  0.0646  0.8656 -0.1953
   42MOL   C21214234   3.821   6.410   0.503  0.4035 -0.3087  0.3652
   42MOL   C21314235   3.930   6.404   0.595 -0.4965 -0.3432  0.0228
   42MOL   C21414236   4.175   6.257   0.775 -0.1012 -0.2320 -0.2543
   42MOL   H21514237   4.082   6.440   0.803  3.3848 -0.7363  0.2860
   42MOL   H21614238   3.835   6.142   0.781  1.2575 -1.2083 -1.2482
   42MOL   H21714239   3.643   6.149   0.631  0.4023 -0.4477  0.5396
   42MOL   H21814240   3.565   6.236   0.447  1.3332  0.5554  2.5017
   42MOL   H21914241   3.829   6.492   0.434 -0.8062 -0.3946  0.1189
   42MOL   H22014242   4.003   6.483   0.589  0.1071 -0.8695  0.3558
   42MOL   H22114243   4.191   6.241   0.668 -1.8919  2.1913 -0.9094
   42MOL   H22214244   4.168   6.162   0.828 -2.5808  0.4946  0.7987
   42MOL   C22314245   4.304   6.324   0.824  0.0916  0.5663 -0.1721
   42MOL   C22414246   4.423   6.268   0.744 -0.2072  0.4477  0.6457
   42MOL   C22514247   4.477   6.141   0.766  0.2218  0.3407 -0.2078
   42MOL   C22614248   4.584   6.083   0.692  0.5287  0.0265  0.1284
   42MOL   C22714249   4.641   6.162   0.593  0.6781  0.0238 -0.1434
   42MOL   O22814250   4.737   6.102   0.520 -0.7530 -0.0676 -0.2824
   42MOL   C22914251   4.597   6.295   0.567  0.0761 -0.7548  0.4049
   42MOL   C23014252   4.483   6.346   0.641 -0.3252 -0.0906  0.3668
   42MOL   C23114253   4.334   6.313   0.977  0.3084  0.4220  0.9062
   42MOL   H23214254   4.295   6.427   0.791 -0.8421  0.2964 -0.7880
   42MOL   H23314255   4.440   6.072   0.841  0.8586 -0.8258 -0.9441
   42MOL   H23414256   4.615   5.986   0.729  1.7989  0.2156 -0.4303
   42MOL   H23514257   4.749   6.012   0.543  1.2957  0.3700  0.4675
   42MOL   H23614258   4.632   6.346   0.479 -0.4573 -3.2573 -1.3176
   42MOL   H23714259   4.447   6.445   0.618 -1.0140 -0.1646  1.0955
   42MOL   H23814260   4.256   6.372   1.025 -0.3031 -0.9191  1.5858
   42MOL   H23914261   4.331   6.212   1.019 -0.0095 -0.1898 -0.5750
   42MOL   C24014262   4.474   6.365   1.022 -0.2854 -0.4452 -0.2525
   42MOL   C24114263   4.507   6.512   0.987 -0.5222 -0.2775 -0.1699
   42MOL   C24214264   4.642   6.558   0.975 -0.6716  0.3984 -0.4248
   42MOL   C24314265   4.677   6.690   0.945  0.4087 -0.8798 -1.0399
   42MOL   C24414266   4.578   6.778   0.905 -0.4212  0.5927 -0.3742
   42MOL   O24514267   4.613   6.894   0.841  0.5977  0.0284  0.2890
   42MOL   C24614268   4.450   6.732   0.897  0.4133 -0.4786 -0.6946
   42MOL   C24714269   4.411   6.608   0.948 -0.2615  0.6116  0.5337
   42MOL   C24814270   4.496   6.339   1.170 -0.4341  0.3983 -0.0965
   42MOL   H24914271   4.544   6.298   0.973 -1.3761 -1.5831 -0.2735
   42MOL   H25014272   4.724   6.489   0.991 -2.1076 -1.3259 -0.2323
   42MOL   H25114273   4.781   6.719   0.934  0.8709 -1.2489  2.1019
   42MOL   H25214274   4.551   6.953   0.801  1.9749  1.4356  0.1543
   42MOL   H25314275   4.375   6.798   0.856  0.9059  1.2980  1.2288
   42MOL   H25414276   4.307   6.585   0.929  0.0772 -1.1299  0.7475
   42MOL   H25514277   4.581   6.399   1.204  0.1291  1.6985 -3.6616
   42MOL   H25614278   4.411   6.372   1.229 -0.3517 -0.5555  0.5648
   42MOL   C25714279   4.535   6.194   1.200  0.2076  0.4182  0.4310
   42MOL   C25814280   4.684   6.182   1.241 -0.6567  0.6408  0.2454
   42MOL   C25914281   4.727   6.253   1.351 -0.0092 -0.9004 -0.0265
   42MOL   C26014282   4.858   6.243   1.399 -0.0314 -0.1908  0.0694
   42MOL   C26114283   4.943   6.145   1.339  0.2640  0.3909  0.2260
   42MOL   O26214284   5.065   6.116   1.392 -0.1962 -0.1181  0.0019
   42MOL   C26314285   4.896   6.065   1.234  0.5661  0.2656  0.6828
   42MOL   C26414286   4.767   6.082   1.178  0.1820  0.1399  0.0754
   42MOL   C26514287   4.432   6.133   1.296 -0.4337  0.4112  0.5772
   42MOL   H26614288   4.529   6.138   1.107 -1.9156 -1.6352  1.7423
   42MOL   H26714289   4.651   6.312   1.400  0.3895 -0.4789  0.0978
   42MOL   H26814290   4.890   6.299   1.486 -0.9181  1.3753 -0.5887
   42MOL   H26914291   5.076   6.026   1.418 -0.3931  0.4028  2.0411
   42MOL   H27014292   4.964   5.993   1.191  0.4908  1.1727 -1.0042
   42MOL   H27114293   4.736   6.008   1.106  0.1714 -0.9945  1.2268
   42MOL   H27214294   4.335   6.158   1.253  0.4572  2.5363 -0.2401
   42MOL   H27314295   4.428   6.179   1.394 -0.2574  2.4389 -0.3515
   42MOL   C27414296   4.437   5.977   1.299  0.6115  0.4001 -0.5280
   42MOL   C27514297   4.419   5.916   1.159 -0.3274 -0.2133  0.2303
   42MOL   C27614298   4.520   5.832   1.103 -0.3116 -0.1536 -0.6105
   42MOL   C27714299   4.499   5.773   0.975  0.1044  0.5111  0.3100
   42MOL   C27814300   4.378   5.799   0.910  0.7033  0.4626 -0.0979
   42MOL   O27914301   4.349   5.747   0.790 -0.2986 -0.1770 -0.2523
   42MOL   C28014302   4.284   5.895   0.959  0.1892  0.2193  0.6668
   42MOL   C28114303   4.300   5.946   1.088 -0.0292 -0.5299 -0.7638
   42MOL   C28214304   4.339   5.918   1.404 -0.2370 -0.0061  0.6902
   42MOL   H28314305   4.536   5.948   1.333  0.1028 -0.6201  0.0986
   42MOL   H28414306   4.615   5.811   1.149 -1.0274 -2.9358 -0.2530
   42MOL   H28514307   4.573   5.712   0.926 -2.0141 -2.7825  1.0517
   42MOL   H28614308   4.402   5.669   0.782  0.2976  0.2191 -0.1914
   42MOL   H28714309   4.185   5.913   0.918 -0.4509  0.0315  2.0853
   42MOL   H28814310   4.220   6.013   1.115  0.9014  0.1693  0.3145
   42MOL   H28914311   4.236   5.933   1.370 -0.2098  0.2716  0.7319
   42MOL   H29014312   4.336   5.809   1.400 -0.5334 -0.0320  1.5700
   42MOL   C29114313   4.353   5.948   1.556 -0.4750 -0.2804 -0.0006
   42MOL   C29214314   4.493   5.932   1.617 -0.3973  0.1089 -0.2546
   42MOL   C29314315   4.596   6.017   1.577 -0.7671 -0.0964 -0.6367
   42MOL   C29414316   4.723   5.995   1.639  0.4260  0.1958 -0.5387
   42MOL   C29514317   4.747   5.890   1.735 -0.2969 -0.6358  0.4233
   42MOL   O29614318   4.868   5.884   1.796 -0.0664  0.0702  0.0882
   42MOL   C29714319   4.640   5.806   1.773  0.3991 -0.3703  0.7381
   42MOL   C29814320   4.519   5.828   1.708  0.3601 -0.2881  0.4660
   42MOL   C29914321   4.243   5.867   1.629  0.8817  0.2623  0.1379
   42MOL   H30014322   4.328   6.053   1.569 -0.7233 -0.4832  1.2168
   42MOL   H30114323   4.585   6.102   1.511  0.5962 -0.6956 -1.6495
   42MOL   H30214324   4.804   6.057   1.604  1.3089 -0.8682 -0.4188
   42MOL   H30314325   4.882   5.839   1.878  2.5607 -0.8812 -0.8140
   42MOL   H30414326   4.654   5.727   1.846 -2.9588 -0.4837  1.3237
   42MOL   H30514327   4.444   5.753   1.729 -2.1882  1.6393 -1.4335
   42MOL   H30614328   4.266   5.762   1.618 -1.1145 -0.1196 -0.5968
   42MOL   H30714329   4.151   5.894   1.576 -0.2834 -0.8272  1.5759
   42MOL   C30814330   4.216   5.908   1.779  0.5366  0.0426  0.1979
   42MOL   C30914331   4.113   5.811   1.846  0.1702  0.1666  0.1149
   42MOL   C31014332   4.161   5.698   1.917  0.2391 -1.0555  0.3889
   42MOL   C31114333   4.072   5.615   1.986 -0.2912 -0.2358  0.0110
   42MOL   C31214334   3.930   5.637   1.983  0.0176 -0.4724  0.1398
   42MOL   O31314335   3.862   5.558   2.066  0.1924 -0.1982  0.7819
   42MOL   C31414336   3.879   5.736   1.894  0.0699 -0.3664 -0.4783
   42MOL   C31514337   3.971   5.829   1.840  0.4444 -0.1100 -0.5054
   42MOL   C31614338   4.165   6.049   1.798  0.3387 -0.7627  0.2293
   42MOL   H31714339   4.311   5.898   1.832 -0.0769 -0.9273  1.1319
   42MOL   H31814340   4.266   5.673   1.907  0.5766  0.3556  0.2828
   42MOL   H31914341   4.116   5.533   2.041  0.3799  0.5320  0.6258
   42MOL   H32014342   3.912   5.533   2.142  0.2094 -2.3934  0.0807
   42MOL   H32114343   3.774   5.760   1.893  0.0712 -0.1618  1.7477
   42MOL   H32214344   3.935   5.908   1.777 -1.9968  0.1176  1.0916
   42MOL   H32314345   4.072   6.063   1.744  1.2980  0.7964 -1.1050
   42MOL   H32414346   4.237   6.115   1.748 -0.6026  1.5498  1.8332
   42MOL   C32514347   4.161   6.086   1.946 -0.6258  0.7392  0.4864
   42MOL   C32614348   4.017   6.111   1.993 -1.0412 -0.0320 -0.5036
   42MOL   C32714349   3.931   6.191   1.921  0.8389 -0.1326  0.0254
   42MOL   C32814350   3.799   6.224   1.968  0.5259  0.1059  0.0946
   42MOL   C32914351   3.758   6.183   2.095  0.0889  0.7024 -0.2442
   42MOL   O33014352   3.641   6.227   2.156  0.0999  0.0185 -0.1546
   42MOL   C33114353   3.835   6.087   2.162  0.0023  0.2325 -0.2833
   42MOL   C33214354   3.970   6.057   2.119 -0.0651  0.2118 -0.0158
   42MOL   C33314355   4.250   6.205   1.979 -0.0669 -0.3034  0.2557
   42MOL   H33414356   4.214   6.016   2.011 -0.6821  0.4226  0.1905
   42MOL   H33514357   3.966   6.232   1.827  1.1074 -0.8885 -0.2123
   42MOL   H33614358   3.728   6.283   1.912 -0.0688 -2.6802 -2.1750
   42MOL   H33714359   3.622   6.185   2.238  1.1338  1.0499  0.6354
   42MOL   H33814360   3.796   6.042   2.252 -1.8906  2.7083  0.1841
   42MOL   H33914361   4.040   5.995   2.172 -0.4069 -1.5606 -1.5843
   42MOL   H34014362   4.351   6.189   1.943 -0.4708  3.9137 -3.1727
   42MOL   H34114363   4.258   6.222   2.087 -2.2175  3.6241 -0.1167
   42MOL   H34214364   4.228   6.302   1.934  0.7904 -0.1494  0.1686
   43MOL     C114365   0.123   2.373   6.575  0.3905 -0.2329 -0.3068
   43MOL     C214366   0.134   2.374   6.727  0.6567 -0.7367 -0.1893
   43MOL     C314367   0.247   2.311   6.795 -0.3680  0.8693  0.1853
   43MOL     C414368   0.260   2.327   6.934  0.0117 -0.0200  0.2587
   43MOL     C514369   0.164   2.398   7.007 -0.0899 -0.4650  0.5007
   43MOL     O614370   0.176   2.403   7.144 -0.5588 -0.4999  0.7695
   43MOL     C714371   0.055   2.450   6.943 -0.7991  0.0200 -0.2940
   43MOL     C814372   0.040   2.443   6.804  0.5902  0.3281 -0.1918
   43MOL     C914373   0.007   2.283   6.528 -0.3044 -0.1385  0.7185
   43MOL    H1014374   0.108   2.478   6.548  0.6343  0.0485  0.6260
   43MOL    H1114375   0.316   2.252   6.737  0.1657  0.1144  1.5552
   43MOL    H1214376   0.339   2.273   6.983 -0.2471 -0.4629  0.1940
   43MOL    H1314377   0.101   2.421   7.199 -0.4068 -0.4979  0.9723
   43MOL    H1414378   8.021   2.514   6.993  0.1429  2.1182 -1.5589
   43MOL    H1514379   7.988   2.486   6.761  0.1891  0.2623  0.5743
   43MOL    H1614380   7.954   2.316   6.579 -0.1131 -0.4270  1.2467
   43MOL    H1714381   0.011   2.175   6.543 -2.9921 -0.4801 -0.5697
   43MOL    H1814382   0.224   2.344   6.548  1.4752  1.3977  1.7788
   43MOL    C1914383   8.016   2.286   6.372 -0.2419 -0.1270  0.2571
   43MOL    C2014384   7.885   2.211   6.341 -0.2974 -0.0106  0.4251
   43MOL    C2114385   7.785   2.281   6.275  0.2688 -0.2226  0.3464
   43MOL    C2214386   7.665   2.219   6.233  0.2657  0.3010 -0.1573
   43MOL    C2314387   7.638   2.087   6.262  0.2653  0.6400  1.4207
   43MOL    O2414388   7.520   2.036   6.228 -0.0287 -0.0669  0.3368
   43MOL    C2514389   7.735   2.008   6.330 -0.6209 -0.3169 -0.8733
   43MOL    C2614390   7.855   2.075   6.368 -0.1182  0.6984 -0.1072
   43MOL    C2714391   0.093   2.222   6.287  0.3072  0.0212 -0.0905
   43MOL    H2814392   8.021   2.388   6.334 -1.2434  0.2053  1.0205
   43MOL    H2914393   7.798   2.383   6.241 -0.9294  0.5340  2.0773
   43MOL    H3014394   7.607   2.291   6.178 -2.1311 -1.5928 -0.1782
   43MOL    H3114395   7.461   2.108   6.215 -0.2983 -0.6231 -1.8611
   43MOL    H3214396   7.714   1.904   6.350 -0.4137 -0.4778 -1.4610
   43MOL    H3314397   7.924   2.005   6.412  0.0916  0.9204 -0.0807
   43MOL    H3414398   0.086   2.114   6.289  0.3410  0.0304  0.6236
   43MOL    H3514399   0.189   2.252   6.328  1.3052 -0.1285 -2.2514
   43MOL    C3614400   0.099   2.270   6.142  1.0103  0.8021  0.0820
   43MOL    C3714401   0.184   2.176   6.048 -0.5884  0.6257  0.2531
   43MOL    C3814402   0.161   2.176   5.910 -0.0433  0.5605 -0.0909
   43MOL    C3914403   0.246   2.109   5.820  0.4716 -0.2761 -0.1702
   43MOL    C4014404   0.352   2.034   5.870  0.3925 -0.4169 -0.0795
   43MOL    O4114405   0.438   1.977   5.780 -0.0086 -0.3657  0.1712
   43MOL    C4214406   0.371   2.019   6.008  0.3981  0.1764 -0.0983
   43MOL    C4314407   0.290   2.095   6.096 -0.0914 -0.2444 -0.4757
   43MOL    C4414408   0.152   2.418   6.131 -0.2607  0.3445 -0.2244
   43MOL    H4514409   8.036   2.265   6.102  1.2291 -0.3024 -0.3503
   43MOL    H4614410   0.084   2.239   5.867 -1.5334 -2.8064 -2.5319
   43MOL    H4714411   0.237   2.117   5.713  0.7285  2.6081 -0.0239
   43MOL    H4814412   0.516   1.950   5.827  1.1473  1.9482 -0.3225
   43MOL    H4914413   0.449   1.950   6.038  0.2823 -0.8312 -1.9696
   43MOL    H5014414   0.313   2.085   6.201 -1.9572 -0.8466 -0.1047
   43MOL    H5114415   0.155   2.470   6.227 -1.0035  2.7843 -1.4928
   43MOL    H5214416   0.255   2.410   6.098 -0.4678 -0.7233 -0.6223
   43MOL    C5314417   0.075   2.508   6.025 -0.2062  0.0025  0.8123
   43MOL    C5414418   7.969   2.552   6.071  0.3047  0.3565  0.1050
   43MOL    C5514419   7.955   2.637   6.176  0.0506  0.3880 -0.4340
   43MOL    C5614420   7.831   2.689   6.222 -0.2710  0.8307  0.1502
   43MOL    C5714421   7.713   2.652   6.151  0.3955  0.4784  0.6792
   43MOL    O5814422   7.597   2.717   6.186 -0.0498  0.0696 -0.5205
   43MOL    C5914423   7.725   2.558   6.047  0.2583  0.6954  0.0084
   43MOL    C6014424   7.850   2.511   6.003  0.4874  0.4092 -0.4035
   43MOL    C6114425   0.156   2.625   5.969 -0.3529 -0.7363  0.4234
   43MOL    H6214426   0.063   2.446   5.936  0.8799  0.0898  0.5953
   43MOL    H6314427   0.010   2.666   6.222  0.3276 -1.3662  0.1413
   43MOL    H6414428   7.832   2.755   6.307  1.4879  0.6397  0.3115
   43MOL    H6514429   7.528   2.656   6.164 -0.0478 -0.5215  1.0540
   43MOL    H6614430   7.637   2.522   5.997  0.2039 -0.6501  1.0562
   43MOL    H6714431   7.855   2.436   5.925  0.4454 -0.2971  0.2689
   43MOL    H6814432   0.257   2.597   5.938 -0.2620  2.0846 -2.0562
   43MOL    H6914433   0.176   2.687   6.056  0.9170  1.1044 -1.1443
   43MOL    C7014434   0.081   2.722   5.863 -0.2025 -0.4677  0.0799
   43MOL    C7114435   0.047   2.651   5.731 -0.1606 -0.0818  0.0105
   43MOL    C7214436   0.140   2.570   5.667 -0.7629  0.2558 -0.5087
   43MOL    C7314437   0.103   2.502   5.550 -0.2798  0.8969 -0.5139
   43MOL    C7414438   8.014   2.507   5.496 -0.7208  0.8563 -0.0404
   43MOL    O7514439   7.989   2.428   5.384 -0.5830 -0.2759 -0.1297
   43MOL    C7614440   7.922   2.588   5.555  0.3909  0.0532  0.0095
   43MOL    C7714441   7.952   2.658   5.671  0.1151 -0.1809 -0.6631
   43MOL    C7814442   0.166   2.847   5.844 -0.1348  0.1556 -0.4147
   43MOL    H7914443   8.021   2.748   5.905 -0.9811  0.0478 -1.9579
   43MOL    H8014444   0.242   2.569   5.704 -0.9568  1.0614  0.0636
   43MOL    H8114445   0.183   2.456   5.494  0.4151  2.7826 -1.1207
   43MOL    H8214446   0.022   2.369   5.361  0.1885  0.7874 -0.5175
   43MOL    H8314447   7.827   2.602   5.506  1.3359  2.7786 -1.1608
   43MOL    H8414448   7.885   2.730   5.717  0.3637 -0.3653 -0.0123
   43MOL    H8514449   0.129   2.892   5.751  2.1705 -1.6045 -2.2516
   43MOL    H8614450   0.271   2.822   5.828  0.0302  1.2023 -1.0305
   43MOL    C8714451   0.168   2.949   5.958 -0.4173 -0.1007 -0.2239
   43MOL    C8814452   0.121   3.079   5.900 -0.1296 -0.7291  0.3776
   43MOL    C8914453   8.022   3.117   5.898  0.6792 -0.5687  0.3964
   43MOL    C9014454   7.985   3.244   5.838 -0.1503  0.5915  0.4530
   43MOL    C9114455   0.050   3.314   5.767  0.0076 -1.1017 -0.4978
   43MOL    O9214456   0.013   3.422   5.701 -0.3084  0.6927 -0.2898
   43MOL    C9314457   0.185   3.272   5.763 -0.3527 -0.2712  0.4274
   43MOL    C9414458   0.220   3.158   5.837  0.0435  0.5563 -0.1740
   43MOL    C9514459   0.298   2.950   6.039  0.0101  0.3605  0.7663
   43MOL    H9614460   0.089   2.912   6.024  2.5800 -0.4625  3.3204
   43MOL    H9714461   7.949   3.054   5.946 -0.4776  1.3714  1.2244
   43MOL    H9814462   7.879   3.263   5.827 -0.2869 -0.7396 -0.7291
   43MOL    H9914463   0.077   3.472   5.652 -2.3313  3.0734 -0.6126
   43MOL   H10014464   0.267   3.323   5.713  0.7785  1.0448  3.4551
   43MOL   H10114465   0.324   3.133   5.845 -0.2957 -0.6831  0.4224
   43MOL   H10214466   0.316   2.846   6.065 -1.5410  0.1893  1.1930
   43MOL   H10314467   0.383   2.967   5.972 -1.0676  0.1404 -0.6927
   43MOL   C10414468   0.318   3.050   6.158 -0.0266 -0.0930  0.1048
   43MOL   C10514469   0.198   3.038   6.250  0.1596  0.0155 -0.3398
   43MOL   C10614470   0.178   2.915   6.320 -0.6464  0.0754  0.0549
   43MOL   C10714471   0.063   2.902   6.397  0.2835  0.3422 -0.2742
   43MOL   C10814472   8.009   3.002   6.406  0.3311  0.2931  0.5410
   43MOL   O10914473   7.898   2.970   6.480 -0.2108  0.3963 -0.6055
   43MOL   C11014474   8.014   3.118   6.327 -0.3441  0.3879  0.5508
   43MOL   C11114475   0.086   3.132   6.242 -0.2040 -0.1521 -0.0119
   43MOL   C11214476   0.358   3.190   6.110 -0.4346  0.2873  0.0111
   43MOL   H11314477   0.403   3.013   6.215 -0.1421  0.4946  0.6639
   43MOL   H11414478   0.244   2.830   6.321 -1.7283 -0.7979  2.4209
   43MOL   H11514479   0.056   2.808   6.450 -1.6974  0.2129 -0.7181
   43MOL   H11614480   7.904   2.912   6.554  0.0875  1.6686  0.3877
   43MOL   H11714481   7.933   3.190   6.325  0.0620  0.8375 -0.7667
   43MOL   H11814482   0.087   3.212   6.169 -1.4809  1.7842  2.0169
   43MOL   H11914483   0.277   3.237   6.054  0.6286  1.4120 -0.6072
   43MOL   H12014484   0.437   3.191   6.035 -0.5395 -1.9956 -0.1465
   43MOL   C12114485   0.413   3.283   6.226 -0.4053 -0.4113 -0.6542
   43MOL   C12214486   0.533   3.232   6.309  0.0951 -0.1028  0.0475
   43MOL   C12314487   0.658   3.213   6.241 -0.0244  0.2402  0.1272
   43MOL   C12414488   0.767   3.168   6.313  0.4272 -0.6633  0.4425
   43MOL   C12514489   0.758   3.142   6.452 -0.3245 -0.6322 -0.2860
   43MOL   O12614490   0.861   3.089   6.518 -0.8009  0.4728  0.6937
   43MOL   C12714491   0.635   3.168   6.517  0.5304 -0.6570  0.8027
   43MOL   C12814492   0.519   3.209   6.450  0.2006  0.6290  0.4708
   43MOL   C12914493   0.422   3.425   6.175 -0.4199  0.9067  0.3508
   43MOL   H13014494   0.334   3.283   6.302 -1.0729  2.5471 -1.3027
   43MOL   H13114495   0.665   3.238   6.136 -0.2142  0.6889  0.2169
   43MOL   H13214496   0.864   3.160   6.265  0.8920  0.5615  1.1551
   43MOL   H13314497   0.860   3.099   6.612 -1.5133  0.5372  0.6842
   43MOL   H13414498   0.619   3.151   6.623 -2.3751  2.0948  0.9117
   43MOL   H13514499   0.428   3.227   6.505  0.9826  3.0035  1.0332
   43MOL   H13614500   0.330   3.451   6.123 -0.8249 -1.9919 -0.4345
   43MOL   H13714501   0.502   3.443   6.103 -0.6229 -1.3628 -0.4577
   43MOL   C13814502   0.416   3.523   6.288 -0.4158  0.0577 -0.3898
   43MOL   C13914503   0.274   3.560   6.341  0.0209  0.2443 -0.4277
   43MOL   C14014504   0.181   3.621   6.259  0.0354  0.1262  0.3361
   43MOL   C14114505   0.050   3.645   6.302 -0.3880 -0.0972 -0.4395
   43MOL   C14214506   0.013   3.603   6.435 -0.3920 -0.7310  0.0893
   43MOL   O14314507   7.920   3.611   6.474 -0.8183  0.0340 -0.2294
   43MOL   C14414508   0.110   3.545   6.525 -0.1561  0.2272 -0.1302
   43MOL   C14514509   0.236   3.520   6.474  0.9268  0.3895 -0.0427
   43MOL   C14614510   0.502   3.653   6.257  0.4491  0.7712 -0.6160
   43MOL   H14714511   0.464   3.481   6.376 -1.0755  1.2846  0.5698
   43MOL   H14814512   0.210   3.642   6.157  0.1028 -0.1641  0.2961
   43MOL   H14914513   8.012   3.683   6.235 -0.1490  1.6169  0.2472
   43MOL   H15014514   7.857   3.631   6.406 -1.6976 -0.6762  0.3650
   43MOL   H15114515   0.091   3.512   6.626 -1.5327  0.8068 -0.1872
   43MOL   H15214516   0.312   3.477   6.538  0.0300 -0.9098  0.1673
   43MOL   H15314517   0.476   3.731   6.329  1.5019  0.5313  0.0370
   43MOL   H15414518   0.475   3.693   6.160 -1.8512  0.3618 -0.1773
   43MOL   C15514519   0.657   3.620   6.277 -0.3178  0.6269 -0.0798
   43MOL   C15614520   0.703   3.633   6.419  0.0911  0.5961  1.2053
   43MOL   C15714521   0.717   3.764   6.469  0.1273 -0.6407 -0.4178
   43MOL   C15814522   0.764   3.781   6.606  0.7586 -0.4479  0.3930
   43MOL   C15914523   0.815   3.668   6.679  0.5412  0.3722 -0.2696
   43MOL   O16014524   0.858   3.674   6.809 -0.2428  0.2740  0.1504
   43MOL   C16114525   0.816   3.541   6.621 -0.2005 -0.1163 -0.2077
   43MOL   C16214526   0.750   3.527   6.496  0.1682  0.3010  0.6497
   43MOL   C16314527   0.744   3.694   6.178  0.7170 -0.7866 -0.5938
   43MOL   H16414528   0.681   3.519   6.243  2.6713  1.1986  0.2217
   43MOL   H16514529   0.681   3.845   6.407 -0.7932 -0.0193  0.9051
   43MOL   H16614530   0.766   3.880   6.649 -3.0398  0.6523 -1.7263
   43MOL   H16714531   0.838   3.759   6.847 -1.6162  0.7869 -1.6601
   43MOL   H16814532   0.862   3.456   6.669 -0.2948 -0.6603 -1.0543
   43MOL   H16914533   0.753   3.430   6.449  2.2146  0.8963 -0.5375
   43MOL   H17014534   0.728   3.801   6.173 -0.5976 -0.9626 -0.2646
   43MOL   H17114535   0.714   3.659   6.080 -3.3649  0.6097  0.0871
   43MOL   C17214536   0.899   3.682   6.192 -0.3093  0.2250  0.1530
   43MOL   C17314537   0.970   3.758   6.084  0.0880 -0.4783  0.3015
   43MOL   C17414538   1.088   3.839   6.103 -0.1302 -0.4064 -0.3833
   43MOL   C17514539   1.152   3.903   5.994  0.0730  0.2583 -0.0094
   43MOL   C17614540   1.114   3.871   5.864  0.3020 -0.4961  0.3350
   43MOL   O17714541   1.175   3.923   5.763 -0.0017 -0.0290 -0.1586
   43MOL   C17814542   1.001   3.788   5.842 -0.0396 -0.0434 -0.9986
   43MOL   C17914543   0.931   3.727   5.954  0.5112 -0.3266  0.6038
   43MOL   C18014544   0.941   3.534   6.206  0.2263  0.1955  0.1310
   43MOL   H18114545   0.920   3.742   6.281  2.5914  0.2029 -0.4638
   43MOL   H18214546   1.114   3.849   6.208 -2.4108 -3.7616  0.5929
   43MOL   H18314547   1.239   3.966   6.011  1.3190 -1.2304 -0.7603
   43MOL   H18414548   1.255   3.969   5.782  0.2646 -0.9566  1.0316
   43MOL   H18514549   0.965   3.769   5.742  1.1427  1.5786 -1.7498
   43MOL   H18614550   0.854   3.657   5.927  0.8552  0.1867 -1.8553
   43MOL   H18714551   0.909   3.482   6.116 -1.1173 -1.7220  1.6774
   43MOL   H18814552   0.888   3.488   6.289 -0.0182 -1.2544 -0.8102
   43MOL   C18914553   1.086   3.518   6.230  1.0694  0.3359  0.0190
   43MOL   C19014554   1.112   3.508   6.388 -0.1553  0.1122 -0.0183
   43MOL   C19114555   1.091   3.390   6.457 -0.2001  0.1960 -0.1607
   43MOL   C19214556   1.125   3.380   6.593 -0.5479  0.2183 -0.0572
   43MOL   C19314557   1.167   3.495   6.661 -0.2566 -0.1339 -0.3120
   43MOL   O19414558   1.197   3.496   6.798 -0.2957  0.0930  0.0828
   43MOL   C19514559   1.178   3.621   6.595 -0.0306  0.5266 -0.3155
   43MOL   C19614560   1.152   3.625   6.457  0.2831  0.7966 -0.4055
   43MOL   C19714561   1.145   3.395   6.164 -0.2219 -0.5329  0.4772
   43MOL   H19814562   1.142   3.606   6.200  0.4273  0.3927 -1.0136
   43MOL   H19914563   1.051   3.298   6.416 -0.0126 -0.8505  1.9476
   43MOL   H20014564   1.119   3.283   6.641  0.7680  1.5461  2.8564
   43MOL   H20114565   1.227   3.410   6.823 -0.9894 -0.1886 -0.0325
   43MOL   H20214566   1.221   3.704   6.648 -2.4763 -0.7358  3.8193
   43MOL   H20314567   1.147   3.719   6.406 -0.6026  2.4042  2.5305
   43MOL   H20414568   1.121   3.398   6.058  0.4092  1.7312  0.3808
   43MOL   H20514569   1.097   3.304   6.200 -1.2640  0.4739  1.6977
   43MOL   C20614570   1.304   3.371   6.187  0.2022 -0.0003 -0.6278
   43MOL   C20714571   1.384   3.501   6.159 -0.6197 -0.2518  0.1755
   43MOL   C20814572   1.384   3.558   6.029 -0.3279 -0.1898  0.6822
   43MOL   C20914573   1.439   3.684   6.003 -0.2080  0.8368  0.5412
   43MOL   C21014574   1.501   3.757   6.109  0.3875  0.3149 -0.0952
   43MOL   O21114575   1.561   3.879   6.088 -0.2244 -0.3028  0.0878
   43MOL   C21214576   1.495   3.711   6.244 -0.0812 -0.0690  0.4014
   43MOL   C21314577   1.441   3.576   6.260  0.2625  0.2920 -0.1875
   43MOL   C21414578   1.355   3.251   6.106 -0.2855  0.1711  0.1348
   43MOL   H21514579   1.322   3.340   6.290  0.3274  0.9772 -0.3449
   43MOL   H21614580   1.353   3.508   5.939 -0.2461 -2.0382  1.6681
   43MOL   H21714581   1.450   3.724   5.903 -1.2240 -1.3635 -0.4782
   43MOL   H21814582   1.631   3.895   6.150 -0.3024 -0.1545  0.1403
   43MOL   H21914583   1.542   3.770   6.321 -0.8813  1.2187 -0.0776
   43MOL   H22014584   1.458   3.532   6.358 -0.1303 -0.0727 -0.2798
   43MOL   H22114585   1.352   3.269   5.999 -0.6581 -2.2363 -0.2959
   43MOL   H22214586   1.281   3.172   6.119 -0.6221  0.7149  1.6188
   43MOL   C22314587   1.497   3.198   6.151  0.5646 -0.1277 -0.0568
   43MOL   C22414588   1.561   3.119   6.040  1.0701  0.1272  0.0717
   43MOL   C22514589   1.689   3.153   5.993 -0.0347  0.2486 -0.1045
   43MOL   C22614590   1.756   3.076   5.897 -0.1473  0.2177  0.4695
   43MOL   C22714591   1.690   2.978   5.826 -0.0760 -0.6366  0.2551
   43MOL   O22814592   1.746   2.927   5.711 -0.3745  0.4008  0.1586
   43MOL   C22914593   1.567   2.940   5.870  0.4645  0.2442  0.6854
   43MOL   C23014594   1.503   3.000   5.985  0.4466 -0.1202 -0.1897
   43MOL   C23114595   1.490   3.103   6.276 -0.7600  0.2369  0.9119
   43MOL   H23214596   1.562   3.283   6.172  1.2176  0.0507 -2.5994
   43MOL   H23314597   1.737   3.235   6.044 -2.4295 -0.3052  3.1828
   43MOL   H23414598   1.848   3.115   5.856 -0.2520  0.7574  0.7357
   43MOL   H23514599   1.681   2.917   5.643 -2.7759  0.9310  2.2765
   43MOL   H23614600   1.503   2.873   5.814  1.8437  0.2618 -0.9451
   43MOL   H23714601   1.409   2.960   6.021  1.6125 -1.4435  1.4537
   43MOL   H23814602   1.439   3.167   6.348  0.8764  1.8581  0.6810
   43MOL   H23914603   1.430   3.015   6.252 -2.3315  0.9616  2.0808
   43MOL   C24014604   1.624   3.051   6.332 -0.2563  0.1753 -0.2571
   43MOL   C24114605   1.677   3.167   6.421 -0.2589  0.8881 -0.1631
   43MOL   C24214606   1.616   3.198   6.552 -0.1381 -0.3967  0.0328
   43MOL   C24314607   1.659   3.309   6.626  0.2379  0.2360 -0.4419
   43MOL   C24414608   1.771   3.382   6.587 -0.4364  0.8657  0.3740
   43MOL   O24514609   1.824   3.478   6.672  0.1178  0.0731 -0.3054
   43MOL   C24614610   1.834   3.347   6.465 -0.5111 -0.1228  0.3610
   43MOL   C24714611   1.788   3.241   6.388 -0.2908 -0.0779 -0.4916
   43MOL   C24814612   1.609   2.919   6.418 -0.0745  0.2704 -0.3852
   43MOL   H24914613   1.693   3.037   6.249 -1.5906 -1.9316 -1.0320
   43MOL   H25014614   1.538   3.135   6.592 -0.4343  0.1185  0.2645
   43MOL   H25114615   1.613   3.331   6.722 -0.1634 -0.3606 -0.4934
   43MOL   H25214616   1.768   3.506   6.742 -0.0391 -1.4226  0.2032
   43MOL   H25314617   1.912   3.414   6.433  1.6135 -2.0816  1.2578
   43MOL   H25414618   1.833   3.220   6.292 -1.5533 -0.0444 -1.0987
   43MOL   H25514619   1.700   2.912   6.477 -0.2719 -1.3502 -0.2624
   43MOL   H25614620   1.527   2.944   6.487  0.4210  1.9392 -0.3616
   43MOL   C25714621   1.585   2.789   6.333 -0.4941  0.2911 -0.5158
   43MOL   C25814622   1.697   2.760   6.232 -0.6757 -0.3900 -0.8641
   43MOL   C25914623   1.664   2.713   6.105  0.4302 -0.1528 -0.2797
   43MOL   C26014624   1.763   2.660   6.021  0.5244 -0.5408  0.2940
   43MOL   C26114625   1.902   2.665   6.053  0.3843 -0.2679  0.3229
   43MOL   O26214626   1.990   2.612   5.965 -0.4421  0.7061  0.0959
   43MOL   C26314627   1.938   2.717   6.179 -0.1282 -0.4773 -0.6301
   43MOL   C26414628   1.837   2.772   6.267  0.7329 -0.8403  0.1992
   43MOL   C26514629   1.552   2.654   6.410 -0.0521 -0.0047 -0.5999
   43MOL   H26614630   1.492   2.813   6.282  0.8299  2.6794 -1.8938
   43MOL   H26714631   1.560   2.700   6.080 -0.4066  0.8034  2.5201
   43MOL   H26814632   1.737   2.616   5.925  0.4112 -2.2298  1.0689
   43MOL   H26914633   1.947   2.616   5.881 -1.9816  2.9187  0.9397
   43MOL   H27014634   2.038   2.716   6.219 -0.3314 -1.6756 -0.1285
   43MOL   H27114635   1.860   2.803   6.367 -1.4161  1.1272  0.1306
   43MOL   H27214636   1.644   2.628   6.461 -0.2270 -1.4160 -0.9832
   43MOL   H27314637   1.532   2.578   6.335 -0.4209  0.1199 -0.6317
   43MOL   C27414638   1.440   2.663   6.517 -0.4261 -0.3066  0.1263
   43MOL   C27514639   1.313   2.730   6.473  0.1757 -0.2983  0.2100
   43MOL   C27614640   1.225   2.666   6.381 -0.3592  0.0320 -0.4238
   43MOL   C27714641   1.109   2.729   6.335  0.2117 -0.3894  0.2311
   43MOL   C27814642   1.076   2.857   6.379  0.0058  0.0215 -0.7355
   43MOL   O27914643   0.974   2.932   6.330  0.5734  0.0337 -0.1753
   43MOL   C28014644   1.156   2.921   6.470 -0.0938  0.6703 -0.8346
   43MOL   C28114645   1.277   2.858   6.513  0.1996  0.1961  0.0204
   43MOL   C28214646   1.481   2.690   6.668 -0.1601  0.3651 -0.0315
   43MOL   H28314647   1.406   2.559   6.526  1.0427 -0.7100  1.1628
   43MOL   H28414648   1.253   2.565   6.357 -0.9069 -0.1925 -0.1397
   43MOL   H28514649   1.044   2.671   6.271 -3.2973  0.6114  2.7357
   43MOL   H28614650   0.940   3.002   6.384 -1.8118 -1.9694  1.0350
   43MOL   H28714651   1.136   3.025   6.492  2.0702  0.9190  0.0717
   43MOL   H28814652   1.346   2.905   6.581 -0.5122  0.6037  0.4586
   43MOL   H28914653   1.495   2.795   6.694 -1.6149  0.3324  0.8986
   43MOL   H29014654   1.399   2.656   6.730 -0.2359  1.6077  0.5597
   43MOL   C29114655   1.603   2.609   6.728  0.0465  0.0515 -0.0271
   43MOL   C29214656   1.608   2.457   6.715  0.7460 -0.1192  0.5833
   43MOL   C29314657   1.492   2.382   6.732  0.0158  0.5132  0.7913
   43MOL   C29414658   1.505   2.239   6.740  0.0063 -0.9382 -0.2664
   43MOL   C29514659   1.626   2.175   6.712 -0.3212 -0.1039 -0.2460
   43MOL   O29614660   1.651   2.040   6.717 -0.4639  0.2989 -0.1712
   43MOL   C29714661   1.739   2.254   6.693 -0.1434 -0.2564  1.0323
   43MOL   C29814662   1.732   2.396   6.703 -0.5838  0.3093  0.5019
   43MOL   C29914663   1.625   2.655   6.876  0.4265 -1.0560  0.2372
   43MOL   H30014664   1.689   2.642   6.671  0.6825 -1.3625  0.0921
   43MOL   H30114665   1.399   2.437   6.738  0.1219  0.8581 -0.6201
   43MOL   H30214666   1.420   2.174   6.757 -1.0915  0.6899  0.5832
   43MOL   H30314667   1.684   2.020   6.631 -1.2930  0.3744 -0.5169
   43MOL   H30414668   1.842   2.223   6.690 -0.1001 -0.4790  3.4379
   43MOL   H30514669   1.827   2.447   6.704 -0.0115 -0.7249 -0.4974
   43MOL   H30614670   1.696   2.584   6.919 -0.2184 -0.8799  1.6302
   43MOL   H30714671   1.534   2.639   6.934 -0.8338 -0.9284 -1.6733
   43MOL   C30814672   1.678   2.794   6.893 -0.3818 -0.5059  0.8542
   43MOL   C30914673   1.801   2.824   6.806 -0.1163 -0.4493 -0.1480
   43MOL   C31014674   1.906   2.728   6.799  0.1590  0.1407 -0.1343
   43MOL   C31114675   2.013   2.751   6.711 -0.3968 -0.5263 -0.4261
   43MOL   C31214676   2.016   2.868   6.629 -0.5771  0.1484 -0.0796
   43MOL   O31314677   2.101   2.873   6.524 -0.2705  0.4588  0.0084
   43MOL   C31414678   1.921   2.967   6.646 -0.5657  0.2669  0.4604
   43MOL   C31514679   1.813   2.950   6.739 -0.4265 -0.1306  1.1255
   43MOL   C31614680   1.705   2.829   7.041 -0.4169  0.2958  0.7851
   43MOL   H31714681   1.602   2.863   6.857 -0.2476 -0.2095  1.1396
   43MOL   H31814682   1.896   2.630   6.843  0.1260  1.4254  2.7813
   43MOL   H31914683   2.079   2.672   6.677  1.1257  1.2506 -1.7658
   43MOL   H32014684   2.178   2.819   6.514  1.1992  2.7512 -1.6335
   43MOL   H32114685   1.929   3.053   6.580 -0.2208 -0.5586 -0.5921
   43MOL   H32214686   1.734   3.024   6.743 -0.8872 -0.6521  1.6660
   43MOL   H32314687   1.767   2.918   7.031  0.1361  0.1406  2.6590
   43MOL   H32414688   1.755   2.748   7.094 -1.1166 -1.6713 -1.4953
   43MOL   C32514689   1.571   2.872   7.120  0.3675 -0.2499  0.3096
   43MOL   C32614690   1.472   2.954   7.038  0.0700 -0.0121  0.0714
   43MOL   C32714691   1.503   3.091   7.012  0.1774  0.1501  0.0841
   43MOL   C32814692   1.404   3.168   6.947  0.1443 -0.0614 -0.0304
   43MOL   C32914693   1.277   3.116   6.916  0.0658  0.1517  0.0772
   43MOL   O33014694   1.186   3.202   6.859  0.4432  0.1507 -0.8361
   43MOL   C33114695   1.252   2.978   6.938  0.1874  0.4177  0.0128
   43MOL   C33214696   1.347   2.898   7.003  0.4767  0.3426  1.1619
   43MOL   C33314697   1.601   2.932   7.254  0.8183 -0.2464  0.2653
   43MOL   H33414698   1.525   2.773   7.132  1.0664 -0.5607  0.4521
   43MOL   H33514699   1.597   3.143   7.023  1.9637 -1.9795 -4.1551
   43MOL   H33614700   1.424   3.272   6.927  1.4083 -0.4688 -0.9411
   43MOL   H33714701   1.101   3.162   6.850  0.7803 -0.4015 -1.7066
   43MOL   H33814702   1.153   2.939   6.919 -0.4681  1.9120  0.3498
   43MOL   H33914703   1.313   2.796   7.018 -1.3807  0.7447 -0.0029
   43MOL   H34014704   1.618   3.040   7.254 -1.7100  0.1721 -1.0507
   43MOL   H34114705   1.686   2.878   7.297  2.9444  2.0619 -0.8727
   43MOL   H34214706   1.517   2.923   7.323  0.7952 -0.9222  0.1528
   44MOL     C114707   3.178   2.946   4.090  0.2294 -0.0716 -0.2292
   44MOL     C214708   3.302   3.047   4.073  0.5630 -0.2263 -0.3821
   44MOL     C314709   3.430   2.990   4.053 -0.0750  0.8818  0.4085
   44MOL     C414710   3.545   3.074   4.033 -0.1318 -0.0214  0.1824
   44MOL     C514711   3.524   3.214   4.050  0.5537 -0.3027  0.4529
   44MOL     O614712   3.629   3.307   4.045 -0.2942 -0.5075 -0.4405
   44MOL     C714713   3.395   3.271   4.071 -0.2107  0.2915  0.5744
   44MOL     C814714   3.285   3.187   4.088  0.6217  0.2679  0.0725
   44MOL     C914715   3.192   2.824   4.001  0.3542  0.7350  0.6302
   44MOL    H1014716   3.162   2.919   4.194 -0.6437  0.4485 -0.2216
   44MOL    H1114717   3.439   2.884   4.040  0.5002  0.8173  1.2709
   44MOL    H1214718   3.642   3.034   4.010 -0.4231 -0.2557 -0.6707
   44MOL    H1314719   3.632   3.338   4.134 -0.1354  1.2885 -1.0588
   44MOL    H1414720   3.386   3.379   4.064 -0.4682  0.2144 -0.5016
   44MOL    H1514721   3.189   3.233   4.107  1.0513  0.2476  2.4726
   44MOL    H1614722   3.278   2.768   4.038  1.1307  1.4665 -0.0571
   44MOL    H1714723   3.217   2.856   3.900 -0.2365 -1.3392 -0.1991
   44MOL    H1814724   3.095   3.005   4.050  3.3494  3.8283 -1.2137
   44MOL    C1914725   3.063   2.732   3.992 -0.1577 -0.7443 -0.2810
   44MOL    C2014726   3.061   2.622   4.095 -0.7407  0.0121  0.9277
   44MOL    C2114727   3.162   2.522   4.098  0.4757 -0.1988  0.0322
   44MOL    C2214728   3.153   2.416   4.187 -0.0701  0.5608  0.2339
   44MOL    C2314729   3.049   2.408   4.280 -0.7794  0.4617 -0.1207
   44MOL    O2414730   3.045   2.299   4.361 -0.0688 -0.2260 -0.2267
   44MOL    C2514731   2.938   2.495   4.268  0.4859  1.0539  0.3705
   44MOL    C2614732   2.950   2.607   4.180 -0.1186 -0.0102  0.0320
   44MOL    C2714733   3.046   2.674   3.851  0.2806  0.5500  0.1180
   44MOL    H2814734   2.981   2.798   4.023  0.5587 -0.8106  1.8425
   44MOL    H2914735   3.232   2.515   4.016  1.6997 -2.1801  1.2322
   44MOL    H3014736   3.228   2.338   4.191 -0.7414 -0.1118 -0.3400
   44MOL    H3114737   3.127   2.280   4.404 -0.7526 -1.4435  0.5874
   44MOL    H3214738   2.847   2.475   4.323  0.8796 -1.4095  0.1812
   44MOL    H3314739   2.862   2.667   4.161  1.0651  0.8575 -2.9964
   44MOL    H3414740   2.956   2.614   3.863  1.0668 -0.3563  1.6982
   44MOL    H3514741   3.120   2.601   3.818 -0.8328 -0.7408  0.4272
   44MOL    C3614742   3.004   2.770   3.733 -0.4439  0.2916 -0.7300
   44MOL    C3714743   2.907   2.877   3.781  0.1099  0.2022  0.7339
   44MOL    C3814744   2.771   2.848   3.814  0.4999 -0.1112  0.0209
   44MOL    C3914745   2.685   2.949   3.851 -0.0993 -0.0200 -0.4390
   44MOL    C4014746   2.736   3.081   3.873 -0.2312  0.6161  0.1389
   44MOL    O4114747   2.657   3.179   3.929  0.3549 -0.2694  0.3943
   44MOL    C4214748   2.872   3.105   3.845 -0.0551 -0.8273  0.0834
   44MOL    C4314749   2.952   3.008   3.796  0.5340  0.2321  0.1887
   44MOL    C4414750   2.959   2.690   3.609 -1.0577 -0.1123  0.1456
   44MOL    H4514751   3.089   2.820   3.688 -0.2456  0.3620 -0.2853
   44MOL    H4614752   2.734   2.747   3.815 -1.2078  0.4634 -1.3976
   44MOL    H4714753   2.584   2.926   3.880 -0.0889  1.6237  1.0256
   44MOL    H4814754   2.711   3.253   3.952 -1.3065  0.3583  2.4611
   44MOL    H4914755   2.906   3.205   3.867 -1.4640 -0.7913  2.2588
   44MOL    H5014756   3.054   3.026   3.765  0.2823  1.6503  0.1348
   44MOL    H5114757   3.041   2.627   3.575 -0.8279  0.2959 -0.0687
   44MOL    H5214758   2.883   2.624   3.651 -1.8949  0.9806  0.3664
   44MOL    C5314759   2.898   2.769   3.486  0.4983 -0.9218  0.8852
   44MOL    C5414760   3.005   2.829   3.400 -0.2112  0.9455 -0.2019
   44MOL    C5514761   3.081   2.747   3.307  0.5816  0.5009 -0.4112
   44MOL    C5614762   3.165   2.810   3.218 -0.1855  0.5852  0.8790
   44MOL    C5714763   3.193   2.949   3.225 -0.1514 -0.4475 -0.4724
   44MOL    O5814764   3.284   3.007   3.146 -0.2097  0.0156 -0.3275
   44MOL    C5914765   3.125   3.030   3.320  0.1671 -0.2587  0.2488
   44MOL    C6014766   3.039   2.966   3.407 -0.0879  0.9664 -0.1148
   44MOL    C6114767   2.784   2.689   3.417  0.0449  0.2180 -0.3398
   44MOL    H6214768   2.844   2.854   3.527  0.5352 -0.9415  0.9731
   44MOL    H6314769   3.048   2.646   3.288  0.5864  0.5144 -0.4904
   44MOL    H6414770   3.208   2.760   3.133 -1.4492  1.2168 -0.1572
   44MOL    H6514771   3.330   2.959   3.079 -0.6468 -0.3591 -0.3602
   44MOL    H6614772   3.151   3.132   3.343  0.2026 -0.2402  0.1302
   44MOL    H6714773   2.985   3.028   3.477  0.9947  1.9821 -0.1765
   44MOL    H6814774   2.712   2.668   3.496  1.5746  0.7065  1.2204
   44MOL    H6914775   2.831   2.594   3.392  1.0948  0.5651  0.2817
   44MOL    C7014776   2.725   2.766   3.294 -0.1001  0.2858 -0.4273
   44MOL    C7114777   2.698   2.913   3.324  0.6763  1.1102 -0.3527
   44MOL    C7214778   2.616   2.959   3.434 -0.9588  0.1043  0.0022
   44MOL    C7314779   2.585   3.095   3.441  0.0611  0.5358  0.1119
   44MOL    C7414780   2.652   3.188   3.366 -0.7833 -0.2566 -0.3663
   44MOL    O7514781   2.637   3.323   3.385 -0.0552 -0.5903 -0.9539
   44MOL    C7614782   2.754   3.141   3.281  0.2176  1.3657  0.4333
   44MOL    C7714783   2.762   3.008   3.242 -0.0105 -0.1567 -0.1015
   44MOL    C7814784   2.604   2.675   3.239  0.4793 -0.1403 -0.6341
   44MOL    H7914785   2.797   2.765   3.212 -0.3223 -2.9126 -0.6426
   44MOL    H8014786   2.567   2.890   3.501  0.0049 -1.0503 -0.4802
   44MOL    H8114787   2.514   3.131   3.513  0.2971 -1.0691  1.1625
   44MOL    H8214788   2.549   3.340   3.416  0.2329 -1.5176  0.4272
   44MOL    H8314789   2.816   3.218   3.236 -0.0797  1.7056  0.6087
   44MOL    H8414790   2.840   2.977   3.174 -1.0596  0.6392 -1.7007
   44MOL    H8514791   2.512   2.663   3.296 -0.4437 -0.5707 -2.1762
   44MOL    H8614792   2.631   2.570   3.230 -1.9010 -0.6699 -2.0100
   44MOL    C8714793   2.570   2.731   3.100 -0.4755 -0.2198  0.2139
   44MOL    C8814794   2.489   2.859   3.097  0.4768 -0.1367 -0.0147
   44MOL    C8914795   2.529   2.967   3.014  0.7973 -0.3353  0.2358
   44MOL    C9014796   2.453   3.081   3.002  1.1319 -0.1223  0.5190
   44MOL    C9114797   2.337   3.097   3.085  0.2116 -0.4726  0.5906
   44MOL    O9214798   2.261   3.217   3.087 -0.1981  0.0177 -0.1468
   44MOL    C9314799   2.294   2.990   3.165  0.9005 -0.1600  0.3823
   44MOL    C9414800   2.370   2.876   3.173 -0.5029 -0.1684 -0.3007
   44MOL    C9514801   2.503   2.627   3.010  0.0722  0.6642 -0.0640
   44MOL    H9614802   2.664   2.748   3.047 -0.5169  0.3695  0.3351
   44MOL    H9714803   2.623   2.962   2.960 -0.2013  0.4961 -1.6323
   44MOL    H9814804   2.484   3.164   2.940 -2.2680 -0.9437 -2.4624
   44MOL    H9914805   2.325   3.285   3.075 -0.0390 -0.0221  0.4530
   44MOL   H10014806   2.199   3.001   3.214  0.6459  1.5764 -0.4842
   44MOL   H10114807   2.328   2.816   3.253 -0.5817  0.4826  0.1468
   44MOL   H10214808   2.409   2.596   3.054  1.2397 -1.9930  0.6655
   44MOL   H10314809   2.498   2.667   2.908 -2.8218  0.2365 -0.1404
   44MOL   C10414810   2.573   2.491   2.994  0.4762 -0.3482  0.2345
   44MOL   C10514811   2.727   2.491   2.962  0.3309 -0.0244 -0.3788
   44MOL   C10614812   2.767   2.503   2.827 -0.5274 -0.0672  0.2255
   44MOL   C10714813   2.911   2.503   2.804 -0.2229 -0.8022  0.3540
   44MOL   C10814814   2.998   2.482   2.911 -0.1139  0.0578  0.0590
   44MOL   O10914815   3.133   2.470   2.885  0.2121  0.3786  0.9510
   44MOL   C11014816   2.950   2.470   3.041 -0.7771  0.3311  0.4997
   44MOL   C11114817   2.813   2.472   3.070 -0.5595 -0.7456  0.6991
   44MOL   C11214818   2.489   2.406   2.896 -0.5312  0.3603 -0.7868
   44MOL   H11314819   2.563   2.441   3.091 -0.0372  0.3549  0.5483
   44MOL   H11414820   2.698   2.513   2.745 -1.0450 -1.3283  0.5002
   44MOL   H11514821   2.956   2.504   2.706 -0.0756  1.9068  0.4047
   44MOL   H11614822   3.162   2.439   2.801  2.1857 -0.1283  1.7728
   44MOL   H11714823   3.016   2.468   3.127  0.7537 -1.0007 -0.6620
   44MOL   H11814824   2.789   2.460   3.174 -1.0153  0.0423  0.6857
   44MOL   H11914825   2.498   2.446   2.795  1.0422  2.6618  0.2267
   44MOL   H12014826   2.385   2.405   2.930  0.1570  0.5525  1.4542
   44MOL   C12114827   2.533   2.261   2.889  0.2576  0.2539  0.5147
   44MOL   C12214828   2.540   2.181   3.016  0.3485 -0.0510  0.6962
   44MOL   C12314829   2.656   2.136   3.067  0.0242 -0.0397  0.3047
   44MOL   C12414830   2.663   2.045   3.176 -0.4188  0.6978 -0.0809
   44MOL   C12514831   2.542   2.002   3.237  0.3575 -0.4748  0.0081
   44MOL   O12614832   2.533   1.915   3.342  0.0443  0.0663 -0.1541
   44MOL   C12714833   2.420   2.047   3.181 -0.5084  0.0842  0.2106
   44MOL   C12814834   2.420   2.123   3.064  0.4738 -0.5335  0.2892
   44MOL   C12914835   2.458   2.189   2.772  0.8349 -0.2020  0.0345
   44MOL   H13014836   2.640   2.264   2.867  0.2410 -0.8350  0.2507
   44MOL   H13114837   2.751   2.161   3.023 -0.9256  1.5219 -0.8980
   44MOL   H13214838   2.757   2.008   3.215 -1.5572 -0.5359  1.5214
   44MOL   H13314839   2.611   1.867   3.365 -0.1516 -0.0633  0.2361
   44MOL   H13414840   2.326   2.024   3.229  0.9083 -0.5469  2.7527
   44MOL   H13514841   2.326   2.160   3.026  0.7224 -0.5544 -0.3535
   44MOL   H13614842   2.455   2.259   2.688  0.2559  1.8685  1.7165
   44MOL   H13714843   2.358   2.153   2.795  0.8860 -0.3901 -0.0440
   44MOL   C13814844   2.532   2.066   2.717  0.1071 -0.2402 -0.5221
   44MOL   C13914845   2.671   2.101   2.669  0.3048 -0.5362 -0.0606
   44MOL   C14014846   2.697   2.199   2.571 -0.0810 -0.6498 -0.5520
   44MOL   C14114847   2.829   2.229   2.534 -0.1883 -0.0256 -0.0714
   44MOL   C14214848   2.934   2.154   2.588 -0.2574  0.6254 -0.4260
   44MOL   O14314849   3.059   2.167   2.544  0.3343  0.6754  0.3325
   44MOL   C14414850   2.914   2.050   2.682 -0.0103  0.2570 -0.0401
   44MOL   C14514851   2.778   2.028   2.721  0.1527 -0.1542 -0.5074
   44MOL   C14614852   2.451   1.982   2.606  0.4714 -0.4690 -0.1213
   44MOL   H14714853   2.540   2.009   2.809 -0.6456  0.0687 -0.2632
   44MOL   H14814854   2.621   2.265   2.531  0.7340  0.8650  0.3442
   44MOL   H14914855   2.843   2.316   2.471 -1.3836 -0.3241 -0.7717
   44MOL   H15014856   3.083   2.085   2.504  0.3850  2.1789 -2.8898
   44MOL   H15114857   3.003   2.007   2.725  0.4006 -0.8761 -1.9688
   44MOL   H15214858   2.757   1.950   2.793  2.1984  0.0201  0.3080
   44MOL   H15314859   2.443   2.036   2.511  1.0424  0.7283  0.4941
   44MOL   H15414860   2.345   1.969   2.628  0.0904  1.8333 -0.4171
   44MOL   C15514861   2.502   1.827   2.596  0.4011  0.0404 -0.0833
   44MOL   C15614862   2.533   1.764   2.735 -0.0049 -0.4840  0.0921
   44MOL   C15714863   2.426   1.761   2.825  0.3526  0.0155  0.2160
   44MOL   C15814864   2.434   1.708   2.952  0.8258  1.3624 -0.9220
   44MOL   C15914865   2.556   1.648   2.995  0.2071  0.2394 -0.0449
   44MOL   O16014866   2.576   1.607   3.128 -0.4646 -0.0418  0.3714
   44MOL   C16114867   2.660   1.635   2.901  0.1272 -0.8824  0.1117
   44MOL   C16214868   2.656   1.696   2.771 -0.4103  0.4703 -0.4742
   44MOL   C16314869   2.612   1.802   2.489 -0.1683  0.3223 -0.4686
   44MOL   H16414870   2.424   1.764   2.555 -1.1432  1.6328  0.3598
   44MOL   H16514871   2.332   1.809   2.800 -0.2221 -0.6227  1.1267
   44MOL   H16614872   2.349   1.702   3.018  0.3416  0.2396 -1.6317
   44MOL   H16714873   2.502   1.624   3.184  0.0358 -0.3601  1.1344
   44MOL   H16814874   2.748   1.578   2.924  0.6337 -0.3639 -0.5282
   44MOL   H16914875   2.739   1.691   2.702 -0.4667  0.3801 -0.5353
   44MOL   H17014876   2.609   1.694   2.481 -0.2732  0.1356  1.8077
   44MOL   H17114877   2.711   1.819   2.532 -1.4005  0.2657  2.5532
   44MOL   C17214878   2.611   1.887   2.356  1.1031  1.0346 -0.2670
   44MOL   C17314879   2.496   1.873   2.262 -1.1191 -0.0197  0.1379
   44MOL   C17414880   2.421   1.983   2.216  0.1523  0.0288 -0.1592
   44MOL   C17514881   2.321   1.966   2.120 -0.8881 -0.5998  0.0570
   44MOL   C17614882   2.286   1.836   2.082  0.0393  0.0993 -0.5233
   44MOL   O17714883   2.181   1.822   1.996 -0.5337 -0.0510 -0.0265
   44MOL   C17814884   2.362   1.725   2.123 -0.2813 -0.6421  0.2608
   44MOL   C17914885   2.473   1.741   2.211 -0.1712 -0.0778  0.4266
   44MOL   C18014886   2.740   1.845   2.284  0.2647 -0.2033  0.2949
   44MOL   H18114887   2.626   1.992   2.380 -3.7327  1.4684  1.3403
   44MOL   H18214888   2.443   2.081   2.254  1.9450 -0.3301 -0.2452
   44MOL   H18314889   2.270   2.055   2.087  1.5694  1.5835  1.9202
   44MOL   H18414890   2.204   1.749   1.940  1.0411  1.4362 -1.4055
   44MOL   H18514891   2.331   1.627   2.088 -0.7760 -0.4982  0.2879
   44MOL   H18614892   2.537   1.656   2.227 -0.7345 -0.9756 -1.8165
   44MOL   H18714893   2.748   1.736   2.283 -0.7703 -0.2741 -1.1673
   44MOL   H18814894   2.818   1.870   2.357 -1.4417 -0.6132  2.3008
   44MOL   C18914895   2.789   1.901   2.150 -0.3261  0.2089  0.1335
   44MOL   C19014896   2.775   2.053   2.139  0.7570  0.6837 -0.4551
   44MOL   C19114897   2.698   2.100   2.028  0.2308  0.4979 -0.5017
   44MOL   C19214898   2.681   2.233   2.003 -0.0295 -0.4997  0.1236
   44MOL   C19314899   2.745   2.326   2.090  1.1663 -0.5013 -0.5084
   44MOL   O19414900   2.734   2.459   2.063 -0.3836 -0.6739  0.1648
   44MOL   C19514901   2.828   2.281   2.198 -0.5096 -0.5644 -0.3925
   44MOL   C19614902   2.840   2.141   2.226 -0.1690 -0.4739 -0.7059
   44MOL   C19714903   2.941   1.862   2.127  0.1104 -0.0049 -0.0104
   44MOL   H19814904   2.724   1.849   2.079 -0.7482 -0.7978  1.2346
   44MOL   H19914905   2.650   2.031   1.961  0.7820 -0.2217 -0.1681
   44MOL   H20014906   2.614   2.273   1.928 -0.0386  0.8529  0.8174
   44MOL   H20114907   2.652   2.481   2.020 -1.4201 -1.4833  1.6780
   44MOL   H20214908   2.883   2.357   2.251  1.1709 -1.5391 -0.7007
   44MOL   H20314909   2.902   2.105   2.307 -2.2385  2.3138  2.2260
   44MOL   H20414910   2.959   1.766   2.175 -0.8813  0.9642  2.3615
   44MOL   H20514911   3.009   1.924   2.185  1.8860 -2.0377  0.1374
   44MOL   C20614912   2.981   1.841   1.977  0.0527 -0.2471  0.2802
   44MOL   C20714913   2.922   1.715   1.920 -0.7630 -0.4262 -0.1138
   44MOL   C20814914   2.985   1.589   1.920  0.1925 -0.2390  1.1779
   44MOL   C20914915   2.937   1.475   1.845 -0.2343  0.1465 -0.4786
   44MOL   C21014916   2.825   1.491   1.762 -0.2145  0.0339 -0.0530
   44MOL   O21114917   2.780   1.384   1.692 -0.5106  0.3241 -0.1422
   44MOL   C21214918   2.759   1.616   1.762  0.3015  0.1856 -0.5365
   44MOL   C21314919   2.808   1.724   1.834  0.3070 -0.5554  0.3423
   44MOL   C21414920   3.135   1.856   1.955  0.4153 -0.2165  0.2631
   44MOL   H21514921   2.937   1.926   1.924  2.0635  0.5732 -0.1210
   44MOL   H21614922   3.081   1.569   1.966  0.6765 -1.0120 -0.1527
   44MOL   H21714923   2.992   1.382   1.850 -2.1045 -1.0518 -1.1435
   44MOL   H21814924   2.710   1.408   1.633 -0.1068 -1.4301 -1.3779
   44MOL   H21914925   2.670   1.639   1.706  0.3915 -2.3754 -1.8422
   44MOL   H22014926   2.760   1.820   1.827 -0.2440 -0.7393  1.5732
   44MOL   H22114927   3.188   1.796   2.029  1.3919  0.9193  0.4974
   44MOL   H22214928   3.172   1.957   1.974  0.8939  0.0807 -2.0453
   44MOL   C22314929   3.195   1.813   1.810 -1.1078  0.3034  0.7849
   44MOL   C22414930   3.345   1.837   1.807 -0.4590  0.7231 -0.0683
   44MOL   C22514931   3.433   1.737   1.854 -0.1069  0.0747 -0.4938
   44MOL   C22614932   3.572   1.762   1.854  0.7596 -0.1904  0.6171
   44MOL   C22714933   3.625   1.876   1.792  0.8458  0.0416  0.1890
   44MOL   O22814934   3.764   1.890   1.794 -0.4157 -0.1115  0.1345
   44MOL   C22914935   3.535   1.976   1.751  0.4869 -0.5683  0.8537
   44MOL   C23014936   3.399   1.954   1.755 -0.2933  0.3975 -0.8079
   44MOL   C23114937   3.117   1.878   1.694  0.7581  0.3382  0.4972
   44MOL   H23214938   3.183   1.708   1.784 -0.4982  0.7437 -1.3613
   44MOL   H23314939   3.389   1.657   1.911  4.2811 -0.5713  2.1691
   44MOL   H23414940   3.639   1.699   1.911  2.3800  1.2232  0.3206
   44MOL   H23514941   3.794   1.975   1.767  0.3236  0.3798  2.4308
   44MOL   H23614942   3.570   2.067   1.703 -0.1689 -0.2498  0.9811
   44MOL   H23714943   3.334   2.035   1.727 -1.0132 -0.4852 -1.6968
   44MOL   H23814944   3.009   1.865   1.688  0.7512  1.2669 -1.9158
   44MOL   H23914945   3.112   1.986   1.706  1.6056  0.5222 -0.7233
   44MOL   C24014946   3.166   1.852   1.551  0.5724  0.2414 -0.5027
   44MOL   C24114947   3.153   1.701   1.526 -0.1381 -0.3202  0.3244
   44MOL   C24214948   3.023   1.643   1.523 -0.3020 -0.1215  0.3504
   44MOL   C24314949   3.016   1.506   1.491 -1.1351 -0.1305  0.0757
   44MOL   C24414950   3.133   1.429   1.475  0.2418 -0.9630  0.0529
   44MOL   O24514951   3.121   1.300   1.450 -0.2276 -0.6437  0.4415
   44MOL   C24614952   3.262   1.497   1.480  0.0939 -0.0137  0.7374
   44MOL   C24714953   3.273   1.633   1.505 -0.0642  0.1673  0.3412
   44MOL   C24814954   3.076   1.915   1.442 -0.2854 -0.1371 -0.7776
   44MOL   H24914955   3.268   1.887   1.537  0.3648  0.7158 -0.8393
   44MOL   H25014956   2.932   1.692   1.555  2.2355  3.5907  2.2235
   44MOL   H25114957   2.920   1.456   1.486  0.0386 -2.2913 -1.8990
   44MOL   H25214958   3.057   1.266   1.511 -1.7205 -0.0616 -0.7651
   44MOL   H25314959   3.346   1.431   1.465 -0.4433 -0.5401 -0.0171
   44MOL   H25414960   3.371   1.679   1.512  0.2257 -0.5999  1.4408
   44MOL   H25514961   3.098   1.865   1.348 -0.9784 -1.6786 -0.1476
   44MOL   H25614962   2.972   1.887   1.462 -1.1713  2.5777 -1.4443
   44MOL   C25714963   3.086   2.067   1.427 -0.1222 -0.6718 -0.1441
   44MOL   C25814964   3.230   2.121   1.423  0.0615 -0.3844 -0.6116
   44MOL   C25914965   3.272   2.218   1.519 -0.0856 -0.2360 -0.4147
   44MOL   C26014966   3.410   2.256   1.517 -0.6268  0.2837 -0.1305
   44MOL   C26114967   3.506   2.191   1.436  0.0751  0.0808  0.1507
   44MOL   O26214968   3.637   2.238   1.438 -0.1970 -0.4539  0.4872
   44MOL   C26314969   3.460   2.100   1.339 -0.8046  0.2502  0.4382
   44MOL   C26414970   3.324   2.066   1.334  0.0987  0.3987 -1.0421
   44MOL   C26514971   2.996   2.116   1.312 -0.0335  0.2673  0.3852
   44MOL   H26614972   3.053   2.094   1.528  0.6158  1.3784 -0.4233
   44MOL   H26714973   3.201   2.252   1.593  0.6248  2.2108 -0.8299
   44MOL   H26814974   3.435   2.331   1.590 -0.4640  0.9686 -0.8774
   44MOL   H26914975   3.666   2.235   1.348 -2.0801  1.6474 -0.2528
   44MOL   H27014976   3.537   2.061   1.274 -0.8607  1.6686 -0.4975
   44MOL   H27114977   3.297   2.001   1.253  0.6462 -3.1374  1.5002
   44MOL   H27214978   2.972   2.031   1.247  2.3240  0.7689 -1.2246
   44MOL   H27314979   3.052   2.181   1.244  2.5016  0.1134  2.2691
   44MOL   C27414980   2.865   2.180   1.362  0.0037 -0.1453 -0.0902
   44MOL   C27514981   2.776   2.084   1.442 -0.1189 -0.0070  0.0553
   44MOL   C27614982   2.721   2.119   1.566  0.1809  0.0842  0.4870
   44MOL   C27714983   2.635   2.033   1.638  0.3991  0.2952  0.4486
   44MOL   C27814984   2.601   1.910   1.586  0.4523 -0.0506  1.1430
   44MOL   O27914985   2.511   1.829   1.651 -0.1783 -0.5479 -0.2234
   44MOL   C28014986   2.650   1.874   1.457 -0.3916  0.1649  0.7200
   44MOL   C28114987   2.739   1.957   1.390  0.5716 -0.1789 -0.2555
   44MOL   C28214988   2.785   2.236   1.246 -0.5126 -0.1825 -0.0229
   44MOL   H28314989   2.899   2.262   1.425  2.9912 -0.5012 -1.1933
   44MOL   H28414990   2.743   2.213   1.614 -0.3489  0.9448 -0.9212
   44MOL   H28514991   2.618   2.058   1.742 -1.3370 -1.4319  0.6135
   44MOL   H28614992   2.442   1.881   1.688  1.6891  2.7956 -1.1865
   44MOL   H28714993   2.622   1.783   1.406  0.0240  1.2666 -1.5059
   44MOL   H28814994   2.782   1.933   1.294  1.6152  0.7927 -0.0289
   44MOL   H28914995   2.847   2.292   1.176  0.6167  2.2142  2.7957
   44MOL   H29014996   2.755   2.148   1.188 -1.6601 -1.3512  2.2886
   44MOL   C29114997   2.657   2.320   1.295  0.0218  1.2025 -0.1282
   44MOL   C29214998   2.563   2.329   1.174 -0.0508 -0.4172  0.3290
   44MOL   C29314999   2.583   2.433   1.077  0.3410 -0.9004  0.5583
   44MOL   C29415000   2.506   2.432   0.960 -0.0822 -0.6266  0.6810
   44MOL   C29515001   2.414   2.329   0.936 -0.4036  0.1394 -0.2739
   44MOL   O29615002   2.338   2.336   0.822 -0.2856 -0.3459 -0.5632
   44MOL   C29715003   2.395   2.221   1.033 -0.1299 -0.2754 -0.6692
   44MOL   C29815004   2.472   2.225   1.150 -0.0274  0.0306 -0.7679
   44MOL   C29915005   2.688   2.451   1.365 -0.0792 -0.5058 -0.3251
   44MOL   H30015006   2.607   2.258   1.369  1.8072 -1.4392 -1.0584
   44MOL   H30115007   2.651   2.515   1.097 -0.9087  0.2034  0.3840
   44MOL   H30215008   2.510   2.511   0.886 -1.6638 -1.4750 -0.3419
   44MOL   H30315009   2.365   2.388   0.747 -0.9223  1.3120  0.3239
   44MOL   H30415010   2.329   2.137   1.018 -0.7873 -0.2436  1.7814
   44MOL   H30515011   2.471   2.146   1.223 -0.5819 -0.0071 -0.8130
   44MOL   H30615012   2.733   2.516   1.290  1.7115 -1.1145  0.2110
   44MOL   H30715013   2.757   2.439   1.448  0.3697 -0.1198 -0.6416
   44MOL   C30815014   2.569   2.522   1.427 -0.1543  0.9423 -0.3930
   44MOL   C30915015   2.586   2.671   1.421 -0.7099 -0.8571  0.1391
   44MOL   C31015016   2.681   2.746   1.498 -0.1022 -0.1261 -0.3532
   44MOL   C31115017   2.701   2.879   1.472  0.1101  0.4088 -0.1270
   44MOL   C31215018   2.627   2.942   1.369  0.6099  0.2050 -0.7914
   44MOL   O31315019   2.662   3.068   1.343  0.0451 -0.2084 -0.2356
   44MOL   C31415020   2.523   2.875   1.304 -0.1086  0.3284  0.3330
   44MOL   C31515021   2.502   2.745   1.334 -0.2129 -0.3060 -0.0416
   44MOL   C31615022   2.524   2.462   1.565  0.1531  0.1051 -0.4564
   44MOL   H31715023   2.482   2.493   1.368 -1.3862  1.3356  1.2005
   44MOL   H31815024   2.746   2.702   1.573  0.7109 -0.2280 -1.1105
   44MOL   H31915025   2.771   2.931   1.535  0.4715  1.8341 -1.6799
   44MOL   H32015026   2.596   3.134   1.330  2.3725  2.3832  0.5604
   44MOL   H32115027   2.462   2.928   1.233  1.7588 -0.3874 -1.8289
   44MOL   H32215028   2.428   2.694   1.275 -1.1731 -0.0256  0.9091
   44MOL   H32315029   2.603   2.466   1.640  1.6066  2.4390 -2.0272
   44MOL   H32415030   2.517   2.354   1.569  0.3537  0.0998 -0.2410
   44MOL   C32515031   2.408   2.534   1.641 -0.1856 -0.9433  0.4314
   44MOL   C32615032   2.395   2.491   1.784 -0.0602  0.3390 -0.0530
   44MOL   C32715033   2.360   2.355   1.817 -0.0510 -0.0111  0.4364
   44MOL   C32815034   2.337   2.326   1.957  0.7923 -0.2576  0.2587
   44MOL   C32915035   2.356   2.423   2.055 -0.2913 -0.0134  0.2462
   44MOL   O33015036   2.340   2.388   2.187  0.4864  0.2564  0.0242
   44MOL   C33115037   2.397   2.551   2.023  0.9159  0.0232  0.1963
   44MOL   C33215038   2.419   2.585   1.885  0.2414 -0.3824 -0.6064
   44MOL   C33315039   2.272   2.543   1.566  0.6663 -0.1961  0.2716
   44MOL   H33415040   2.428   2.642   1.643 -0.6214 -0.8771  1.4635
   44MOL   H33515041   2.341   2.284   1.738 -1.1902  0.6651  0.0954
   44MOL   H33615042   2.309   2.225   1.982 -0.5434 -0.0497 -0.3144
   44MOL   H33715043   2.374   2.459   2.239 -0.8563  0.2817  0.8901
   44MOL   H33815044   2.389   2.627   2.099  1.1579  3.1274 -2.7910
   44MOL   H33915045   2.435   2.689   1.861 -2.5706  0.4013  0.6353
   44MOL   H34015046   2.205   2.614   1.613 -0.0903 -0.9916  0.4160
   44MOL   H34115047   2.217   2.448   1.563 -1.1332  0.8671 -1.7108
   44MOL   H34215048   2.287   2.579   1.464  1.2866  1.0585  0.7997
   45MOL     C115049   2.145   1.970   5.429 -0.1938 -0.3994 -0.2984
   45MOL     C215050   2.243   1.895   5.342  0.2061  0.4973  0.0466
   45MOL     C315051   2.201   1.851   5.215 -0.3628  0.1844 -0.2743
   45MOL     C415052   2.287   1.762   5.145  0.2201  0.1040  0.3490
   45MOL     C515053   2.416   1.728   5.193  0.5177 -0.0066  1.0936
   45MOL     O615054   2.505   1.651   5.123 -0.6928 -0.8922 -0.0334
   45MOL     C715055   2.458   1.781   5.314  0.5548 -0.2619 -0.2920
   45MOL     C815056   2.369   1.859   5.392 -0.6368  0.1749  0.8704
   45MOL     C915057   2.079   1.880   5.545  0.1126  0.5540 -0.0116
   45MOL    H1015058   2.205   2.044   5.482  1.1706 -0.5359 -1.6220
   45MOL    H1115059   2.105   1.871   5.170 -0.5697  0.6142  0.3580
   45MOL    H1215060   2.269   1.734   5.042 -3.9574 -1.0983  1.2927
   45MOL    H1315061   2.465   1.611   5.047  0.5007  0.9997 -1.6810
   45MOL    H1415062   2.555   1.759   5.356  1.6534  2.2776 -1.3910
   45MOL    H1515063   2.403   1.889   5.490  0.5687 -1.9174  1.1313
   45MOL    H1615064   1.998   1.937   5.591 -1.4148 -0.3578 -1.4951
   45MOL    H1715065   2.150   1.867   5.626 -0.9431  1.5601  1.0938
   45MOL    H1815066   2.073   2.020   5.365 -1.9133  0.0521  1.9251
   45MOL    C1915067   2.031   1.741   5.502 -0.1727  0.2611 -0.2599
   45MOL    C2015068   1.940   1.742   5.380 -0.0127  0.3532 -1.0707
   45MOL    C2115069   1.832   1.831   5.371  1.3406  0.1564 -0.2120
   45MOL    C2215070   1.744   1.816   5.264 -0.3381  0.5167 -0.0127
   45MOL    C2315071   1.763   1.710   5.177 -0.7171 -0.3114  0.5316
   45MOL    O2415072   1.672   1.687   5.079  0.3605 -0.2719 -0.3384
   45MOL    C2515073   1.865   1.619   5.191  0.1066 -0.2715 -0.3213
   45MOL    C2615074   1.953   1.632   5.295  0.2290  0.0065 -0.8143
   45MOL    C2715075   1.953   1.677   5.620  0.4664 -0.4338  0.4979
   45MOL    H2815076   2.122   1.687   5.477  0.7492  0.8126  1.8034
   45MOL    H2915077   1.813   1.911   5.440 -2.1634 -0.0643 -0.8320
   45MOL    H3015078   1.666   1.889   5.254 -1.0543 -0.2325  0.0580
   45MOL    H3115079   1.611   1.755   5.059  0.5387  0.0336  0.1358
   45MOL    H3215080   1.884   1.533   5.127 -0.1356 -1.0721  0.6760
   45MOL    H3315081   2.024   1.553   5.314 -0.1646 -0.0429  0.4785
   45MOL    H3415082   1.861   1.729   5.644  1.4914  0.4976  2.5012
   45MOL    H3515083   2.017   1.695   5.707  0.8537  2.4261 -0.3093
   45MOL    C3615084   1.920   1.532   5.613  0.1065 -0.2897 -0.2561
   45MOL    C3715085   1.806   1.508   5.715  0.2984  0.8552  0.0836
   45MOL    C3815086   1.833   1.528   5.852 -0.3299  0.1319  0.5151
   45MOL    C3915087   1.750   1.475   5.944  0.6299  0.8254 -0.2029
   45MOL    C4015088   1.640   1.397   5.905 -0.2815 -1.2501 -0.1549
   45MOL    O4115089   1.560   1.339   5.997 -0.4362  0.8110 -0.0732
   45MOL    C4215090   1.609   1.380   5.766 -0.1165  0.3497  0.2411
   45MOL    C4315091   1.695   1.432   5.671 -0.1297 -0.2592 -0.2660
   45MOL    C4415092   2.034   1.428   5.630  0.0712  0.1141 -0.3545
   45MOL    H4515093   1.888   1.508   5.512 -2.6815 -0.3037  0.6045
   45MOL    H4615094   1.930   1.566   5.880 -0.1403 -0.2344  0.3573
   45MOL    H4715095   1.770   1.495   6.048 -0.3443 -0.1018  0.1629
   45MOL    H4815096   1.616   1.307   6.065 -2.2790  0.9589  1.5524
   45MOL    H4915097   1.524   1.320   5.738  0.9104 -1.1463  0.2474
   45MOL    H5015098   1.669   1.410   5.568 -0.3247  1.3167 -0.5769
   45MOL    H5115099   2.087   1.438   5.535  0.3470 -1.0197 -0.3201
   45MOL    H5215100   2.097   1.449   5.716 -0.1364 -0.7968  0.0183
   45MOL    C5315101   2.004   1.274   5.645  0.0221  1.3555 -0.1049
   45MOL    C5415102   2.096   1.188   5.557 -0.8392 -0.3088  0.0074
   45MOL    C5515103   2.237   1.177   5.593 -0.0101  0.0302 -0.4806
   45MOL    C5615104   2.331   1.120   5.508 -0.3055  0.0194  0.2484
   45MOL    C5715105   2.289   1.072   5.386  0.4922 -0.0948 -0.3065
   45MOL    O5815106   2.379   1.020   5.294  0.5582 -0.3984  0.3309
   45MOL    C5915107   2.157   1.080   5.347  0.6120 -0.0918  0.3504
   45MOL    C6015108   2.057   1.133   5.432 -0.4830  0.0653  0.2727
   45MOL    C6115109   1.983   1.218   5.781  0.0243 -0.1782  1.2648
   45MOL    H6215110   1.906   1.261   5.598  1.3082  1.3059 -2.8929
   45MOL    H6315111   2.273   1.225   5.683 -1.3412 -0.7768  0.4891
   45MOL    H6415112   2.435   1.104   5.531 -0.0771  1.6323  0.3876
   45MOL    H6515113   2.464   1.028   5.335  0.7115 -1.5094  0.2344
   45MOL    H6615114   2.134   1.046   5.247 -1.7310  1.1763  0.4317
   45MOL    H6715115   1.955   1.137   5.397  0.9569 -1.2366 -4.4197
   45MOL    H6815116   1.889   1.257   5.819 -1.0582 -1.6917  0.2229
   45MOL    H6915117   2.058   1.244   5.856  1.4830  1.5663 -0.7314
   45MOL    C7015118   1.964   1.065   5.796 -0.5807  0.3780 -0.7309
   45MOL    C7115119   1.839   1.020   5.715  0.4717  0.3924 -0.2442
   45MOL    C7215120   1.709   1.048   5.756  0.1287  1.2957 -0.6259
   45MOL    C7315121   1.597   1.003   5.685 -0.2058  0.7303  0.4342
   45MOL    C7415122   1.618   0.934   5.561 -0.6340  0.0407 -0.6690
   45MOL    O7515123   1.509   0.904   5.478 -0.2587 -0.1370  0.6939
   45MOL    C7615124   1.748   0.899   5.519  0.2618  0.4645  1.1530
   45MOL    C7715125   1.857   0.943   5.599 -0.6298 -0.4566  0.9819
   45MOL    C7815126   1.953   1.022   5.948  0.2879  0.7582 -0.2347
   45MOL    H7915127   2.054   1.021   5.752  0.3351  0.0947  1.3416
   45MOL    H8015128   1.696   1.098   5.851 -2.1448 -0.6808  0.1769
   45MOL    H8115129   1.496   1.023   5.719 -1.1547 -0.5490 -1.5786
   45MOL    H8215130   1.531   0.878   5.390 -1.3913 -0.0971  0.3995
   45MOL    H8315131   1.756   0.845   5.426  3.3822 -0.5275  1.9331
   45MOL    H8415132   1.956   0.911   5.570 -0.9660 -0.6097 -0.0430
   45MOL    H8515133   1.876   1.080   5.998 -0.1179  0.3158 -0.3439
   45MOL    H8615134   2.045   1.055   5.998  1.2271 -1.1497 -0.6429
   45MOL    C8715135   1.918   0.875   5.971 -0.9205 -0.0610 -0.5528
   45MOL    C8815136   1.929   0.838   6.125 -0.3610 -0.0058  0.4847
   45MOL    C8915137   1.804   0.805   6.192  0.4728 -0.0029  0.6617
   45MOL    C9015138   1.805   0.780   6.333 -0.1156  0.6104  0.3481
   45MOL    C9115139   1.924   0.810   6.406 -0.2349  1.0614 -0.2794
   45MOL    O9215140   1.924   0.805   6.545  0.3935  0.0055 -0.4265
   45MOL    C9315141   2.037   0.852   6.336 -0.2618  0.6804  0.4035
   45MOL    C9415142   2.049   0.861   6.196  0.0494 -0.0341 -0.9573
   45MOL    C9515143   2.025   0.784   5.887 -0.2643  0.2768  0.3651
   45MOL    H9615144   1.812   0.869   5.946 -0.7032  6.1726 -4.0215
   45MOL    H9715145   1.712   0.799   6.135  0.8114  1.6465 -0.0649
   45MOL    H9815146   1.718   0.756   6.392  0.9866 -0.4445  1.5813
   45MOL    H9915147   2.012   0.822   6.575  0.2359 -1.6437  1.0667
   45MOL   H10015148   2.125   0.878   6.394  0.6319  0.7525 -0.9455
   45MOL   H10115149   2.137   0.893   6.143 -0.3651 -0.0850 -1.6865
   45MOL   H10215150   2.041   0.808   5.782 -1.6332  2.0723  0.5490
   45MOL   H10315151   2.122   0.790   5.938  0.9605  1.6296 -2.0389
   45MOL   C10415152   1.972   0.637   5.881  0.3901  0.0084 -0.0652
   45MOL   C10515153   2.086   0.534   5.871 -0.3589  0.0646  0.4357
   45MOL   C10615154   2.109   0.441   5.979  0.1768  0.1511 -0.2366
   45MOL   C10715155   2.223   0.359   5.966  0.5694 -0.2171 -0.8599
   45MOL   C10815156   2.318   0.376   5.864 -0.1773 -0.0406  0.0656
   45MOL   O10915157   2.442   0.318   5.874 -0.1969  0.0748 -0.2699
   45MOL   C11015158   2.282   0.456   5.754  0.9261 -0.5651  0.4190
   45MOL   C11115159   2.173   0.540   5.760  0.4281  0.2369 -0.2300
   45MOL   C11215160   1.878   0.615   5.758  0.0396  0.2767 -0.0971
   45MOL   H11315161   1.916   0.613   5.972 -2.0216  1.4743 -1.0963
   45MOL   H11415162   2.051   0.432   6.070 -1.4244 -0.4705 -1.2941
   45MOL   H11515163   2.253   0.290   6.044  2.1745  3.0688  1.5834
   45MOL   H11615164   2.479   0.328   5.960  0.0774 -1.1744 -0.2298
   45MOL   H11715165   2.349   0.453   5.670 -0.1305 -0.6974 -0.4284
   45MOL   H11815166   2.151   0.599   5.672 -0.4164  0.9177  0.4395
   45MOL   H11915167   1.917   0.621   5.657 -2.6437  0.4507 -1.1687
   45MOL   H12015168   1.819   0.707   5.752 -0.6839 -0.2497 -1.1820
   45MOL   C12115169   1.778   0.490   5.770 -0.2559 -0.2844  0.2868
   45MOL   C12215170   1.646   0.526   5.711  0.2359 -0.5469 -0.7653
   45MOL   C12315171   1.530   0.549   5.785 -0.1473  0.4091 -0.1374
   45MOL   C12415172   1.406   0.570   5.716 -0.2555 -0.1950  0.6927
   45MOL   C12515173   1.400   0.576   5.580 -0.5312  0.0822  0.3490
   45MOL   O12615174   1.280   0.598   5.517 -0.6199  0.2209 -0.1900
   45MOL   C12715175   1.518   0.573   5.503  0.2580 -0.7990  0.1451
   45MOL   C12815176   1.640   0.548   5.570 -0.3126  0.4540  0.0617
   45MOL   C12915177   1.833   0.357   5.712  0.2129 -0.3381  0.1496
   45MOL   H13015178   1.767   0.480   5.878  1.4049  0.4965  0.5445
   45MOL   H13115179   1.521   0.531   5.891 -1.2367  2.2445  0.1022
   45MOL   H13215180   1.315   0.583   5.773 -1.0026  0.5525 -0.6516
   45MOL   H13315181   1.208   0.621   5.574 -0.4121  2.9734 -0.9795
   45MOL   H13415182   1.526   0.578   5.395 -1.5679 -0.8823 -0.0091
   45MOL   H13515183   1.730   0.538   5.511  1.0988  0.9765  2.0603
   45MOL   H13615184   1.932   0.348   5.756 -1.4920 -2.9401  3.6376
   45MOL   H13715185   1.856   0.385   5.609  1.3614 -2.4641 -0.1907
   45MOL   C13815186   1.753   0.227   5.737  0.0287 -0.0543 -0.2170
   45MOL   C13915187   1.760   0.199   5.885 -0.6826 -0.2625  0.0085
   45MOL   C14015188   1.651   0.221   5.977 -0.1188  0.7122  0.3449
   45MOL   C14115189   1.673   0.194   6.111  0.0913  0.3929 -0.4278
   45MOL   C14215190   1.796   0.155   6.165 -0.6907 -0.4882 -0.4557
   45MOL   O14315191   1.802   0.146   6.297  0.1015 -0.1666  0.2363
   45MOL   C14415192   1.895   0.115   6.079 -0.7304  0.3670 -0.5045
   45MOL   C14515193   1.881   0.136   5.941  0.6117  0.2894 -0.4362
   45MOL   C14615194   1.786   0.121   5.644  0.5905 -0.3190  0.2638
   45MOL   H14715195   1.645   0.233   5.723  0.1903  1.3803 -0.8869
   45MOL   H14815196   1.554   0.240   5.935  0.0726  1.9997  0.4709
   45MOL   H14915197   1.584   0.203   6.172 -0.0352  1.8625 -0.7908
   45MOL   H15015198   1.727   0.189   6.336 -1.3838 -2.3355 -0.1649
   45MOL   H15115199   1.987   0.081   6.124 -0.2884  1.8712 -0.2364
   45MOL   H15215200   1.964   0.115   5.875  2.0752  0.0380  1.4429
   45MOL   H15315201   1.724   0.035   5.667 -1.6563  0.6689 -1.8928
   45MOL   H15415202   1.888   0.086   5.664  0.1947 -1.8403 -0.3190
   45MOL   C15515203   1.756   0.153   5.495 -0.3286 -0.5522 -0.4273
   45MOL   C15615204   1.623   0.095   5.453 -0.5332 -0.3474  0.7710
   45MOL   C15715205   1.606   7.998   5.431  0.5543  0.2944 -0.0777
   45MOL   C15815206   1.478   7.954   5.388  0.1054 -0.0259 -0.2101
   45MOL   C15915207   1.370   0.003   5.361  0.3452 -0.0345 -0.1348
   45MOL   O16015208   1.254   7.987   5.317 -0.4125 -1.0833 -0.1122
   45MOL   C16115209   1.390   0.137   5.381  0.1210  0.5259 -0.5372
   45MOL   C16215210   1.510   0.176   5.435  0.8946 -0.4332  0.1230
   45MOL   C16315211   1.871   0.119   5.396  0.6940  0.0532 -0.6814
   45MOL   H16415212   1.740   0.260   5.485  0.0727 -0.2248  2.1549
   45MOL   H16515213   1.693   7.936   5.445  0.8501  0.2047 -2.1730
   45MOL   H16615214   1.472   7.847   5.386  0.0251 -0.0173 -0.6437
   45MOL   H16715215   1.199   8.020   5.248  1.5227 -0.5491 -1.4532
   45MOL   H16815216   1.313   0.211   5.363 -1.0990 -1.0026 -1.7537
   45MOL   H16915217   1.517   0.283   5.449  0.8016 -0.9274  4.7512
   45MOL   H17015218   1.836   0.135   5.294 -2.0627  1.7475  0.4702
   45MOL   H17115219   1.884   0.014   5.422 -1.2945 -0.7038 -2.6141
   45MOL   C17215220   1.998   0.203   5.421  0.7633 -0.2437 -0.0126
   45MOL   C17315221   2.003   0.346   5.377  0.2847  0.2239 -1.0349
   45MOL   C17415222   1.895   0.417   5.329 -0.0680  0.1640 -0.7651
   45MOL   C17515223   1.894   0.560   5.305 -0.3443  0.7878 -0.0188
   45MOL   C17615224   2.021   0.625   5.318  0.3002  0.4656  0.1503
   45MOL   O17715225   2.034   0.750   5.277 -0.2592  0.0399 -0.1334
   45MOL   C17815226   2.135   0.558   5.371 -0.1002  0.0920  0.2244
   45MOL   C17915227   2.118   0.421   5.407 -0.0311 -0.0074 -0.2684
   45MOL   C18015228   2.111   0.116   5.354  0.5396 -0.0502  0.0881
   45MOL   H18115229   2.015   0.205   5.529  0.9339  0.3102 -0.0509
   45MOL   H18215230   1.796   0.375   5.324 -0.9926  1.9002  1.7551
   45MOL   H18315231   1.806   0.602   5.258 -0.7131 -0.7503 -0.7500
   45MOL   H18415232   2.123   0.781   5.271 -0.5541  0.8352 -0.5591
   45MOL   H18515233   2.221   0.617   5.398  0.1248 -0.5017  0.8171
   45MOL   H18615234   2.196   0.372   5.463 -0.2785 -0.8592 -0.6613
   45MOL   H18715235   2.180   0.188   5.311  1.8452 -0.2306  1.7947
   45MOL   H18815236   2.071   0.064   5.267 -3.0552  2.0292  0.3888
   45MOL   C18915237   2.187   0.012   5.438 -0.3428  0.4047  0.5702
   45MOL   C19015238   2.228   7.937   5.352 -0.8634  0.5571 -0.4853
   45MOL   C19115239   2.161   7.810   5.356 -0.4356 -0.2447  0.4598
   45MOL   C19215240   2.203   7.702   5.277 -0.9396 -0.3819  0.0358
   45MOL   C19315241   2.312   7.721   5.188  0.0507  0.2679 -0.5151
   45MOL   O19415242   2.355   7.617   5.120 -0.1829 -0.3795  0.1024
   45MOL   C19515243   2.380   7.847   5.189  0.0628 -0.5168 -0.3685
   45MOL   C19615244   2.337   7.951   5.264  0.1085 -0.1745 -0.0045
   45MOL   C19715245   2.296   0.083   5.520 -0.1090  0.5238 -0.7210
   45MOL   H19815246   2.105   8.007   5.497 -1.4997 -1.4980 -2.2529
   45MOL   H19915247   2.075   7.796   5.420  0.1908  0.5164  1.4659
   45MOL   H20015248   2.157   7.605   5.281 -1.5292 -0.0798  0.7113
   45MOL   H20115249   2.342   7.533   5.161  0.5863 -2.1708 -3.1377
   45MOL   H20215250   2.453   7.864   5.111 -1.2346  0.5438 -1.3720
   45MOL   H20315251   2.384   0.010   5.258 -2.6560  1.2083  0.1841
   45MOL   H20415252   2.251   0.158   5.585 -0.2040 -0.3838  0.2770
   45MOL   H20515253   2.363   0.129   5.448  0.5179 -0.5340 -0.8293
   45MOL   C20615254   2.376   8.014   5.601 -0.4832  0.4620  0.1499
   45MOL   C20715255   2.292   7.928   5.690 -0.4138  0.4952 -0.2274
   45MOL   C20815256   2.187   7.970   5.773  0.4848 -0.4291 -0.1998
   45MOL   C20915257   2.111   7.871   5.843  0.6168 -0.9028 -0.8261
   45MOL   C21015258   2.140   7.732   5.829 -0.0739 -0.1369  0.1322
   45MOL   O21115259   2.049   7.638   5.869  0.2059  0.0340  0.1803
   45MOL   C21215260   2.251   7.691   5.745  0.0875 -0.6913 -0.1029
   45MOL   C21315261   2.329   7.788   5.682  0.2239 -0.0812  0.6597
   45MOL   C21415262   2.477   0.052   5.683  0.4114 -0.7496  0.3797
   45MOL   H21515263   2.440   7.957   5.534 -1.2031  2.5227 -2.3743
   45MOL   H21615264   2.150   0.034   5.770 -1.1102 -1.0230 -1.3252
   45MOL   H21715265   2.043   7.899   5.922  1.8557 -0.9718  0.2659
   45MOL   H21815266   1.965   7.680   5.865  0.5610  0.5749 -2.5929
   45MOL   H21915267   2.276   7.587   5.732  1.7503 -0.4970  1.3256
   45MOL   H22015268   2.417   7.765   5.624  0.6519  1.1458  0.8047
   45MOL   H22115269   2.531   8.017   5.744 -0.0774 -0.9634  0.5554
   45MOL   H22215270   2.417   0.110   5.753 -1.8712  0.4318 -2.4494
   45MOL   C22315271   2.584   0.128   5.603  0.1207  0.2042  0.2019
   45MOL   C22415272   2.648   0.055   5.482  0.9138  0.2177  0.0728
   45MOL   C22515273   2.643   0.113   5.350  0.2183  0.0008 -0.5037
   45MOL   C22615274   2.716   0.043   5.250  0.3415  0.2133 -0.0475
   45MOL   C22715275   2.774   7.958   5.275 -0.1473  0.0748 -0.1775
   45MOL   O22815276   2.837   7.895   5.169 -0.0204 -0.0920 -0.4501
   45MOL   C22915277   2.765   7.899   5.406 -1.1759 -0.1329  0.2404
   45MOL   C23015278   2.699   7.964   5.508 -0.5695 -0.2573 -0.0052
   45MOL   C23115279   2.697   0.200   5.691  0.9288  0.2825 -0.0181
   45MOL   H23215280   2.538   0.215   5.557 -0.3106  1.5812  3.0873
   45MOL   H23315281   2.601   0.212   5.338 -0.1512 -0.0301  0.4396
   45MOL   H23415282   2.723   0.088   5.152 -4.1309  1.0231 -0.0853
   45MOL   H23515283   2.869   7.956   5.105 -0.2994 -1.7141 -2.1694
   45MOL   H23615284   2.799   7.799   5.424 -0.6785 -0.0841 -0.3686
   45MOL   H23715285   2.694   7.932   5.611  2.0026 -0.1598  0.1839
   45MOL   H23815286   2.655   0.257   5.774  0.9165 -0.6547  0.6240
   45MOL   H23915287   2.753   0.117   5.733 -2.5527 -0.9034  2.5434
   45MOL   C24015288   2.790   0.294   5.616  0.0488  0.5120 -0.0247
   45MOL   C24115289   2.715   0.419   5.567  0.1434 -0.0976 -0.3910
   45MOL   C24215290   2.635   0.498   5.657  0.2450  0.2896 -0.5197
   45MOL   C24315291   2.563   0.611   5.618 -0.3637  0.4889  0.2259
   45MOL   C24415292   2.571   0.652   5.482 -0.7474  0.4141  0.4922
   45MOL   O24515293   2.504   0.759   5.439  0.0609 -0.0652 -0.3564
   45MOL   C24615294   2.645   0.572   5.391 -0.2165  0.6464  0.3241
   45MOL   C24715295   2.717   0.460   5.434  0.2592  0.7571  0.7739
   45MOL   C24815296   2.911   0.326   5.708 -0.6675 -0.8031 -0.2255
   45MOL   H24915297   2.834   0.244   5.530  0.0562  0.2440  0.1332
   45MOL   H25015298   2.627   0.459   5.758  1.8245  1.6615  0.1613
   45MOL   H25115299   2.507   0.667   5.692 -2.0615 -0.2175 -0.4942
   45MOL   H25215300   2.455   0.728   5.364  1.9605 -0.6874 -1.3627
   45MOL   H25315301   2.654   0.595   5.286 -0.4285 -0.5278  0.0495
   45MOL   H25415302   2.767   0.389   5.371  1.4810  0.9955  1.4467
   45MOL   H25515303   2.957   0.410   5.657 -1.6669 -0.4320 -0.5379
   45MOL   H25615304   2.867   0.352   5.804 -1.0344  0.0833 -0.6294
   45MOL   C25715305   3.019   0.216   5.730 -0.6504 -0.3263 -0.0628
   45MOL   C25815306   3.057   0.135   5.602  0.1293  0.2241  0.5236
   45MOL   C25915307   3.039   8.037   5.601 -0.5592 -0.8708  0.0983
   45MOL   C26015308   3.089   7.956   5.500  0.2771 -0.6437  0.1876
   45MOL   C26115309   3.150   8.015   5.392  0.4396 -0.1145 -0.0206
   45MOL   O26215310   3.186   7.927   5.293  0.1322 -0.2032 -0.3581
   45MOL   C26315311   3.167   0.114   5.383 -0.1208  0.9350 -0.2602
   45MOL   C26415312   3.123   0.192   5.490  0.3851  0.2638  0.1472
   45MOL   C26515313   3.147   0.275   5.798 -0.1424 -0.0877  0.9623
   45MOL   H26615314   2.990   0.141   5.804 -0.8443  1.4278  1.6922
   45MOL   H26715315   2.991   7.996   5.689 -0.4677 -1.4327 -0.1117
   45MOL   H26815316   3.064   7.851   5.506 -1.8435 -0.2407 -1.1352
   45MOL   H26915317   3.128   7.853   5.288 -0.7546  0.5746 -1.9998
   45MOL   H27015318   3.222   0.150   5.297  0.0608  0.6527 -0.2627
   45MOL   H27115319   3.120   0.300   5.482 -1.2286  0.3064  1.0651
   45MOL   H27215320   3.108   0.332   5.882 -0.4716 -0.3587  0.9938
   45MOL   H27315321   3.196   0.349   5.735  2.7775 -0.6906  2.4729
   45MOL   C27415322   3.253   0.179   5.855 -0.4736 -0.5444  0.2583
   45MOL   C27515323   3.197   0.054   5.939  0.0327 -0.0700  0.1676
   45MOL   C27615324   3.112   0.065   6.055 -0.1045 -0.6671 -0.3549
   45MOL   C27715325   3.050   7.990   6.109  0.2850 -0.4089  1.6087
   45MOL   C27815326   3.075   7.860   6.059  0.9254 -0.7496  0.0307
   45MOL   O27915327   3.018   7.756   6.116  0.6625 -0.4429  0.9846
   45MOL   C28015328   3.165   7.847   5.948  0.0313  0.6090 -0.1869
   45MOL   C28115329   3.229   7.959   5.892 -0.6827 -0.4096  0.3879
   45MOL   C28215330   3.354   0.280   5.917 -0.4241 -0.2170  0.3710
   45MOL   H28315331   3.304   0.133   5.770  0.9715 -1.0159  1.3758
   45MOL   H28415332   3.085   0.159   6.099  1.5865 -0.5759  0.5094
   45MOL   H28515333   2.984   8.007   6.192 -2.0923 -0.5392 -0.1895
   45MOL   H28615334   3.054   7.670   6.100  0.3456 -0.4805  0.4630
   45MOL   H28715335   3.183   7.750   5.906  1.8357  1.8693 -2.4344
   45MOL   H28815336   3.290   7.951   5.804 -0.2513 -1.6348  0.7823
   45MOL   H28915337   3.360   0.378   5.869 -0.6394  0.3489  1.4877
   45MOL   H29015338   3.331   0.298   6.022 -0.2456 -0.3585  0.4345
   45MOL   C29115339   3.499   0.229   5.912 -0.4955  0.5559 -0.1006
   45MOL   C29215340   3.583   0.313   6.000  0.4008  0.6248 -0.0228
   45MOL   C29315341   3.607   0.451   5.977 -0.1282  0.4471  0.2830
   45MOL   C29415342   3.688   0.529   6.059 -0.4321  0.3976 -0.8825
   45MOL   C29515343   3.722   0.471   6.181  0.0038  0.1915 -0.1417
   45MOL   O29615344   3.784   0.544   6.273 -0.4927 -0.4206 -0.1211
   45MOL   C29715345   3.695   0.334   6.211  0.4285  0.0388  0.1452
   45MOL   C29815346   3.629   0.260   6.121 -0.0925 -0.5257  0.1877
   45MOL   C29915347   3.557   0.208   5.762  0.8345 -0.4266 -0.6500
   45MOL   H30015348   3.514   0.129   5.953 -0.6402  0.1467 -1.0297
   45MOL   H30115349   3.589   0.501   5.883  1.0476 -0.5803 -0.5100
   45MOL   H30215350   3.696   0.635   6.044  1.3749  0.4615  0.3108
   45MOL   H30315351   3.828   0.491   6.338 -2.4192 -0.0485  1.5300
   45MOL   H30415352   3.721   0.279   6.301 -0.4840 -0.5330  0.0694
   45MOL   H30515353   3.601   0.159   6.149  1.6321 -1.4348 -1.2523
   45MOL   H30615354   3.615   0.298   5.744 -0.1570  0.0143 -1.6832
   45MOL   H30715355   3.475   0.199   5.690  0.4206  0.2843 -0.2822
   45MOL   C30815356   3.646   0.080   5.730  0.6795 -0.2081 -0.0563
   45MOL   C30915357   3.709   0.094   5.592  0.5154 -0.3346 -0.0435
   45MOL   C31015358   3.630   0.090   5.473 -0.1179  0.4268 -0.2970
   45MOL   C31115359   3.699   0.112   5.352  0.8193  0.0323  0.4625
   45MOL   C31215360   3.833   0.146   5.349 -0.3848 -0.9600 -0.0714
   45MOL   O31315361   3.890   0.168   5.228 -0.1242 -0.1608  0.2657
   45MOL   C31415362   3.910   0.158   5.467  0.0277  0.3554 -0.1024
   45MOL   C31515363   3.844   0.129   5.594 -0.3420 -0.4131 -0.2703
   45MOL   C31615364   3.578   7.987   5.756  0.2691 -0.0231 -0.5528
   45MOL   H31715365   3.728   0.090   5.801  0.5434  1.9590 -0.1882
   45MOL   H31815366   3.524   0.073   5.484 -0.0315 -0.1763 -0.4038
   45MOL   H31915367   3.646   0.101   5.259  0.3842 -0.0394  0.7157
   45MOL   H32015368   3.983   0.183   5.238 -0.5872  2.4753  1.2211
   45MOL   H32115369   4.016   0.178   5.473 -0.1854  1.9676 -1.3865
   45MOL   H32215370   3.895   0.134   5.689  0.2585  2.5360 -0.7018
   45MOL   H32315371   3.480   7.991   5.708  0.8361  1.6317 -1.6322
   45MOL   H32415372   3.554   7.990   5.862 -1.1374  1.3891 -0.8887
   45MOL   C32515373   3.652   7.850   5.728 -0.8581 -0.0845  0.2058
   45MOL   C32615374   3.554   7.741   5.746  0.6162 -0.1833  0.3760
   45MOL   C32715375   3.487   7.675   5.641 -0.3800  0.2404 -0.1460
   45MOL   C32815376   3.383   7.583   5.672 -0.3358 -0.9768 -0.2812
   45MOL   C32915377   3.349   7.547   5.802 -0.4377  0.1310 -0.0299
   45MOL   O33015378   3.250   7.453   5.817 -0.4176  0.3629  0.2261
   45MOL   C33115379   3.414   7.611   5.903  0.2307 -0.2425 -0.5892
   45MOL   C33215380   3.514   7.713   5.880 -0.4844 -0.0549 -0.1462
   45MOL   C33315381   3.777   7.825   5.813 -0.2086 -0.3585  0.1553
   45MOL   H33415382   3.685   7.856   5.624  2.0922 -2.0575  0.9641
   45MOL   H33515383   3.512   7.699   5.539 -0.5775 -1.1430 -0.5305
   45MOL   H33615384   3.331   7.532   5.592 -1.4910  0.3821 -0.4210
   45MOL   H33715385   3.203   7.453   5.734  0.5234 -1.7544 -0.3375
   45MOL   H33815386   3.376   7.585   6.001  2.5903  1.1286  0.7240
   45MOL   H33915387   3.556   7.767   5.964  2.6573 -3.0934  0.3711
   45MOL   H34015388   3.839   7.747   5.770 -0.2951  0.3613 -1.2902
   45MOL   H34115389   3.772   7.787   5.915  0.9510 -1.0312 -0.0364
   45MOL   H34215390   3.839   7.915   5.810 -0.6881  0.0812  2.4355
   46MOL     C115391   3.835   1.130   2.940 -0.5518 -0.3904 -0.1105
   46MOL     C215392   3.910   1.003   2.896  0.6572  0.5585 -0.3498
   46MOL     C315393   3.884   0.881   2.965  0.7190 -0.1827  0.1449
   46MOL     C415394   3.950   0.767   2.924 -0.2438  0.2519  0.3727
   46MOL     C515395   4.054   0.766   2.829  0.1093 -0.1843  0.5632
   46MOL     O615396   4.119   0.645   2.800  0.1220 -0.1272 -0.5566
   46MOL     C715397   4.072   0.882   2.755  0.2090  0.7566 -0.0049
   46MOL     C815398   3.997   0.999   2.784 -0.1091 -0.1526  0.5242
   46MOL     C915399   3.888   1.192   3.073 -0.4580 -0.3587  0.0244
   46MOL    H1015400   3.870   1.211   2.875  3.0416 -2.2164 -0.5786
   46MOL    H1115401   3.810   0.869   3.043  0.1460  0.6144 -0.2736
   46MOL    H1215402   3.920   0.673   2.969  1.0613 -0.8341 -0.9595
   46MOL    H1315403   4.212   0.658   2.796  0.3059 -1.6041 -1.5016
   46MOL    H1415404   4.141   0.883   2.672  0.2491 -0.4965  0.0119
   46MOL    H1515405   4.010   1.094   2.736  2.1242 -0.2609  0.8700
   46MOL    H1615406   3.825   1.155   3.154 -0.7527 -0.3476 -0.1960
   46MOL    H1715407   3.867   1.299   3.080  0.4178 -0.1251 -0.8454
   46MOL    H1815408   3.726   1.129   2.931 -0.6864  0.4006  1.3859
   46MOL    C1915409   4.036   1.176   3.120  0.5295  0.2154 -1.0192
   46MOL    C2015410   4.045   1.225   3.269 -1.0944 -0.1742  0.0097
   46MOL    C2115411   4.043   1.129   3.375  0.4785 -0.0416  0.4410
   46MOL    C2215412   4.034   1.169   3.515 -0.0019  0.4521  0.1423
   46MOL    C2315413   4.026   1.301   3.549  0.6635 -0.2902  0.8117
   46MOL    O2415414   4.009   1.345   3.678  0.1536 -0.6739 -0.6090
   46MOL    C2515415   4.034   1.400   3.449  0.7978  0.1674  0.4792
   46MOL    C2615416   4.046   1.365   3.307  0.6953  0.3101 -0.1798
   46MOL    C2715417   4.138   1.253   3.039 -0.0689  0.1368 -0.0763
   46MOL    H2815418   4.061   1.070   3.120 -0.7572 -0.0959 -1.6457
   46MOL    H2915419   4.046   1.023   3.353 -4.2774 -0.2673  0.2724
   46MOL    H3015420   4.028   1.097   3.595  0.5383  0.3735  0.1158
   46MOL    H3115421   4.047   1.283   3.738  0.7775 -0.1299 -0.4357
   46MOL    H3215422   4.041   1.505   3.473 -0.9715  0.6962 -1.1500
   46MOL    H3315423   4.045   1.442   3.232  0.4391 -1.3624 -1.9357
   46MOL    H3415424   4.110   1.358   3.028  0.0152  0.2916  1.0409
   46MOL    H3515425   4.123   1.196   2.948  1.1261  0.7910 -0.6871
   46MOL    C3615426   4.290   1.253   3.069 -0.3867  0.7169 -0.5647
   46MOL    C3715427   4.376   1.332   2.974  0.1981  0.6043  0.1707
   46MOL    C3815428   4.464   1.430   3.022 -1.2352  0.2088  0.0319
   46MOL    C3915429   4.541   1.501   2.928 -0.8466  0.2689  0.5901
   46MOL    C4015430   4.535   1.478   2.789 -0.1039 -0.5803  0.3792
   46MOL    O4115431   4.620   1.540   2.710  0.3338  0.3454 -0.3096
   46MOL    C4215432   4.442   1.385   2.741 -1.0645 -0.1206  0.4357
   46MOL    C4315433   4.361   1.315   2.832  0.4084 -0.2957 -0.0687
   46MOL    C4415434   4.344   1.103   3.074 -0.0171 -0.7840  0.0499
   46MOL    H4515435   4.301   1.296   3.168 -0.2023 -0.5076 -0.0514
   46MOL    H4615436   4.464   1.451   3.128  0.1798  1.0765 -0.1193
   46MOL    H4715437   4.607   1.577   2.966 -0.4691  1.3075 -2.0540
   46MOL    H4815438   4.695   1.550   2.767 -0.2809  1.0493  0.3962
   46MOL    H4915439   4.440   1.379   2.633 -2.2230  2.1273  0.3108
   46MOL    H5015440   4.292   1.243   2.791  2.4460 -1.4558 -1.5206
   46MOL    H5115441   4.267   1.036   3.111 -0.1817 -2.1545 -2.6911
   46MOL    H5215442   4.346   1.063   2.973 -0.1630 -0.1549 -0.2069
   46MOL    C5315443   4.482   1.084   3.158  0.2437  0.1671 -1.0234
   46MOL    C5415444   4.468   1.128   3.301 -0.5673 -0.4653 -0.5049
   46MOL    C5515445   4.560   1.222   3.359  0.0498  0.6221 -0.3218
   46MOL    C5615446   4.551   1.249   3.495  0.2226 -0.0937  0.0963
   46MOL    C5715447   4.459   1.177   3.577  0.3383 -0.4071 -0.1577
   46MOL    O5815448   4.445   1.201   3.711  0.0955 -0.0434 -0.8261
   46MOL    C5915449   4.363   1.090   3.521 -0.5704  0.4411 -0.3959
   46MOL    C6015450   4.371   1.060   3.384 -0.2976  0.2736 -0.3781
   46MOL    C6115451   4.519   0.934   3.145  0.0127  0.3325  1.0922
   46MOL    H6215452   4.560   1.144   3.112  1.2390 -0.1774  0.1857
   46MOL    H6315453   4.634   1.268   3.295  0.0705  1.0902  0.0458
   46MOL    H6415454   4.626   1.316   3.534 -1.2708  1.4796  0.3373
   46MOL    H6515455   4.526   1.242   3.737  0.3257 -1.4964  0.7854
   46MOL    H6615456   4.283   1.041   3.575 -0.4757 -0.2520 -0.8792
   46MOL    H6715457   4.303   0.990   3.338 -1.0039  0.5388  0.2428
   46MOL    H6815458   4.536   0.904   3.041 -2.2702 -2.3066  1.4110
   46MOL    H6915459   4.432   0.876   3.177 -0.3373  0.4187  0.3291
   46MOL    C7015460   4.645   0.893   3.232 -0.3904  0.6006  0.0353
   46MOL    C7115461   4.771   0.981   3.222  0.0608  0.3382 -0.1352
   46MOL    C7215462   4.824   1.021   3.095 -0.1804  0.1126  0.3763
   46MOL    C7315463   4.937   1.100   3.090 -0.2947  0.4128  0.1494
   46MOL    C7415464   5.000   1.134   3.212 -0.2092  1.0042 -0.5250
   46MOL    O7515465   5.104   1.223   3.214 -0.4914  0.5001  0.1550
   46MOL    C7615466   4.955   1.091   3.336  0.4403  0.0404  0.0483
   46MOL    C7715467   4.838   1.013   3.340 -0.2270  0.6758  0.3878
   46MOL    C7815468   4.667   0.742   3.228  0.0837  0.4232 -0.3458
   46MOL    H7915469   4.607   0.914   3.332  0.3033  1.7264  0.0715
   46MOL    H8015470   4.761   1.006   3.008 -0.8355 -1.4454  1.1035
   46MOL    H8115471   4.970   1.140   2.996  0.1760 -0.5161 -0.0774
   46MOL    H8215472   5.146   1.227   3.129  0.2124 -2.3582  0.3001
   46MOL    H8315473   5.004   1.126   3.425  2.0728  0.2090 -0.8937
   46MOL    H8415474   4.796   0.976   3.433  1.3735  1.4787  1.4403
   46MOL    H8515475   4.775   0.727   3.226 -0.1234 -1.0009 -2.3005
   46MOL    H8615476   4.620   0.712   3.134 -0.5544  2.0981 -0.5836
   46MOL    C8715477   4.597   0.653   3.338 -0.5219 -0.6710  0.5968
   46MOL    C8815478   4.658   0.697   3.472 -0.7166 -1.0671  0.7040
   46MOL    C8915479   4.580   0.767   3.565  0.1737 -0.3646 -0.0248
   46MOL    C9015480   4.642   0.821   3.677 -0.3792 -0.1646 -0.2944
   46MOL    C9115481   4.775   0.785   3.709 -0.8111 -0.7574  0.1252
   46MOL    O9215482   4.835   0.831   3.825 -0.4639  0.5094 -0.3871
   46MOL    C9315483   4.850   0.703   3.620  0.5108 -0.6222 -0.2803
   46MOL    C9415484   4.796   0.677   3.494  0.6365 -0.3315 -0.5113
   46MOL    C9515485   4.619   0.496   3.323 -0.1341  0.3362 -0.2098
   46MOL    H9615486   4.492   0.680   3.324 -0.3572 -0.6201 -0.5431
   46MOL    H9715487   4.475   0.776   3.542  0.6331  0.8191 -1.7904
   46MOL    H9815488   4.584   0.878   3.749 -1.9065 -0.2833 -1.3911
   46MOL    H9915489   4.799   0.912   3.858 -0.9048 -0.1799  0.8490
   46MOL   H10015490   4.951   0.673   3.642  0.1254 -2.6572 -1.1988
   46MOL   H10115491   4.857   0.620   3.426  1.7680  0.7657 -0.4274
   46MOL   H10215492   4.564   0.451   3.240 -0.5884  0.7688 -0.1451
   46MOL   H10315493   4.722   0.479   3.295 -0.4778  0.7657 -1.7908
   46MOL   C10415494   4.606   0.410   3.451  0.3911 -0.2522  0.2625
   46MOL   C10515495   4.662   0.263   3.429 -0.3381  0.4181  0.4150
   46MOL   C10615496   4.767   0.213   3.509 -0.0330  0.5722  0.0468
   46MOL   C10715497   4.801   0.078   3.491 -0.3084 -0.5827  0.2502
   46MOL   C10815498   4.747   0.005   3.386  0.2920 -0.2140  0.5264
   46MOL   O10915499   4.786   7.912   3.369  0.1313 -0.8168  0.2482
   46MOL   C11015500   4.650   0.062   3.305 -0.0817 -0.5375 -0.3322
   46MOL   C11115501   4.606   0.188   3.323  0.9069 -0.3939 -0.5379
   46MOL   C11215502   4.458   0.408   3.508 -0.0469 -0.0544  0.2498
   46MOL   H11315503   4.663   0.453   3.533  1.7422 -1.5777  0.0237
   46MOL   H11415504   4.814   0.275   3.584  0.0834  1.4435 -0.7398
   46MOL   H11515505   4.868   0.024   3.556 -0.0393 -1.9156 -1.1087
   46MOL   H11615506   4.798   7.875   3.455  0.2878 -2.0709 -0.3076
   46MOL   H11715507   4.605   0.008   3.223 -2.9689  0.4301  0.5656
   46MOL   H11815508   4.527   0.227   3.260  1.1274 -0.2482 -0.7245
   46MOL   H11915509   4.384   0.384   3.432 -0.6538  2.0922  0.1456
   46MOL   H12015510   4.443   0.512   3.537  2.1271  0.2475  0.3728
   46MOL   C12115511   4.426   0.324   3.638 -0.7314 -0.0142  0.3356
   46MOL   C12215512   4.506   0.368   3.768 -0.0587  0.2530  0.6343
   46MOL   C12315513   4.603   0.279   3.825  0.3111 -0.3660  1.1317
   46MOL   C12415514   4.683   0.315   3.934  0.3517 -0.9673 -0.3282
   46MOL   C12515515   4.662   0.440   3.996 -0.6773  0.0341  0.5413
   46MOL   O12615516   4.740   0.478   4.107  0.4099  0.6743 -0.5409
   46MOL   C12715517   4.581   0.535   3.932 -0.1289 -0.0583  0.0491
   46MOL   C12815518   4.500   0.497   3.824  0.2954 -0.4082 -0.4135
   46MOL   C12915519   4.276   0.322   3.667 -0.1283  0.0441 -0.0051
   46MOL   H13015520   4.449   0.223   3.605  0.6668  0.2638  0.4325
   46MOL   H13115521   4.613   0.182   3.779  0.5837  0.0210  0.3832
   46MOL   H13215522   4.760   0.248   3.970  0.6609 -0.1438  0.5618
   46MOL   H13315523   4.796   0.551   4.086 -0.5973  1.9073  0.9232
   46MOL   H13415524   4.578   0.639   3.960 -1.3897  0.1243 -0.7120
   46MOL   H13515525   4.438   0.578   3.787  0.4436  0.6150  1.4755
   46MOL   H13615526   4.216   0.311   3.576 -0.7479  0.7200  0.3169
   46MOL   H13715527   4.241   0.422   3.692 -0.3936  0.0075 -0.2156
   46MOL   C13815528   4.210   0.225   3.775  0.5121 -0.7198 -0.1996
   46MOL   C13915529   4.206   0.078   3.727 -0.5358  0.0597  0.8038
   46MOL   C14015530   4.316   8.034   3.752  0.0412  0.2102  0.1755
   46MOL   C14115531   4.315   7.906   3.703 -0.4481 -0.2324  0.5538
   46MOL   C14215532   4.209   7.843   3.630  0.7052 -0.3924 -0.2369
   46MOL   O14315533   4.195   7.716   3.595 -0.1211  0.4055 -0.1772
   46MOL   C14415534   4.088   7.923   3.616 -0.4112 -0.2127 -0.1130
   46MOL   C14515535   4.094   0.023   3.657 -0.0527  0.1851  0.1461
   46MOL   C14615536   4.072   0.276   3.820  0.4913 -0.6529  0.2879
   46MOL   H14715537   4.284   0.221   3.855  1.6262  1.5685 -1.0886
   46MOL   H14815538   4.398   0.034   3.812  0.1624 -2.3229  1.6333
   46MOL   H14915539   4.397   7.844   3.736  1.4165  1.1345 -1.3719
   46MOL   H15015540   4.268   7.659   3.616 -2.1036 -1.4949  1.7666
   46MOL   H15115541   4.000   7.885   3.568  1.6695 -0.6752 -3.7589
   46MOL   H15215542   4.017   0.094   3.630 -0.7013 -0.8174 -0.6751
   46MOL   H15315543   4.009   0.194   3.856 -0.7182 -1.3647 -3.2496
   46MOL   H15415544   4.015   0.307   3.732  1.3230 -0.7571 -0.3008
   46MOL   C15515545   4.074   0.374   3.940  0.1175  0.0800 -0.0471
   46MOL   C15615546   3.952   0.360   4.035 -0.9310  0.3669 -0.3230
   46MOL   C15715547   3.829   0.404   3.986  0.0320 -0.4159  0.0534
   46MOL   C15815548   3.720   0.394   4.081 -0.8775  0.2893  1.1976
   46MOL   C15915549   3.739   0.346   4.214  0.1266 -0.2890 -0.0052
   46MOL   O16015550   3.650   0.351   4.321 -0.1146  0.0421  0.4878
   46MOL   C16115551   3.865   0.289   4.247 -0.0640 -0.1760 -0.1452
   46MOL   C16215552   3.975   0.303   4.164  0.0401 -0.2616 -0.7299
   46MOL   C16315553   4.108   0.523   3.896 -0.1776 -0.2248  0.0720
   46MOL   H16415554   4.150   0.334   4.008  1.1871  0.2867 -1.1158
   46MOL   H16515555   3.818   0.451   3.889  2.1585  2.2126  1.0202
   46MOL   H16615556   3.621   0.420   4.047 -0.9859  0.6884  1.8029
   46MOL   H16715557   3.578   0.409   4.304 -0.8468 -0.5458  1.5475
   46MOL   H16815558   3.875   0.259   4.350 -1.9493  1.8629  0.6953
   46MOL   H16915559   4.072   0.265   4.193 -0.2126 -0.6235 -0.3524
   46MOL   H17015560   4.041   0.545   3.814 -1.2414  0.2375  1.0543
   46MOL   H17115561   4.211   0.534   3.862 -0.1373 -1.0679 -0.1058
   46MOL   C17215562   4.092   0.629   4.007 -0.2605 -1.0209 -0.5802
   46MOL   C17315563   4.113   0.767   3.950 -0.5327 -0.2856 -0.3732
   46MOL   C17415564   4.010   0.858   3.955 -0.5521 -0.1618 -0.5732
   46MOL   C17515565   4.022   0.981   3.895  0.0937 -0.1256  0.3981
   46MOL   C17615566   4.147   1.027   3.852  0.0974 -0.1109 -0.3803
   46MOL   O17715567   4.178   1.161   3.822  0.4382 -0.1386  0.5893
   46MOL   C17815568   4.256   0.938   3.855  0.3358  0.3669 -0.0377
   46MOL   C17915569   4.239   0.804   3.891 -0.9860  0.8952 -0.8960
   46MOL   C18015570   4.189   0.611   4.131 -0.5102  0.0078  0.3099
   46MOL   H18115571   3.991   0.631   4.048  1.0142  1.4435  2.6554
   46MOL   H18215572   3.921   0.824   4.006 -1.3683  3.1562  0.2827
   46MOL   H18315573   3.940   1.051   3.902 -1.0162 -1.5078  1.2474
   46MOL   H18415574   4.270   1.164   3.798  0.0574  1.3294 -0.8215
   46MOL   H18515575   4.349   0.970   3.812  0.6295 -0.1951  0.1631
   46MOL   H18615576   4.325   0.742   3.875 -1.3626  0.6397 -1.9472
   46MOL   H18715577   4.293   0.603   4.097 -0.8127  1.0085 -0.8889
   46MOL   H18815578   4.173   0.512   4.176 -2.5366 -0.4639 -1.4190
   46MOL   C18915579   4.178   0.719   4.241 -0.3348  0.2026  0.2100
   46MOL   C19015580   4.044   0.733   4.310 -0.1597  0.2299 -0.0148
   46MOL   C19115581   3.983   0.620   4.365 -0.6362  0.7810 -0.2467
   46MOL   C19215582   3.861   0.631   4.432  0.4181  0.0067 -0.1272
   46MOL   C19315583   3.809   0.763   4.447 -0.0012 -0.0838  0.7003
   46MOL   O19415584   3.692   0.777   4.514 -0.4838  0.3282  0.9876
   46MOL   C19515585   3.865   0.873   4.382  0.0089  0.3036  0.0583
   46MOL   C19615586   3.990   0.861   4.314 -0.1215  0.1992  0.5008
   46MOL   C19715587   4.282   0.682   4.353 -0.5214 -0.6512  0.1551
   46MOL   H19815588   4.221   0.811   4.200  3.2642 -1.7228 -0.5141
   46MOL   H19915589   4.032   0.524   4.373 -2.3206 -0.2073 -1.5132
   46MOL   H20015590   3.809   0.550   4.480 -0.1576  1.1966  1.2774
   46MOL   H20115591   3.676   0.699   4.566 -0.5969  1.8325  3.3019
   46MOL   H20215592   3.829   0.973   4.402  3.4672  1.6514 -0.0981
   46MOL   H20315593   4.047   0.940   4.267  0.4223 -1.6616 -2.0960
   46MOL   H20415594   4.371   0.638   4.307  0.5698 -0.0641  1.6503
   46MOL   H20515595   4.241   0.599   4.410  1.1967 -2.9716 -1.8680
   46MOL   C20615596   4.310   0.796   4.454  0.0282  0.8048 -0.3198
   46MOL   C20715597   4.409   0.893   4.398 -0.6746 -0.1984  0.1683
   46MOL   C20815598   4.381   1.022   4.357  0.2724  0.5059 -0.2501
   46MOL   C20915599   4.471   1.105   4.289  1.3338 -0.4024  0.0490
   46MOL   C21015600   4.601   1.059   4.268  0.5237 -0.2478  0.5015
   46MOL   O21115601   4.687   1.137   4.194  0.0643 -0.2390 -0.5688
   46MOL   C21215602   4.638   0.937   4.326  0.9098  0.0210  0.0283
   46MOL   C21315603   4.543   0.851   4.381 -0.7505 -0.0538 -0.1577
   46MOL   C21415604   4.339   0.749   4.601  0.1927  0.1234 -0.5485
   46MOL   H21515605   4.212   0.844   4.458 -0.3274 -0.0597  2.0097
   46MOL   H21615606   4.282   1.051   4.387 -0.1176  0.0432 -1.0669
   46MOL   H21715607   4.429   1.196   4.249  3.0413  1.4942  2.4260
   46MOL   H21815608   4.663   1.225   4.168  0.0691  0.7680  2.6075
   46MOL   H21915609   4.738   0.904   4.302  0.7617  0.3502 -1.0635
   46MOL   H22015610   4.577   0.756   4.419  0.1151  0.9464  1.6331
   46MOL   H22115611   4.426   0.685   4.608 -0.5323 -1.2014 -3.1100
   46MOL   H22215612   4.255   0.681   4.618 -0.2535  0.9225  0.5624
   46MOL   C22315613   4.348   0.854   4.720  0.6409 -0.1329  0.3179
   46MOL   C22415614   4.216   0.924   4.758  0.4832 -0.0849 -0.2048
   46MOL   C22515615   4.141   0.999   4.662 -0.2481 -0.3056  0.3943
   46MOL   C22615616   4.011   1.049   4.697  0.1219  0.4097 -0.0054
   46MOL   C22715617   3.970   1.048   4.827 -0.5398  0.0145 -0.4999
   46MOL   O22815618   3.852   1.105   4.872  0.6207  0.3595  0.1632
   46MOL   C22915619   4.048   0.985   4.921  0.0166  0.1165  0.0981
   46MOL   C23015620   4.167   0.915   4.887 -0.5971  0.4808 -0.0072
   46MOL   C23115621   4.465   0.961   4.710 -0.7074 -0.7747 -0.0122
   46MOL   H23215622   4.374   0.783   4.798  0.8680 -1.2290 -0.7263
   46MOL   H23315623   4.172   1.024   4.561 -0.1820  0.1134  0.5188
   46MOL   H23415624   3.958   1.107   4.623  0.0272  0.5082  0.1395
   46MOL   H23515625   3.796   1.130   4.800  1.4073  1.0529 -0.2260
   46MOL   H23615626   4.012   0.989   5.023 -2.3037  0.2041 -0.6971
   46MOL   H23715627   4.228   0.859   4.957 -0.2706 -0.3689 -0.9726
   46MOL   H23815628   4.534   0.923   4.634  0.0571  0.4268  0.0819
   46MOL   H23915629   4.421   1.048   4.660  0.2686 -0.3591 -0.1541
   46MOL   C24015630   4.520   0.996   4.852 -0.3766  0.3516  0.1773
   46MOL   C24115631   4.590   0.874   4.910 -0.7101 -0.5399 -0.4526
   46MOL   C24215632   4.569   0.848   5.048 -0.3385  0.0282 -0.3241
   46MOL   C24315633   4.634   0.743   5.116 -0.0816  0.2817  0.0178
   46MOL   C24415634   4.708   0.653   5.033  0.0635  0.5291  0.3663
   46MOL   O24515635   4.777   0.550   5.080 -0.3219 -0.2756  0.3953
   46MOL   C24615636   4.720   0.671   4.897 -0.0448  0.3398 -0.0908
   46MOL   C24715637   4.666   0.786   4.833 -0.1467  0.0466 -0.5682
   46MOL   C24815638   4.618   1.118   4.849 -0.1356 -0.2000  0.2400
   46MOL   H24915639   4.432   1.022   4.911 -0.0887  0.3075  0.6302
   46MOL   H25015640   4.502   0.914   5.101 -1.0845  1.1758 -2.6211
   46MOL   H25115641   4.620   0.717   5.220 -2.7083 -2.9950 -1.0652
   46MOL   H25215642   4.803   0.491   5.011 -0.3353 -0.3063  0.4167
   46MOL   H25315643   4.784   0.614   4.830  0.3768 -1.3904  1.7540
   46MOL   H25415644   4.688   0.811   4.731  1.1306  1.2633 -0.0037
   46MOL   H25515645   4.667   1.125   4.946  0.1283 -0.8923  0.1596
   46MOL   H25615646   4.697   1.096   4.777 -0.7692 -1.9173  0.0484
   46MOL   C25715647   4.542   1.254   4.819  0.0457  0.0237 -0.0255
   46MOL   C25815648   4.437   1.286   4.923  0.2363 -0.1202 -0.1744
   46MOL   C25915649   4.306   1.247   4.896 -0.2892 -0.0355 -0.0393
   46MOL   C26015650   4.215   1.272   4.999  0.3971 -0.4122 -0.3253
   46MOL   C26115651   4.251   1.324   5.127  0.0333 -0.1073  0.7676
   46MOL   O26215652   4.150   1.336   5.214  0.0256 -0.4907  0.6992
   46MOL   C26315653   4.376   1.355   5.153 -0.3740  0.0602  0.2777
   46MOL   C26415654   4.468   1.339   5.049 -0.0702  0.2081  0.2814
   46MOL   C26515655   4.644   1.368   4.779 -0.0444 -0.5854 -0.0714
   46MOL   H26615656   4.484   1.230   4.729 -4.1528 -0.7507  2.7304
   46MOL   H26715657   4.284   1.201   4.800  1.5223  0.6937 -0.8201
   46MOL   H26815658   4.110   1.255   4.976  0.3845  1.6096 -1.8424
   46MOL   H26915659   4.078   1.288   5.176 -0.5090 -1.7865  3.2797
   46MOL   H27015660   4.404   1.419   5.235  0.1262  2.3141 -1.5774
   46MOL   H27115661   4.569   1.368   5.073  0.6494 -1.7846 -0.2636
   46MOL   H27215662   4.691   1.343   4.684 -0.6145  1.2522 -0.8553
   46MOL   H27315663   4.726   1.382   4.850  0.6448 -0.7310 -0.8305
   46MOL   C27415664   4.571   1.503   4.758  0.3554 -0.3876 -0.1908
   46MOL   C27515665   4.461   1.487   4.652  0.3447  0.3477  0.0948
   46MOL   C27615666   4.492   1.441   4.524  0.3474  0.1444 -0.1358
   46MOL   C27715667   4.389   1.440   4.429  0.4174 -0.0996 -0.1835
   46MOL   C27815668   4.259   1.478   4.461  0.0364  0.0590  0.4640
   46MOL   O27915669   4.158   1.469   4.371  0.5604  0.3682 -0.3664
   46MOL   C28015670   4.224   1.521   4.590 -0.0835  0.4231 -0.0639
   46MOL   C28115671   4.330   1.536   4.680  0.0218  0.0348 -0.4325
   46MOL   C28215672   4.655   1.627   4.719  0.3749 -1.0417  0.1726
   46MOL   H28315673   4.522   1.522   4.854 -2.0147 -1.0428 -1.2198
   46MOL   H28415674   4.583   1.395   4.487  0.0188 -0.3517 -0.3348
   46MOL   H28515675   4.409   1.408   4.327 -0.7082 -0.6491 -0.2430
   46MOL   H28615676   4.168   1.407   4.300 -0.1565 -0.7568  0.5012
   46MOL   H28715677   4.122   1.539   4.618 -0.3836 -0.5112 -0.5289
   46MOL   H28815678   4.302   1.581   4.774  1.0926  0.5351 -0.3392
   46MOL   H28915679   4.689   1.620   4.615 -1.6156 -1.0910 -0.4962
   46MOL   H29015680   4.575   1.700   4.729  1.5802  0.3833 -0.3591
   46MOL   C29115681   4.777   1.669   4.808 -0.4765  0.2288  1.0718
   46MOL   C29215682   4.769   1.622   4.951 -0.1016  0.3845  0.4267
   46MOL   C29315683   4.663   1.662   5.039  0.1289  0.0785 -0.7856
   46MOL   C29415684   4.655   1.611   5.171  0.3644  2.0971  0.5683
   46MOL   C29515685   4.751   1.531   5.222 -0.7450 -0.2373 -0.4989
   46MOL   O29615686   4.736   1.471   5.334 -0.1242  0.4583 -0.5193
   46MOL   C29715687   4.856   1.491   5.140 -0.4815 -0.0887  0.3005
   46MOL   C29815688   4.866   1.532   5.003 -0.0821  0.3128  0.3070
   46MOL   C29915689   4.806   1.819   4.808 -0.1134 -0.5355  0.3223
   46MOL   H30015690   4.866   1.631   4.759  0.0415  0.8541  1.5196
   46MOL   H30115691   4.585   1.733   5.015 -1.4034 -1.3643 -0.1860
   46MOL   H30215692   4.571   1.637   5.234 -1.6259  1.3765 -1.7168
   46MOL   H30315693   4.812   1.428   5.370 -0.7332 -1.1572 -1.1332
   46MOL   H30415694   4.933   1.424   5.175 -0.5938 -0.7157 -0.6477
   46MOL   H30515695   4.945   1.487   4.945  0.2027  0.1249  0.8311
   46MOL   H30615696   4.904   1.844   4.849  0.3581  2.9899 -2.7396
   46MOL   H30715697   4.732   1.867   4.873  2.1564  0.1829  2.4614
   46MOL   C30815698   4.801   1.897   4.670 -0.0951 -0.2759  0.6335
   46MOL   C30915699   4.934   1.887   4.585  0.5597  0.7307  0.0162
   46MOL   C31015700   5.042   1.969   4.626 -0.4340  0.2384  1.0899
   46MOL   C31115701   5.160   1.961   4.554 -0.6493 -0.7816 -0.1544
   46MOL   C31215702   5.177   1.863   4.454  0.4228 -0.3884  0.4671
   46MOL   O31315703   5.288   1.853   4.383 -0.3132  0.0515  0.4221
   46MOL   C31415704   5.077   1.769   4.426 -0.4105 -0.5489  0.2895
   46MOL   C31515705   4.952   1.788   4.486 -0.4810 -0.1558 -0.3783
   46MOL   C31615706   4.745   2.038   4.681  0.5776  0.8234  0.2255
   46MOL   H31715707   4.729   1.839   4.613  1.4529  0.7151 -2.4413
   46MOL   H31815708   5.024   2.041   4.705 -0.7596  0.6745  0.6189
   46MOL   H31915709   5.233   2.039   4.566 -0.4351 -1.1902  1.2177
   46MOL   H32015710   5.269   1.795   4.311  1.1790 -0.3630  0.3540
   46MOL   H32115711   5.086   1.694   4.348  0.4371  0.0830 -0.2236
   46MOL   H32215712   4.868   1.724   4.462  0.0359 -0.3207 -1.7888
   46MOL   H32315713   4.819   2.099   4.732  1.5506  0.0962 -0.2815
   46MOL   H32415714   4.666   2.045   4.755  3.2795  1.8083  3.1331
   46MOL   C32515715   4.697   2.104   4.542 -0.1397  0.6934  0.1574
   46MOL   C32615716   4.630   2.005   4.446  0.2712  0.3041 -0.8959
   46MOL   C32715717   4.676   1.965   4.320  0.0177 -0.2257  0.4017
   46MOL   C32815718   4.609   1.855   4.258  0.2102 -0.3571 -0.6801
   46MOL   C32915719   4.501   1.788   4.317 -0.0343  0.1112  0.1423
   46MOL   O33015720   4.441   1.685   4.249  0.4383 -0.0857 -0.4136
   46MOL   C33115721   4.451   1.831   4.441 -0.2643 -0.1786 -0.0461
   46MOL   C33215722   4.514   1.942   4.500 -0.6741  0.1323 -0.7225
   46MOL   C33315723   4.811   2.187   4.477  0.7086 -0.0243  0.1734
   46MOL   H33415724   4.625   2.181   4.567  1.1315  1.8276  0.3906
   46MOL   H33515725   4.766   2.003   4.275  0.1927  0.6086  1.4308
   46MOL   H33615726   4.658   1.828   4.165  1.0443  0.7415 -0.5760
   46MOL   H33715727   4.348   1.696   4.244 -0.0972 -2.4625  2.5617
   46MOL   H33815728   4.377   1.774   4.495  0.0086  0.1626  0.6940
   46MOL   H33915729   4.482   1.970   4.599 -0.1381 -0.1581 -0.4707
   46MOL   H34015730   4.900   2.132   4.445  1.6710  2.0717 -0.8362
   46MOL   H34115731   4.839   2.271   4.539 -0.8186  0.0588  0.7606
   46MOL   H34215732   4.772   2.243   4.392  0.9313 -0.8327 -0.4751
   47MOL     C115733   7.708   0.300   2.289 -0.1733 -0.1714  0.0912
   47MOL     C215734   7.774   0.263   2.422  0.7012 -0.3040  0.1282
   47MOL     C315735   7.699   0.232   2.542  0.7212 -0.2250  0.5574
   47MOL     C415736   7.771   0.200   2.656  0.4421 -0.4670 -0.3188
   47MOL     C515737   7.912   0.218   2.660 -0.1821 -0.3199 -0.4762
   47MOL     O615738   7.970   0.202   2.781  0.4525 -0.3442  0.5704
   47MOL     C715739   7.986   0.249   2.545 -0.1048 -0.4428  0.1353
   47MOL     C815740   7.915   0.269   2.423 -0.9885 -0.6186  0.3404
   47MOL     C915741   7.556   0.268   2.290 -0.0188  0.3239  0.5543
   47MOL    H1015742   7.733   0.405   2.276  2.9043 -0.6165  2.1184
   47MOL    H1115743   7.591   0.229   2.543  0.6798  0.2232 -0.7832
   47MOL    H1215744   7.721   0.167   2.745 -0.3274  0.5517 -0.3622
   47MOL    H1315745   7.919   0.168   2.852 -0.7191 -1.6355 -0.8576
   47MOL    H1415746   0.056   0.243   2.546  0.0448  1.7557  0.8713
   47MOL    H1515747   7.978   0.282   2.337 -0.5276  0.3441  0.8169
   47MOL    H1615748   7.508   0.325   2.369 -0.2270 -0.9516  1.3649
   47MOL    H1715749   7.532   0.162   2.299  1.7364 -0.1329  0.1734
   47MOL    H1815750   7.756   0.251   2.205  1.2062  0.0193  0.7572
   47MOL    C1915751   7.501   0.333   2.157 -0.0713  0.6845 -0.0614
   47MOL    C2015752   7.520   0.484   2.153 -0.2031 -0.0605  0.0770
   47MOL    C2115753   7.631   0.540   2.094  0.0649 -0.3097 -0.0170
   47MOL    C2215754   7.648   0.686   2.092 -0.0483  0.1265 -0.7866
   47MOL    C2315755   7.551   0.767   2.148  0.0842 -0.7866 -0.1460
   47MOL    O2415756   7.582   0.904   2.158 -0.4650  0.2466 -0.0026
   47MOL    C2515757   7.439   0.709   2.210  0.3060 -0.0744 -0.5820
   47MOL    C2615758   7.421   0.569   2.220  0.1328  0.8713 -0.6835
   47MOL    C2715759   7.354   0.304   2.129 -0.5657 -0.1035  0.2788
   47MOL    H2815760   7.565   0.292   2.079  1.3124  2.1010  0.3131
   47MOL    H2915761   7.700   0.480   2.036  1.5179 -0.5453  1.8794
   47MOL    H3015762   7.746   0.723   2.067 -0.5472  0.8950 -1.6069
   47MOL    H3115763   7.666   0.940   2.133 -0.1582  0.1056  0.8173
   47MOL    H3215764   7.376   0.781   2.260  0.1636  0.3450 -1.3593
   47MOL    H3315765   7.335   0.537   2.277  0.2957 -1.8893 -1.8958
   47MOL    H3415766   7.316   0.386   2.069 -0.2884 -0.1230  0.0754
   47MOL    H3515767   7.294   0.293   2.219  0.3152 -3.1042  0.5473
   47MOL    C3615768   7.312   0.171   2.059  0.5983 -0.1796  0.2405
   47MOL    C3715769   7.420   0.125   1.963 -0.0542 -0.1617 -0.0699
   47MOL    C3815770   7.456   0.194   1.843  0.5564 -0.5550  0.6177
   47MOL    C3915771   7.562   0.148   1.759 -0.5386 -0.1321 -0.0550
   47MOL    C4015772   7.632   0.033   1.790 -0.1133  0.2398  0.1651
   47MOL    O4115773   7.718   8.013   1.700 -0.2790  0.4595 -0.1202
   47MOL    C4215774   7.588   7.997   1.904  0.0483 -0.2513  0.0439
   47MOL    C4315775   7.485   0.003   1.992  0.3366  0.0933 -0.3693
   47MOL    C4415776   7.171   0.157   2.003  0.3759 -0.0942 -0.3632
   47MOL    H4515777   7.310   0.097   2.140 -2.1267 -0.6456 -0.1919
   47MOL    H4615778   7.396   0.281   1.818  0.1865 -1.0570 -0.2869
   47MOL    H4715779   7.586   0.203   1.669  1.6031 -0.9158  0.0070
   47MOL    H4815780   7.770   0.032   1.644 -0.8283  0.1769 -0.9243
   47MOL    H4915781   7.637   7.902   1.923  1.6349  0.6608  0.5888
   47MOL    H5015782   7.450   7.979   2.073 -1.3238 -1.1411 -1.9859
   47MOL    H5115783   7.110   0.215   2.072 -0.4995 -0.2562 -0.9944
   47MOL    H5215784   7.172   0.209   1.906 -1.9652 -0.0320 -0.3772
   47MOL    C5315785   7.108   0.021   1.989 -0.0316 -0.4711 -0.4572
   47MOL    C5415786   6.956   0.047   1.993  0.1225 -0.0127 -0.3509
   47MOL    C5515787   6.891   0.138   1.905  0.1242 -0.4923 -0.1450
   47MOL    C5615788   6.750   0.161   1.908 -0.1659 -0.1290 -0.1695
   47MOL    C5715789   6.676   0.102   2.011 -0.1641  0.2086 -0.0556
   47MOL    O5815790   6.540   0.120   2.016 -0.3544  0.1829 -0.1005
   47MOL    C5915791   6.743   0.025   2.105 -0.2826 -0.0553 -0.6166
   47MOL    C6015792   6.881   8.026   2.095  0.0348 -0.5619 -0.5130
   47MOL    C6115793   7.143   7.988   1.853 -0.1091  0.0739 -0.3663
   47MOL    H6215794   7.143   7.995   2.069 -0.0789 -1.1585 -0.9729
   47MOL    H6315795   6.947   0.207   1.844 -0.4334 -0.4867 -0.6615
   47MOL    H6415796   6.700   0.235   1.846 -0.1498  0.4098  0.4580
   47MOL    H6515797   6.499   0.121   1.931 -1.0140 -0.9293  0.1843
   47MOL    H6615798   6.677   8.021   2.179 -0.5558  1.2053 -0.1412
   47MOL    H6715799   6.921   7.963   2.173  0.3750  0.4245  0.1118
   47MOL    H6815800   7.249   7.981   1.827 -0.0942  0.0861 -0.3056
   47MOL    H6915801   7.098   0.018   1.781  1.8529  0.3367 -1.3866
   47MOL    C7015802   7.091   7.844   1.837 -0.0425 -0.4370 -0.3153
   47MOL    C7115803   7.185   7.752   1.912 -0.4900  0.3305  0.4150
   47MOL    C7215804   7.321   7.741   1.877  0.2209 -0.3493  0.6523
   47MOL    C7315805   7.397   7.650   1.941 -0.2789 -0.0265  0.3709
   47MOL    C7415806   7.343   7.561   2.037  0.3543 -0.1156  0.5303
   47MOL    O7515807   7.429   7.476   2.095  0.4512 -0.5394  0.1133
   47MOL    C7615808   7.212   7.583   2.087  0.3439 -0.4371 -0.3936
   47MOL    C7715809   7.130   7.683   2.023  0.4959  0.5065 -0.1056
   47MOL    C7815810   7.081   7.793   1.690  1.0758 -0.0489  0.5495
   47MOL    H7915811   6.989   7.842   1.876 -1.4716  1.1702 -3.7625
   47MOL    H8015812   7.368   7.800   1.799 -1.4482 -1.6787 -1.4367
   47MOL    H8115813   7.502   7.650   1.914 -0.6044 -2.4219 -1.0596
   47MOL    H8215814   7.393   7.455   2.180 -0.8803 -1.1117 -0.5741
   47MOL    H8315815   7.167   7.527   2.167  1.2772  0.1353  0.5467
   47MOL    H8415816   7.024   7.689   2.041  0.6893  1.5765  0.7021
   47MOL    H8515817   7.038   7.693   1.699  2.3232 -0.7581 -0.9590
   47MOL    H8615818   7.178   7.772   1.645  0.8105  1.0756 -0.5839
   47MOL    C8715819   6.997   7.879   1.595 -0.4616 -0.2064  0.6729
   47MOL    C8815820   6.852   7.880   1.641 -0.0566 -0.1897  0.4751
   47MOL    C8915821   6.776   7.780   1.710  0.2377  0.6512 -0.5978
   47MOL    C9015822   6.637   7.797   1.737  0.8959 -0.7702 -0.0447
   47MOL    C9115823   6.572   7.920   1.702  0.0063 -1.0625 -0.4190
   47MOL    O9215824   6.440   7.946   1.734  0.2699 -0.0328  0.0219
   47MOL    C9315825   6.642   8.020   1.639 -0.1398 -0.2534 -0.8316
   47MOL    C9415826   6.780   7.993   1.600  0.7060  0.0086 -0.1298
   47MOL    C9515827   7.023   7.823   1.455  0.3038 -0.2994 -0.4810
   47MOL    H9615828   7.031   7.982   1.601 -1.0358  0.0265  0.0978
   47MOL    H9715829   6.831   7.691   1.735  0.5280  1.2230  0.8162
   47MOL    H9815830   6.583   7.720   1.789 -0.8938  1.2325  1.1702
   47MOL    H9915831   6.389   7.873   1.766 -2.4864  2.0857  0.6202
   47MOL   H10015832   6.593   0.073   1.605  1.4376  2.2293  3.1461
   47MOL   H10115833   6.831   0.033   1.544  0.2406 -0.4367 -1.1840
   47MOL   H10215834   7.016   7.715   1.456 -1.3155 -0.2084  1.8638
   47MOL   H10315835   6.937   7.849   1.394  0.0850 -0.5572 -0.2794
   47MOL   C10415836   7.157   7.861   1.386  0.5963  0.4261 -0.0015
   47MOL   C10515837   7.182   8.013   1.393  0.3220 -0.8009 -0.8987
   47MOL   C10615838   7.311   0.026   1.414  0.0639 -0.3540 -0.3334
   47MOL   C10715839   7.341   0.161   1.394  0.1410  0.0957  0.7242
   47MOL   C10815840   7.239   0.251   1.360 -0.3187  0.0160 -0.2307
   47MOL   O10915841   7.268   0.381   1.330  0.1324 -0.5180 -0.5990
   47MOL   C11015842   7.107   0.207   1.342 -0.2952  0.0912 -0.8092
   47MOL   C11115843   7.083   0.069   1.360  0.4983  0.1273 -0.6498
   47MOL   C11215844   7.176   7.810   1.244  0.4640  0.1398  0.1870
   47MOL   H11315845   7.237   7.816   1.445  0.8654 -0.3519 -0.9482
   47MOL   H11415846   7.389   7.993   1.438 -0.4415 -0.6872  0.3710
   47MOL   H11515847   7.440   0.191   1.422 -1.0762  1.0967  4.1986
   47MOL   H11615848   7.184   0.423   1.341  0.3332 -0.5306  1.1938
   47MOL   H11715849   7.027   0.275   1.315 -0.9023  0.2329  1.2953
   47MOL   H11815850   6.985   0.028   1.344  0.2781 -0.2091  1.4456
   47MOL   H11915851   7.193   7.893   1.175  1.3897  1.0189  1.4351
   47MOL   H12015852   7.088   7.752   1.217  1.3252 -0.7384 -0.7720
   47MOL   C12115853   7.300   7.719   1.217  0.1268  0.2316 -0.1740
   47MOL   C12215854   7.293   7.595   1.305  0.3836 -0.9009 -0.3719
   47MOL   C12315855   7.188   7.502   1.293 -0.6347  0.0261 -0.3727
   47MOL   C12415856   7.176   7.395   1.390  0.4480  0.3239  0.1325
   47MOL   C12515857   7.271   7.389   1.493 -0.1976 -0.8918  0.4511
   47MOL   O12615858   7.266   7.295   1.590 -0.0819 -0.1534 -0.2866
   47MOL   C12715859   7.370   7.488   1.506  0.0280 -0.2585 -0.4886
   47MOL   C12815860   7.387   7.587   1.410 -0.5235  0.1067 -0.0644
   47MOL   C12915861   7.316   7.686   1.072 -0.1506  0.6301  0.6457
   47MOL   H13015862   7.384   7.782   1.245 -1.3133  1.3038  1.8735
   47MOL   H13115863   7.114   7.528   1.219 -0.5791  0.8107 -0.1521
   47MOL   H13215864   7.097   7.325   1.366  1.0201 -0.1628 -0.3534
   47MOL   H13315865   7.200   7.228   1.586  2.1429 -2.4640 -0.2076
   47MOL   H13415866   7.440   7.477   1.587  0.9765 -1.1223 -1.4049
   47MOL   H13515867   7.464   7.662   1.417  0.7536 -1.1757 -0.2228
   47MOL   H13615868   7.285   7.768   1.007  1.5621 -0.9938 -2.3503
   47MOL   H13715869   7.241   7.616   1.033  1.4664  0.6987 -2.7784
   47MOL   C13815870   7.462   7.638   1.023  0.3827  0.0711 -0.0253
   47MOL   C13915871   7.571   7.740   1.062  0.6868 -0.2988 -0.0827
   47MOL   C14015872   7.655   7.708   1.172 -0.5529  0.1660 -0.0345
   47MOL   C14115873   7.747   7.802   1.220  0.8195  0.8019  0.6861
   47MOL   C14215874   7.756   7.934   1.158  0.8085 -0.0192 -1.0060
   47MOL   O14315875   7.843   8.024   1.200  0.0696  0.2122 -0.3910
   47MOL   C14415876   7.668   7.962   1.050  0.3192  0.5512  0.0351
   47MOL   C14515877   7.575   7.866   1.005  0.3604  0.0071  0.6203
   47MOL   C14615878   7.455   7.608   0.877 -0.5130  0.1470  0.2040
   47MOL   H14715879   7.491   7.547   1.075 -0.0041 -1.6028 -2.6307
   47MOL   H14815880   7.667   7.613   1.223  3.0815 -0.4179 -1.7839
   47MOL   H14915881   7.809   7.774   1.304  2.9289  1.3365 -0.6372
   47MOL   H15015882   7.818   0.069   1.160 -3.4437 -0.5570  0.0228
   47MOL   H15115883   7.655   0.022   1.004 -2.7802 -0.1608 -0.7144
   47MOL   H15215884   7.501   7.899   0.933  0.2265 -0.2270  0.6511
   47MOL   H15315885   7.561   7.592   0.854 -0.2708  3.6458 -1.3787
   47MOL   H15415886   7.444   7.699   0.819 -0.8392  0.2815  0.4806
   47MOL   C15515887   7.355   7.494   0.836  0.4061 -0.5312  0.1140
   47MOL   C15615888   7.366   7.370   0.927  0.7949 -0.1469 -0.1002
   47MOL   C15715889   7.481   7.291   0.934  0.0361  0.3925  0.5881
   47MOL   C15815890   7.480   7.185   1.026  0.2378  0.3549  1.0746
   47MOL   C15915891   7.377   7.149   1.114 -0.0738  0.0948 -0.0086
   47MOL   O16015892   7.405   7.051   1.207  0.3360 -0.2006 -0.2621
   47MOL   C16115893   7.254   7.216   1.094 -0.7026 -0.4608 -0.4041
   47MOL   C16215894   7.250   7.323   0.998  0.6821 -0.1713 -0.1641
   47MOL   C16315895   7.368   7.454   0.686 -0.0069 -0.2021 -0.2196
   47MOL   H16415896   7.260   7.544   0.852  1.0804  0.8042  0.0181
   47MOL   H16515897   7.569   7.315   0.875 -0.2929 -0.3910 -0.2421
   47MOL   H16615898   7.576   7.138   1.044  0.5017  0.7250  0.6461
   47MOL   H16715899   7.475   7.080   1.263 -1.0462  0.8419  0.9730
   47MOL   H16815900   7.172   7.186   1.159  0.4130  0.0433  1.2743
   47MOL   H16915901   7.158   7.379   0.988  1.1921  0.5733 -0.6699
   47MOL   H17015902   7.311   7.361   0.681  2.7977 -2.0060 -0.2902
   47MOL   H17115903   7.468   7.418   0.662  0.1910 -0.0581  0.3961
   47MOL   C17215904   7.326   7.560   0.580 -0.3542 -0.0139 -0.3809
   47MOL   C17315905   7.183   7.602   0.603 -0.2217  0.1899 -0.4113
   47MOL   C17415906   7.147   7.717   0.672 -0.0135 -0.8834 -0.5496
   47MOL   C17515907   7.017   7.762   0.683 -0.2756  0.4048  0.2071
   47MOL   C17615908   6.913   7.684   0.621 -0.3608 -0.9248  0.5187
   47MOL   O17715909   6.787   7.727   0.629 -0.1067  0.8061  0.1175
   47MOL   C17815910   6.947   7.566   0.551  0.1338 -0.1500 -0.6037
   47MOL   C17915911   7.078   7.521   0.543 -0.6384 -0.5769 -0.5829
   47MOL   C18015912   7.346   7.522   0.431 -0.3554  0.2389 -0.5347
   47MOL   H18115913   7.379   7.655   0.593  0.4732 -0.6374  0.9402
   47MOL   H18215914   7.223   7.768   0.728 -0.1483 -1.7319  0.4110
   47MOL   H18315915   7.000   7.853   0.738 -0.4877  1.2093 -1.1724
   47MOL   H18415916   6.729   7.653   0.642  0.4489  0.5132  0.9383
   47MOL   H18515917   6.875   7.498   0.509  0.1605 -1.6382  1.6168
   47MOL   H18615918   7.100   7.433   0.483 -1.3000 -0.2723 -1.2810
   47MOL   H18715919   7.288   7.595   0.375 -0.9711 -2.0479 -2.9410
   47MOL   H18815920   7.289   7.431   0.414 -0.3273 -0.3626  2.3218
   47MOL   C18915921   7.498   7.533   0.378  0.5081 -0.1580 -0.1555
   47MOL   C19015922   7.576   7.409   0.404  1.0254  0.2456  0.2353
   47MOL   C19115923   7.700   7.404   0.470  0.9467  0.0149 -0.1898
   47MOL   C19215924   7.774   7.280   0.483  0.2011  0.0123 -0.2477
   47MOL   C19315925   7.709   7.155   0.455  0.5345 -0.0830 -0.3040
   47MOL   O19415926   7.776   7.040   0.477 -0.4725 -0.0074  0.4991
   47MOL   C19515927   7.585   7.159   0.395  0.2659 -0.2407  0.9885
   47MOL   C19615928   7.522   7.283   0.368 -0.3645  1.0677 -0.2467
   47MOL   C19715929   7.498   7.577   0.232  0.7944  0.4079  0.0844
   47MOL   H19815930   7.551   7.616   0.426  0.2433 -0.5726  0.8620
   47MOL   H19915931   7.752   7.496   0.493 -0.3343  1.1343 -1.6850
   47MOL   H20015932   7.874   7.289   0.523 -0.6882  1.9329  1.6710
   47MOL   H20115933   7.729   6.961   0.456 -1.0526  0.4915 -0.0676
   47MOL   H20215934   7.539   7.068   0.359  0.0404  0.2504  0.0038
   47MOL   H20315935   7.423   7.283   0.325 -0.4562  1.8916 -0.0421
   47MOL   H20415936   7.428   7.518   0.174 -1.3867  0.8385  2.2130
   47MOL   H20515937   7.593   7.557   0.183  0.0211 -0.4914 -1.0746
   47MOL   C20615938   7.468   7.728   0.207 -0.1450 -0.6633  0.5518
   47MOL   C20715939   7.411   7.738   0.063  0.6704  0.6131 -0.3024
   47MOL   C20815940   7.489   7.680   7.997 -0.2104  0.6860 -0.1063
   47MOL   C20915941   7.445   7.678   7.864  0.5106 -0.6698  0.1566
   47MOL   C21015942   7.316   7.730   7.832 -0.0126  0.3215 -0.1527
   47MOL   O21115943   7.268   7.718   7.709 -0.2182 -0.3169 -0.1423
   47MOL   C21215944   7.234   7.787   7.932 -0.3298 -0.5583 -0.8252
   47MOL   C21315945   7.286   7.794   0.032  0.8141 -0.3617  0.5759
   47MOL   C21415946   7.592   7.821   0.227 -0.4774 -0.7072  0.6173
   47MOL   H21515947   7.393   7.760   0.279 -0.4358 -0.5342  0.1975
   47MOL   H21615948   7.590   7.642   8.002 -0.7573 -0.8753 -0.5201
   47MOL   H21715949   7.506   7.645   7.781  1.5965  1.2066  0.1784
   47MOL   H21815950   7.331   7.718   7.639 -0.0162 -2.4444  0.0229
   47MOL   H21915951   7.136   7.826   7.907 -1.0304 -0.2629  2.2718
   47MOL   H22015952   7.228   7.834   0.114 -2.0488 -1.6109 -0.7670
   47MOL   H22115953   7.675   7.763   0.186  0.3863 -0.3119  1.7506
   47MOL   H22215954   7.608   7.824   0.335 -0.7951 -2.4210  0.7268
   47MOL   C22315955   7.582   7.959   0.163  0.4860 -0.2847 -0.3664
   47MOL   C22415956   7.724   8.016   0.165 -0.1404  0.1035 -0.3268
   47MOL   C22515957   7.785   0.022   0.283  0.1531  0.3180 -0.2343
   47MOL   C22615958   7.915   0.082   0.284 -0.2577  0.2076  0.2322
   47MOL   C22715959   7.988   0.074   0.167  0.0569  0.3530  0.0387
   47MOL   O22815960   0.084   0.107   0.167  0.2955  0.5320 -0.3029
   47MOL   C22915961   7.930   0.032   0.050  0.1116 -0.1268 -0.5736
   47MOL   C23015962   7.797   8.025   0.043  0.6891 -0.0199  0.1646
   47MOL   C23115963   7.488   0.019   0.248  0.4113  0.5325  1.1053
   47MOL   H23215964   7.547   7.960   0.060 -0.6796 -0.6519  0.0246
   47MOL   H23315965   7.742   0.014   0.382 -0.5017 -1.2680 -0.6401
   47MOL   H23415966   7.961   0.121   0.373  1.7325  0.4142 -0.8627
   47MOL   H23515967   0.118   0.051   0.235 -1.5088  1.7195  1.6600
   47MOL   H23615968   7.985   0.027   7.995  0.5947 -1.7998 -0.2103
   47MOL   H23715969   7.755   8.010   7.983  0.5111 -0.8851  0.3719
   47MOL   H23815970   7.397   7.998   0.261  0.2018  0.9098  1.3289
   47MOL   H23915971   7.526   0.020   0.351  1.4545  0.9506  0.7244
   47MOL   C24015972   7.458   0.168   0.201  0.2887  0.0422  0.0186
   47MOL   C24115973   7.420   0.177   0.052 -0.5450  0.6573  0.1167
   47MOL   C24215974   7.483   0.272   8.005 -0.5895 -0.7599 -0.1732
   47MOL   C24315975   7.448   0.307   7.880  0.2420 -0.2326 -0.6756
   47MOL   C24415976   7.336   0.241   7.823 -0.0808 -0.5662  0.2526
   47MOL   O24515977   7.303   0.263   7.692 -1.0381 -0.1917 -0.4815
   47MOL   C24615978   7.267   0.143   7.897  0.2856 -0.6171 -0.0761
   47MOL   C24715979   7.312   0.112   8.026 -0.0487  0.4578 -0.6381
   47MOL   C24815980   7.351   0.241   0.285  0.5502 -0.0505  0.0923
   47MOL   H24915981   7.554   0.217   0.214 -0.3655  1.7266 -1.2822
   47MOL   H25015982   7.556   0.341   0.007  1.3362 -1.8046 -1.8045
   47MOL   H25115983   7.505   0.385   7.831 -0.4104  1.0924  0.6308
   47MOL   H25215984   7.211   0.244   7.678 -1.1581 -1.1030  1.4357
   47MOL   H25315985   7.190   0.086   7.847 -0.8386 -0.5052  1.4825
   47MOL   H25415986   7.259   0.037   0.044  2.7592 -0.9999  0.1690
   47MOL   H25515987   7.346   0.341   0.240  0.5442  0.2075  0.6654
   47MOL   H25615988   7.251   0.206   0.262  0.5929 -0.5273  0.6368
   47MOL   C25715989   7.376   0.253   0.442 -0.7259  0.2402 -0.2861
   47MOL   C25815990   7.512   0.258   0.502 -0.2480  0.1555  0.7178
   47MOL   C25915991   7.613   0.353   0.464  0.0366  0.2460  0.4617
   47MOL   C26015992   7.746   0.335   0.515  0.7313  0.2040 -0.0179
   47MOL   C26115993   7.771   0.234   0.610  0.0451 -0.2614  0.3396
   47MOL   O26215994   7.903   0.225   0.655 -0.4503  1.0385  0.3386
   47MOL   C26315995   7.672   0.157   0.661  0.6218  0.1539  0.2338
   47MOL   C26415996   7.545   0.161   0.604 -0.0803 -0.3968 -0.0597
   47MOL   C26515997   7.300   0.385   0.479 -0.2384 -0.9676  0.4246
   47MOL   H26615998   7.341   0.161   0.489  4.3139 -2.1100 -0.8875
   47MOL   H26715999   7.595   0.428   0.389  2.5835 -0.3414 -0.7877
   47MOL   H26816000   7.827   0.398   0.482  0.7995  0.8060  1.2672
   47MOL   H26916001   7.909   0.169   0.730 -0.2388  1.4451  0.6294
   47MOL   H27016002   7.696   0.083   0.736  0.3184  0.2323  0.4093
   47MOL   H27116003   7.474   0.088   0.639  0.1465 -0.2641  0.7012
   47MOL   H27216004   7.198   0.376   0.440 -0.7483 -0.7202  1.6733
   47MOL   H27316005   7.346   0.464   0.420 -1.0076 -0.1100  0.9669
   47MOL   C27416006   7.293   0.430   0.627  0.0087 -0.3069 -0.2496
   47MOL   C27516007   7.242   0.316   0.722  0.1500  0.6820 -0.6236
   47MOL   C27616008   7.316   0.277   0.835 -0.3916 -0.2852 -0.1628
   47MOL   C27716009   7.286   0.157   0.899  0.6423 -0.3359  0.0535
   47MOL   C27816010   7.175   0.078   0.860 -0.1814  0.5982  0.4202
   47MOL   O27916011   7.155   7.994   0.921  0.2036 -0.2660  0.0667
   47MOL   C28016012   7.093   0.116   0.751 -0.4992  0.0634  0.1810
   47MOL   C28116013   7.125   0.238   0.690 -0.7325 -0.5426 -0.7409
   47MOL   C28216014   7.208   0.556   0.620  0.0236 -0.4577  0.4530
   47MOL   H28316015   7.394   0.457   0.658  0.0656  1.1964 -1.7371
   47MOL   H28416016   7.398   0.338   0.869  1.6981 -2.5779 -0.9556
   47MOL   H28516017   7.343   0.131   0.987  1.6259 -0.4158 -0.5969
   47MOL   H28616018   7.067   7.963   0.940  0.9931 -1.3083  2.2554
   47MOL   H28716019   7.013   0.052   0.718 -1.0705  1.2263 -0.7109
   47MOL   H28816020   7.063   0.269   0.608 -0.7530 -1.1395 -0.9512
   47MOL   H28916021   7.220   0.606   0.524 -2.1597 -0.4012  0.1887
   47MOL   H29016022   7.103   0.529   0.611  0.2205 -1.4587  1.0567
   47MOL   C29116023   7.241   0.655   0.735 -0.1222 -0.0156 -0.1664
   47MOL   C29216024   7.108   0.742   0.757  0.5107  1.0753 -0.2548
   47MOL   C29316025   7.052   0.831   0.662 -0.5621 -0.4817 -0.0309
   47MOL   C29416026   6.928   0.899   0.689  0.2636 -0.7448  0.4127
   47MOL   C29516027   6.864   0.866   0.806  0.2849  0.2125 -0.3117
   47MOL   O29616028   6.752   0.930   0.831  0.0593  0.4391 -0.4517
   47MOL   C29716029   6.910   0.781   0.902 -0.3416  0.4204 -0.1885
   47MOL   C29816030   7.033   0.718   0.876  0.0127  0.4320 -0.1488
   47MOL   C29916031   7.362   0.752   0.696 -0.1833 -0.4155 -0.0119
   47MOL   H30016032   7.263   0.610   0.832 -2.9150 -1.2670 -0.0687
   47MOL   H30116033   7.102   0.838   0.567  0.1556 -0.3864  0.3525
   47MOL   H30216034   6.884   0.954   0.607  1.3414 -0.0411  0.2923
   47MOL   H30316035   6.672   0.885   0.854 -0.3584  1.2797 -0.2383
   47MOL   H30416036   6.848   0.753   0.986  2.2858 -1.2734  1.2661
   47MOL   H30516037   7.073   0.653   0.952 -2.1358 -1.0302 -0.2243
   47MOL   H30616038   7.333   0.805   0.606  0.0954  0.7479  0.5823
   47MOL   H30716039   7.454   0.699   0.673  0.4680  1.3308 -1.4628
   47MOL   C30816040   7.388   0.869   0.795  0.8545 -0.2639 -0.8185
   47MOL   C30916041   7.483   0.974   0.726  0.1620  0.4173  0.2362
   47MOL   C31016042   7.611   0.931   0.682 -0.3034 -0.5853 -0.5137
   47MOL   C31116043   7.701   1.022   0.625 -0.3450  0.1523 -0.1518
   47MOL   C31216044   7.674   1.157   0.622  0.7141 -0.4116  0.6531
   47MOL   O31316045   7.768   1.245   0.572  0.3982 -0.2706  0.4419
   47MOL   C31416046   7.547   1.203   0.667  0.5769 -0.1367 -0.3590
   47MOL   C31516047   7.448   1.108   0.717  0.2163 -0.8861  0.2110
   47MOL   C31616048   7.433   0.831   0.943  0.0420  0.0713  0.1181
   47MOL   H31716049   7.293   0.920   0.812  0.0562 -1.4807 -1.5630
   47MOL   H31816050   7.629   0.825   0.690 -0.7309 -0.5969  0.4129
   47MOL   H31916051   7.796   0.986   0.588 -0.4789 -0.6283  0.2388
   47MOL   H32016052   7.852   1.205   0.581 -0.1743 -1.4537  0.5644
   47MOL   H32116053   7.536   1.310   0.674  2.3504 -0.0739  2.4219
   47MOL   H32216054   7.348   1.143   0.734  0.9266  1.3531 -0.0997
   47MOL   H32316055   7.525   0.773   0.945 -0.7421 -1.2188 -0.7284
   47MOL   H32416056   7.351   0.768   0.974  1.6285 -1.8541  0.5028
   47MOL   C32516057   7.431   0.952   1.050  0.1385  0.4312  0.4246
   47MOL   C32616058   7.537   1.055   1.030 -0.0437 -0.3681  1.2332
   47MOL   C32716059   7.505   1.193   1.060  0.4527  0.3118 -0.6593
   47MOL   C32816060   7.604   1.296   1.036 -0.4507 -0.3842 -0.5680
   47MOL   C32916061   7.731   1.261   0.974 -0.0682 -0.1156 -0.0209
   47MOL   O33016062   7.830   1.347   0.962  0.4722 -0.3551 -0.1042
   47MOL   C33116063   7.764   1.125   0.955 -0.3450  0.3061  0.8242
   47MOL   C33216064   7.664   1.027   0.979 -0.2217  0.0501 -0.0198
   47MOL   C33316065   7.446   0.912   1.189  1.1720  0.1605 -0.0982
   47MOL   H33416066   7.338   1.003   1.024 -1.1252 -1.0321  1.9524
   47MOL   H33516067   7.410   1.227   1.097  1.0746  0.8792  0.4626
   47MOL   H33616068   7.577   1.399   1.056 -0.6627 -0.7975  1.4247
   47MOL   H33716069   7.811   1.430   1.003  0.4179  0.1425 -1.1070
   47MOL   H33816070   7.858   1.084   0.919 -1.3410 -1.5801  0.2985
   47MOL   H33916071   7.696   0.927   0.955  0.4967  0.5221 -1.0747
   47MOL   H34016072   7.375   0.831   1.207  0.5676  0.4748 -1.0454
   47MOL   H34116073   7.420   0.995   1.255 -0.5228  1.8090 -2.7506
   47MOL   H34216074   7.548   0.880   1.212  1.0722 -1.3237 -1.6235
   48MOL     C116075   2.796   1.436   6.166 -0.1165 -0.2752 -0.4419
   48MOL     C216076   2.792   1.304   6.247 -0.4244 -0.2384 -0.5598
   48MOL     C316077   2.843   1.307   6.377  0.1893 -0.1738 -0.1486
   48MOL     C416078   2.847   1.190   6.449 -0.0681  0.1999  0.1687
   48MOL     C516079   2.802   1.064   6.397  0.1428 -0.1452 -0.4139
   48MOL     O616080   2.821   0.948   6.472 -0.2702  0.6143  0.3253
   48MOL     C716081   2.757   1.063   6.266  0.0485  0.7597  0.6109
   48MOL     C816082   2.747   1.188   6.193 -0.2819 -0.4644  0.4053
   48MOL     C916083   2.664   1.519   6.178 -0.9088  0.0622 -0.2868
   48MOL    H1016084   2.881   1.499   6.188 -0.9084  0.4493  0.5592
   48MOL    H1116085   2.884   1.397   6.421  0.1214  0.2257 -0.8956
   48MOL    H1216086   2.896   1.188   6.546 -0.4953 -0.8981  0.3635
   48MOL    H1316087   2.908   0.938   6.507 -0.7766  0.5311  1.5754
   48MOL    H1416088   2.714   0.974   6.223 -2.0845  0.5139  3.1184
   48MOL    H1516089   2.694   1.192   6.099 -0.0289  0.1210  0.2807
   48MOL    H1616090   2.660   1.589   6.094 -2.2478  1.8844  1.2372
   48MOL    H1716091   2.671   1.563   6.278 -0.9384 -2.1475  0.7069
   48MOL    H1816092   2.812   1.400   6.064  0.6406 -0.5663 -0.2246
   48MOL    C1916093   2.523   1.447   6.157 -0.2794  0.2056 -0.6742
   48MOL    C2016094   2.436   1.541   6.076  0.8946  0.2252 -0.4255
   48MOL    C2116095   2.380   1.658   6.129  0.6728 -0.2041 -0.4677
   48MOL    C2216096   2.300   1.746   6.050  0.0780  0.0515  0.0574
   48MOL    C2316097   2.284   1.711   5.919 -0.2330  0.6808 -0.0963
   48MOL    O2416098   2.221   1.792   5.831  0.0816 -0.3301  0.0781
   48MOL    C2516099   2.343   1.600   5.853 -0.3734 -0.0535 -0.1527
   48MOL    C2616100   2.420   1.518   5.934  0.2076 -0.5443  0.1611
   48MOL    C2716101   2.467   1.397   6.296  0.6488 -0.4155 -0.7026
   48MOL    H2816102   2.548   1.362   6.093  1.0179 -0.2870  0.4645
   48MOL    H2916103   2.404   1.691   6.229 -1.1650  0.2650 -0.1627
   48MOL    H3016104   2.266   1.839   6.092  0.5449  0.8756 -1.3546
   48MOL    H3116105   2.187   1.874   5.867  1.2336  0.2445 -0.1240
   48MOL    H3216106   2.351   1.593   5.745  2.7364  0.7119 -0.0189
   48MOL    H3316107   2.475   1.439   5.886  0.4234 -0.0817 -0.3656
   48MOL    H3416108   2.456   1.482   6.363  0.6869 -0.1173 -1.0731
   48MOL    H3516109   2.538   1.330   6.344  0.5825  0.6888  0.9656
   48MOL    C3616110   2.338   1.311   6.296 -0.2209 -0.7326 -0.0949
   48MOL    C3716111   2.350   1.199   6.199  0.0648 -0.0903  0.8835
   48MOL    C3816112   2.299   1.209   6.068 -0.4847  0.3498  0.4942
   48MOL    C3916113   2.323   1.111   5.966  0.1479  0.0931  0.1783
   48MOL    C4016114   2.381   0.992   6.008 -0.8747 -0.4676  1.3915
   48MOL    O4116115   2.392   0.894   5.913  0.3234  0.0231  0.3880
   48MOL    C4216116   2.421   0.967   6.142 -1.3364 -0.4374  0.0640
   48MOL    C4316117   2.408   1.070   6.235 -0.4594 -0.5048 -0.2367
   48MOL    C4416118   2.205   1.389   6.285 -0.9970 -0.2015  0.0871
   48MOL    H4516119   2.325   1.263   6.393 -3.0234  1.0022  0.4591
   48MOL    H4616120   2.252   1.300   6.034 -2.2466 -0.5670  0.4525
   48MOL    H4716121   2.289   1.108   5.863 -2.7796 -1.1932  1.1223
   48MOL    H4816122   2.429   0.931   5.834 -2.0645  0.4099 -0.5710
   48MOL    H4916123   2.438   0.864   6.168 -0.5072 -0.3320 -0.0208
   48MOL    H5016124   2.440   1.043   6.334  0.2038 -2.3644 -0.9448
   48MOL    H5116125   2.219   1.445   6.193  1.3743 -0.9370 -0.0293
   48MOL    H5216126   2.117   1.327   6.266 -1.9541  1.0357  0.4101
   48MOL    C5316127   2.172   1.489   6.401  0.1187 -0.1063  0.5509
   48MOL    C5416128   2.043   1.567   6.357 -0.1732  0.5489  0.5084
   48MOL    C5516129   1.912   1.503   6.358 -1.4615  0.1114 -0.5033
   48MOL    C5616130   1.796   1.569   6.317 -0.1485 -0.3718  0.0139
   48MOL    C5716131   1.814   1.702   6.265 -0.0964 -0.1103 -0.0027
   48MOL    O5816132   1.711   1.769   6.199  0.5292 -0.2338 -0.2024
   48MOL    C5916133   1.930   1.771   6.281 -0.2933  0.2270  0.1080
   48MOL    C6016134   2.044   1.706   6.322  0.1104 -0.0776 -0.8106
   48MOL    C6116135   2.156   1.414   6.536  0.0676  0.6512 -0.3739
   48MOL    H6216136   2.253   1.562   6.403  2.2170 -2.3853  0.7412
   48MOL    H6316137   1.909   1.398   6.384  0.5059  0.7495  2.6976
   48MOL    H6416138   1.697   1.527   6.312 -1.1055  1.7990  0.2394
   48MOL    H6516139   1.650   1.722   6.144 -0.9335  0.9270  0.3871
   48MOL    H6616140   1.936   1.876   6.255  1.9669  0.1479  0.1420
   48MOL    H6716141   2.134   1.766   6.314 -0.0084 -0.0531 -2.0614
   48MOL    H6816142   2.245   1.352   6.548 -1.4762 -1.4248  0.6740
   48MOL    H6916143   2.072   1.346   6.524 -0.6931  1.3805  0.7444
   48MOL    C7016144   2.134   1.492   6.670 -0.1008 -0.0087 -0.2787
   48MOL    C7116145   2.211   1.621   6.672 -0.6382  0.2199 -0.5166
   48MOL    C7216146   2.141   1.747   6.668  0.4416  1.0155  0.0062
   48MOL    C7316147   2.215   1.865   6.646 -0.1854 -0.0421  0.2999
   48MOL    C7416148   2.349   1.870   6.634  0.4739 -0.4803  0.1185
   48MOL    O7516149   2.414   1.989   6.620  0.1986 -0.3026  0.0782
   48MOL    C7616150   2.424   1.750   6.648  0.6386 -0.6403  0.3404
   48MOL    C7716151   2.354   1.627   6.670  0.0282  0.8207 -1.0571
   48MOL    C7816152   2.161   1.401   6.793  0.2017 -0.4802 -0.0202
   48MOL    H7916153   2.031   1.527   6.673 -0.2642 -0.5642  1.3751
   48MOL    H8016154   2.034   1.754   6.676  0.3935 -0.4124  0.6285
   48MOL    H8116155   2.162   1.958   6.658 -0.9877 -0.5713  0.9385
   48MOL    H8216156   2.508   1.998   6.627  0.0817  1.9178 -0.7893
   48MOL    H8316157   2.531   1.758   6.637  0.5639  0.5996  0.4778
   48MOL    H8416158   2.410   1.534   6.671  1.8252  1.8827 -1.1110
   48MOL    H8516159   2.176   1.461   6.883 -0.2028 -1.1151  0.4839
   48MOL    H8616160   2.243   1.329   6.791  0.9949  0.4219  0.0311
   48MOL    C8716161   2.043   1.312   6.834  0.0620  0.1135 -1.0780
   48MOL    C8816162   1.916   1.394   6.847  0.0080 -1.0288  0.4952
   48MOL    C8916163   1.808   1.360   6.764 -0.0564  0.2059 -0.1805
   48MOL    C9016164   1.687   1.421   6.785  0.0096 -0.4026 -0.2263
   48MOL    C9116165   1.670   1.523   6.877  0.3105 -0.0891  0.3208
   48MOL    O9216166   1.546   1.591   6.880 -0.1462  0.3088 -0.0936
   48MOL    C9316167   1.768   1.544   6.968 -0.3951  0.5687 -0.3780
   48MOL    C9416168   1.893   1.478   6.958  0.7333  0.9482  0.1626
   48MOL    C9516169   2.072   1.216   6.951 -0.3069 -0.1003 -0.1261
   48MOL    H9616170   2.026   1.240   6.753 -1.3465  2.1002 -2.5894
   48MOL    H9716171   1.811   1.282   6.690  0.9625  0.5302 -0.4875
   48MOL    H9816172   1.602   1.388   6.727  0.6680 -0.7524 -0.9979
   48MOL    H9916173   1.538   1.641   6.960 -4.0459 -1.7310  0.9469
   48MOL   H10016174   1.766   1.622   7.043 -1.6784 -0.2870  0.4859
   48MOL   H10116175   1.974   1.490   7.028 -0.3436 -1.1683  1.8438
   48MOL   H10216176   2.169   1.170   6.934  0.5958  1.0532  1.6323
   48MOL   H10316177   2.109   1.281   7.031 -0.4799 -0.5770  0.3433
   48MOL   C10416178   1.960   1.120   7.004 -0.6759 -0.7167  0.1264
   48MOL   C10516179   1.933   1.144   7.151 -0.1811 -0.7830 -0.0165
   48MOL   C10616180   1.804   1.188   7.197  0.1664  0.2375  0.2871
   48MOL   C10716181   1.782   1.181   7.336  0.7095 -0.9794 -0.0105
   48MOL   C10816182   1.887   1.156   7.428 -0.0287 -0.0387  0.1952
   48MOL   O10916183   1.862   1.144   7.560 -0.1372 -0.4946  0.2346
   48MOL   C11016184   2.019   1.143   7.384 -0.8534  0.0435 -0.2428
   48MOL   C11116185   2.043   1.142   7.247 -0.0396  0.3774  0.1883
   48MOL   C11216186   1.992   0.972   6.988  0.2159 -0.1893 -0.5592
   48MOL   H11316187   1.873   1.139   6.941 -0.8369 -0.0661  0.5423
   48MOL   H11416188   1.728   1.204   7.121 -1.3173 -0.5682  1.5658
   48MOL   H11516189   1.678   1.181   7.367  0.6486 -0.9312 -0.2141
   48MOL   H11616190   1.933   1.097   7.601 -1.3757 -0.2895  2.7269
   48MOL   H11716191   2.101   1.113   7.448 -2.1148  1.5208  2.1363
   48MOL   H11816192   2.140   1.101   7.226  0.7747  0.5167  3.4438
   48MOL   H11916193   1.927   0.912   7.053  0.2257  1.1073  0.6764
   48MOL   H12016194   2.087   0.955   7.039 -0.0745  1.3594  0.5286
   48MOL   C12116195   1.984   0.897   6.852  0.5241 -0.3239  1.1547
   48MOL   C12216196   2.121   0.915   6.795 -0.2344  0.2811 -0.2442
   48MOL   C12316197   2.228   0.843   6.847  0.0431  0.4102 -0.0633
   48MOL   C12416198   2.354   0.885   6.810  0.7432 -0.1947  0.4450
   48MOL   C12516199   2.382   0.972   6.704 -0.0480  0.3948  0.4900
   48MOL   O12616200   2.515   0.997   6.665 -0.3226  0.2934 -0.0649
   48MOL   C12716201   2.268   1.033   6.647  0.1143  0.2111  0.1044
   48MOL   C12816202   2.143   1.017   6.701  0.8626 -0.6940 -0.0023
   48MOL   C12916203   1.934   0.754   6.867  0.0411  0.1463  0.2852
   48MOL   H13016204   1.922   0.958   6.786  4.0751 -0.9601 -2.9672
   48MOL   H13116205   2.226   0.771   6.927  1.9136 -0.2948 -0.6099
   48MOL   H13216206   2.443   0.847   6.859  1.1813  0.8049  0.4224
   48MOL   H13316207   2.573   0.962   6.731  1.4177  1.6523 -0.8386
   48MOL   H13416208   2.272   1.106   6.567 -1.9350  0.8423  0.5393
   48MOL   H13516209   2.055   1.068   6.665  0.9104  0.3305  1.2789
   48MOL   H13616210   1.946   0.718   6.970  2.5330 -0.1458 -0.0827
   48MOL   H13716211   1.994   0.694   6.799 -0.1878  0.5590 -0.2829
   48MOL   C13816212   1.784   0.729   6.834  0.4019  0.2917 -0.0837
   48MOL   C13916213   1.699   0.853   6.832 -0.2678 -0.4561 -0.0056
   48MOL   C14016214   1.659   0.914   6.949 -0.9381  0.1794  0.0503
   48MOL   C14116215   1.568   1.014   6.941 -0.3063 -0.6530  0.2656
   48MOL   C14216216   1.505   1.055   6.819  0.0743 -0.3859 -0.6007
   48MOL   O14316217   1.415   1.158   6.816 -0.0288  0.0735 -0.5418
   48MOL   C14416218   1.538   0.988   6.707 -0.3467 -0.7274  0.1805
   48MOL   C14516219   1.642   0.893   6.709 -0.0018  0.2302 -0.4090
   48MOL   C14616220   1.706   0.611   6.899  0.4450  1.0806  0.3191
   48MOL   H14716221   1.794   0.697   6.731 -1.8060 -2.6238  0.5222
   48MOL   H14816222   1.709   0.891   7.042  1.7598 -0.1550 -1.4181
   48MOL   H14916223   1.543   1.076   7.026  0.3315  2.9933 -2.1222
   48MOL   H15016224   1.446   1.243   6.843  0.5294  0.9354 -3.6659
   48MOL   H15116225   1.490   1.017   6.615  0.8530  1.9880  0.3716
   48MOL   H15216226   1.668   0.834   6.622 -0.5326 -0.0853 -0.3577
   48MOL   H15316227   1.613   0.613   6.842  1.6228  1.5902 -1.6271
   48MOL   H15416228   1.690   0.644   7.002  0.8034  0.6405  0.5186
   48MOL   C15516229   1.780   0.473   6.897  0.2716 -0.4626  0.1819
   48MOL   C15616230   1.850   0.437   6.769 -0.0626 -0.5135 -0.0033
   48MOL   C15716231   1.985   0.401   6.762  0.3185 -0.5057 -0.2184
   48MOL   C15816232   2.056   0.377   6.642  0.1316  0.6851 -0.6478
   48MOL   C15916233   1.986   0.375   6.520  0.0804  0.1969 -0.9442
   48MOL   O16016234   2.048   0.331   6.407  0.0647 -0.5076 -0.1240
   48MOL   C16116235   1.848   0.404   6.525  0.4218 -0.0820 -0.1514
   48MOL   C16216236   1.782   0.435   6.646  0.2537  0.3988 -0.6061
   48MOL   C16316237   1.678   0.363   6.927  0.5070 -0.8477 -0.5038
   48MOL   H16416238   1.859   0.468   6.973  0.7671 -0.8217 -0.3555
   48MOL   H16516239   2.038   0.391   6.856  0.8453  1.3062 -0.2920
   48MOL   H16616240   2.162   0.359   6.637  0.5330  2.1647  1.5492
   48MOL   H16716241   1.988   0.299   6.342  0.4468 -0.5156 -0.4757
   48MOL   H16816242   1.790   0.417   6.435  0.6302  0.9308 -0.1527
   48MOL   H16916243   1.677   0.459   6.639  0.1459 -0.0272 -0.4778
   48MOL   H17016244   1.711   0.267   6.887  0.7384 -0.4935 -1.1772
   48MOL   H17116245   1.583   0.382   6.877  1.7735  0.8314 -2.3271
   48MOL   C17216246   1.666   0.343   7.082 -0.7928 -0.0675  0.3158
   48MOL   C17316247   1.802   0.284   7.130  0.9988 -0.3178  0.4874
   48MOL   C17416248   1.854   0.167   7.088  0.7715  0.2861 -1.1094
   48MOL   C17516249   1.985   0.126   7.110 -0.3237 -0.1487 -0.2587
   48MOL   C17616250   2.072   0.210   7.187  0.1017  0.1219 -1.0082
   48MOL   O17716251   2.200   0.175   7.217 -0.1552  0.2148  0.1224
   48MOL   C17816252   2.019   0.323   7.244  0.1101 -0.3795  0.0567
   48MOL   C17916253   1.887   0.362   7.216 -0.3433 -0.1227 -0.3148
   48MOL   C18016254   1.553   0.234   7.123 -0.3947  0.1876 -0.2520
   48MOL   H18116255   1.655   0.433   7.142  1.6755 -0.1671  0.9778
   48MOL   H18216256   1.800   0.095   7.028 -0.3976 -1.2206  1.6590
   48MOL   H18316257   2.023   0.036   7.065 -0.5070 -1.2634  1.7976
   48MOL   H18416258   2.235   0.114   7.154 -0.1677 -0.2202  0.5363
   48MOL   H18516259   2.083   0.384   7.306 -0.5722  0.5047 -0.1075
   48MOL   H18616260   1.839   0.453   7.251  0.2514  0.5066 -1.1096
   48MOL   H18716261   1.527   0.237   7.229 -3.3535  3.2666 -0.9762
   48MOL   H18816262   1.590   0.134   7.100 -4.0180 -1.7028  1.6789
   48MOL   C18916263   1.415   0.231   7.045  0.1020 -0.1697  0.1989
   48MOL   C19016264   1.327   0.122   7.096 -0.4125 -0.4056  0.0970
   48MOL   C19116265   1.252   0.135   7.211 -0.7955  0.4215 -0.6715
   48MOL   C19216266   1.168   0.027   7.245  0.2846 -0.4239 -0.9960
   48MOL   C19316267   1.156   7.951   7.166 -0.8443 -0.0614  0.1691
   48MOL   O19416268   1.074   7.853   7.207 -0.1251 -0.3901  0.1626
   48MOL   C19516269   1.222   7.945   7.044 -0.2215  0.0427 -0.2920
   48MOL   C19616270   1.312   0.017   7.009 -0.3998  0.7933  0.9129
   48MOL   C19716271   1.344   0.366   7.022 -0.4119 -0.0232  0.2314
   48MOL   H19816272   1.450   0.208   6.945  0.6641 -0.4844  0.4676
   48MOL   H19916273   1.275   0.221   7.273  0.5466 -0.0121 -0.5557
   48MOL   H20016274   1.110   0.034   7.336  0.3972  1.2344 -1.0307
   48MOL   H20116275   0.990   7.888   7.233 -0.4330 -1.0268  0.0548
   48MOL   H20216276   1.215   7.854   6.986  0.3881 -1.7412  2.2982
   48MOL   H20316277   1.359   0.005   6.913 -1.5783  0.6151  0.3430
   48MOL   H20416278   1.417   0.447   7.022 -0.8682  0.4012 -1.0845
   48MOL   H20516279   1.292   0.378   7.117 -2.9214 -0.7876 -1.0122
   48MOL   C20616280   1.238   0.374   6.901  0.5054  0.1312  0.5912
   48MOL   C20716281   1.306   0.335   6.770 -0.0990  0.1836  0.7480
   48MOL   C20816282   1.390   0.425   6.702 -0.1274  0.6317 -0.4036
   48MOL   C20916283   1.455   0.390   6.587 -0.1159 -0.4235  0.7350
   48MOL   C21016284   1.442   0.255   6.537  0.4495 -0.0235  0.9698
   48MOL   O21116285   1.497   0.213   6.421 -0.5967 -0.4735 -0.0411
   48MOL   C21216286   1.364   0.162   6.605  0.0555 -0.1726  0.1451
   48MOL   C21316287   1.286   0.203   6.714 -0.1966 -0.3353  0.5875
   48MOL   C21416288   1.156   0.505   6.905  0.1148 -0.3125  0.2268
   48MOL   H21516289   1.177   0.287   6.927  1.0549 -0.4538 -0.0593
   48MOL   H21616290   1.404   0.524   6.742 -0.0407  0.5484 -0.2309
   48MOL   H21716291   1.517   0.456   6.527 -0.9392 -1.1261 -0.9444
   48MOL   H21816292   1.491   0.120   6.406 -1.6248 -0.2931 -0.8245
   48MOL   H21916293   1.341   0.064   6.566  1.6927 -1.8823  3.3202
   48MOL   H22016294   1.212   0.143   6.766 -0.7276 -1.3644 -1.3189
   48MOL   H22116295   1.190   0.587   6.841  2.0643  0.4961  2.2578
   48MOL   H22216296   1.157   0.542   7.007  0.1812 -3.0359  1.2588
   48MOL   C22316297   1.004   0.487   6.891 -0.1352 -0.4952 -0.0299
   48MOL   C22416298   0.944   0.413   7.010  0.5253  0.4888  0.4035
   48MOL   C22516299   0.903   0.477   7.124 -0.3067  0.4773  0.1977
   48MOL   C22616300   0.844   0.402   7.228 -0.5130 -0.8445  0.4241
   48MOL   C22716301   0.838   0.260   7.224 -0.0501 -0.0770 -0.4501
   48MOL   O22816302   0.782   0.198   7.332  0.2521 -0.5584  0.2256
   48MOL   C22916303   0.883   0.189   7.112 -0.0581 -0.0204  0.8839
   48MOL   C23016304   0.941   0.271   7.008  0.0727  0.2258 -0.0179
   48MOL   C23116305   0.974   0.421   6.749  0.8910  0.5056 -0.7996
   48MOL   H23216306   0.966   0.589   6.898 -0.7271 -0.8552  2.5005
   48MOL   H23316307   0.924   0.583   7.125  1.6514  0.1058  1.2482
   48MOL   H23416308   0.804   0.456   7.313  1.6876  0.7344  0.5062
   48MOL   H23516309   0.725   0.244   7.391 -0.9838 -2.0288  0.1902
   48MOL   H23616310   0.892   0.082   7.104 -0.5064 -0.1481  1.9493
   48MOL   H23716311   0.973   0.219   6.919 -0.5699 -1.9525  0.9795
   48MOL   H23816312   1.028   0.326   6.743  1.6051  0.7577  1.1371
   48MOL   H23916313   0.867   0.404   6.751  0.9538  0.0016 -1.3966
   48MOL   C24016314   1.019   0.491   6.621 -0.2721 -0.1521  0.2737
   48MOL   C24116315   0.997   0.399   6.498  0.0142 -0.3597  0.5309
   48MOL   C24216316   1.110   0.344   6.429  0.1195 -0.7640 -0.0495
   48MOL   C24316317   1.109   0.251   6.327 -0.6525  0.4373 -0.4697
   48MOL   C24416318   0.979   0.211   6.279 -0.2252  0.1619  0.0270
   48MOL   O24516319   0.970   0.123   6.177 -0.0039 -0.3193 -0.3236
   48MOL   C24616320   0.864   0.257   6.346  0.2470  0.1055 -0.1094
   48MOL   C24716321   0.867   0.353   6.449 -0.1683 -0.4618  0.2257
   48MOL   C24816322   0.950   0.622   6.604 -0.0893 -0.2321  0.2599
   48MOL   H24916323   1.126   0.509   6.629  0.4107 -1.6891 -4.1628
   48MOL   H25016324   1.208   0.384   6.453 -0.1496  0.5567 -1.1381
   48MOL   H25116325   1.207   0.223   6.291  0.4979  1.0803  2.0568
   48MOL   H25216326   1.054   0.084   6.160 -0.3736 -0.3277 -2.2420
   48MOL   H25316327   0.766   0.220   6.319 -1.0972  3.3306  0.0735
   48MOL   H25416328   0.781   0.388   6.505  0.6876  0.5889  0.8986
   48MOL   H25516329   0.846   0.601   6.583  0.3867 -1.6364 -0.7679
   48MOL   H25616330   0.961   0.681   6.695  2.3496 -0.3202  0.0608
   48MOL   C25716331   0.990   0.700   6.482 -0.3625 -0.2760  0.0069
   48MOL   C25816332   0.895   0.818   6.451 -0.2818  0.5894  0.1974
   48MOL   C25916333   0.847   0.839   6.315 -0.3008 -0.5870 -0.0225
   48MOL   C26016334   0.767   0.952   6.286  0.0250 -0.4281  0.2059
   48MOL   C26116335   0.731   1.042   6.387  0.0873  0.1965 -0.4144
   48MOL   O26216336   0.643   1.147   6.365  0.5116 -0.3027  0.6025
   48MOL   C26316337   0.782   1.023   6.518  0.2064 -0.6046 -0.7053
   48MOL   C26416338   0.859   0.907   6.551 -0.7440  1.0333  0.4100
   48MOL   C26516339   1.137   0.753   6.479  0.6841  0.2739 -0.2500
   48MOL   H26616340   0.983   0.633   6.396  2.7646  2.1114 -2.2337
   48MOL   H26716341   0.869   0.765   6.240 -1.1687 -2.2650  1.3456
   48MOL   H26816342   0.721   0.955   6.188 -0.1751 -0.1313  0.3086
   48MOL   H26916343   0.639   1.215   6.430 -0.9940 -0.5526  0.8051
   48MOL   H27016344   0.771   1.096   6.597 -2.9211  2.3630 -3.7127
   48MOL   H27116345   0.895   0.896   6.652  0.8580  0.5111 -0.2103
   48MOL   H27216346   1.212   0.689   6.526 -0.8382  0.3202  2.3548
   48MOL   H27316347   1.136   0.848   6.532  1.0415  1.6107 -2.6052
   48MOL   C27416348   1.186   0.795   6.334 -0.0877  0.0835 -0.6112
   48MOL   C27516349   1.233   0.671   6.263 -0.1172  0.4923  0.0630
   48MOL   C27616350   1.357   0.611   6.291  0.2331 -0.2324  0.3221
   48MOL   C27716351   1.388   0.496   6.219 -0.4338  0.2390 -0.3166
   48MOL   C27816352   1.309   0.446   6.120  0.3752 -0.7385 -0.3622
   48MOL   O27916353   1.362   0.344   6.046  0.0124 -0.0724  0.3822
   48MOL   C28016354   1.186   0.508   6.089  0.0707  0.4311 -0.1709
   48MOL   C28116355   1.152   0.618   6.158  0.0013  0.1656  0.5796
   48MOL   C28216356   1.299   0.901   6.351  0.1170 -0.0494  0.2122
   48MOL   H28316357   1.106   0.836   6.272 -0.6360  0.9359  0.6316
   48MOL   H28416358   1.421   0.652   6.369  0.5387 -0.3056  0.1080
   48MOL   H28516359   1.482   0.447   6.238 -2.2284 -3.9536 -1.6675
   48MOL   H28616360   1.333   0.324   5.958 -1.1618 -0.9478  0.9677
   48MOL   H28716361   1.129   0.471   6.005 -0.0972  0.5981 -0.1304
   48MOL   H28816362   1.061   0.670   6.132  0.3809  0.8592  0.6399
   48MOL   H28916363   1.332   0.909   6.455 -0.9222 -0.8576  0.6174
   48MOL   H29016364   1.396   0.863   6.319 -0.0704 -0.2980 -0.0665
   48MOL   C29116365   1.287   1.048   6.298  0.4336 -0.5261  0.2083
   48MOL   C29216366   1.431   1.108   6.286 -0.0500  0.0179  0.5219
   48MOL   C29316367   1.496   1.165   6.392 -0.5208  0.3862  0.6940
   48MOL   C29416368   1.633   1.198   6.384 -0.2577  0.2466  0.0866
   48MOL   C29516369   1.705   1.183   6.261 -0.4949 -0.9289 -0.2251
   48MOL   O29616370   1.837   1.224   6.239 -0.0674 -0.1390 -0.4653
   48MOL   C29716371   1.634   1.124   6.158 -0.0860  0.5842 -0.3900
   48MOL   C29816372   1.496   1.090   6.169 -0.8653 -0.4037 -0.1954
   48MOL   C29916373   1.186   1.134   6.379 -0.1483  0.6313  0.5654
   48MOL   H30016374   1.260   1.039   6.193 -1.3462  0.6879  0.5466
   48MOL   H30116375   1.446   1.173   6.488  2.0976  0.7879  2.0994
   48MOL   H30216376   1.679   1.255   6.463  1.6817  2.0361 -2.2550
   48MOL   H30316377   1.867   1.221   6.150 -4.3073 -0.3625 -1.9944
   48MOL   H30416378   1.666   1.106   6.056  1.0844  1.4717 -0.1828
   48MOL   H30516379   1.460   1.037   6.082  1.9337  1.1785 -2.4160
   48MOL   H30616380   1.213   1.128   6.484  2.7697 -1.7293 -0.2492
   48MOL   H30716381   1.088   1.086   6.370  0.5191 -0.4345 -1.4937
   48MOL   C30816382   1.170   1.282   6.332 -0.5553 -0.1722 -0.2278
   48MOL   C30916383   1.255   1.383   6.403  0.5151 -0.5613 -0.1789
   48MOL   C31016384   1.336   1.467   6.328  0.2213 -0.1455 -0.3481
   48MOL   C31116385   1.408   1.573   6.396 -0.5809  0.3198 -0.5466
   48MOL   C31216386   1.416   1.574   6.537  0.2183 -0.9124 -0.3128
   48MOL   O31316387   1.485   1.671   6.609 -0.3198  0.8173  0.2420
   48MOL   C31416388   1.326   1.494   6.611  0.2903  0.2101  0.2465
   48MOL   C31516389   1.248   1.399   6.542 -0.3340 -0.0002 -0.0091
   48MOL   C31616390   1.020   1.318   6.336  0.0769  0.0782  0.1341
   48MOL   H31716391   1.200   1.300   6.228  0.5772  1.7029  0.3868
   48MOL   H31816392   1.356   1.452   6.224 -0.4447 -3.3887 -0.0560
   48MOL   H31916393   1.470   1.632   6.330 -3.1536  2.1111 -1.4404
   48MOL   H32016394   1.491   1.654   6.701  0.9392  0.2700  0.0704
   48MOL   H32116395   1.322   1.482   6.718  0.4659 -3.3759 -0.0935
   48MOL   H32216396   1.183   1.328   6.592  1.8047 -2.0169  0.0303
   48MOL   H32316397   0.974   1.323   6.435  1.4426  0.4025  0.7573
   48MOL   H32416398   0.963   1.232   6.300 -1.7720  0.7169  1.4528
   48MOL   C32516399   0.977   1.437   6.244 -0.8888 -0.1745 -0.0830
   48MOL   C32616400   0.994   1.565   6.326 -0.0079  0.0290  0.7469
   48MOL   C32716401   1.079   1.668   6.274  0.0262  0.3720 -0.4880
   48MOL   C32816402   1.087   1.788   6.341 -0.2682  0.5339  0.4039
   48MOL   C32916403   0.997   1.812   6.451 -0.0775 -0.2709  0.1986
   48MOL   O33016404   1.001   1.938   6.508  0.0340 -0.5379 -0.0499
   48MOL   C33116405   0.918   1.714   6.506 -0.1004 -0.1453 -0.1733
   48MOL   C33216406   0.920   1.589   6.443  0.6824  0.2273 -0.0667
   48MOL   C33316407   0.835   1.421   6.184 -0.6106  0.4366 -0.7150
   48MOL   H33416408   1.044   1.434   6.159 -0.8687  1.7421 -0.1462
   48MOL   H33516409   1.132   1.664   6.180  0.4252  4.3088 -0.4778
   48MOL   H33616410   1.153   1.863   6.299  0.3804  0.5979  1.5375
   48MOL   H33716411   1.089   1.966   6.490 -0.0703 -1.2771 -1.7851
   48MOL   H33816412   0.851   1.729   6.590  1.8001 -0.8718  1.5142
   48MOL   H33916413   0.860   1.508   6.480  0.3611 -0.1715 -1.4254
   48MOL   H34016414   0.764   1.415   6.266  0.8420 -2.5153  0.4314
   48MOL   H34116415   0.831   1.321   6.139 -3.3145  0.1848 -0.0040
   48MOL   H34216416   0.811   1.499   6.112 -1.4593  0.2191 -0.6700
   49MOL     C116417   3.764   2.329   7.569 -0.3493  0.1751 -0.3130
   49MOL     C216418   3.692   2.232   7.659  0.1951 -0.2604 -0.3996
   49MOL     C316419   3.606   2.283   7.763  0.4299  0.9524 -0.2597
   49MOL     C416420   3.565   2.193   7.863  0.1279 -0.8419 -0.1697
   49MOL     C516421   3.597   2.056   7.858 -1.1670 -0.1518 -0.1790
   49MOL     O616422   3.550   1.966   7.948 -0.6518  0.1180  0.4642
   49MOL     C716423   3.675   2.010   7.750  0.0671  0.4864  0.4024
   49MOL     C816424   3.723   2.093   7.654  0.2587 -0.1554  0.1205
   49MOL     C916425   3.913   2.335   7.617  0.1304 -0.4127 -0.0284
   49MOL    H1016426   3.760   2.290   7.467  2.8582 -0.1060 -0.3769
   49MOL    H1116427   3.569   2.384   7.760  0.6285  1.0651  0.8322
   49MOL    H1216428   3.494   2.232   7.934  0.1802 -0.7801 -0.1518
   49MOL    H1316429   3.574   1.877   7.926  1.0201  1.0358 -1.6130
   49MOL    H1416430   3.701   1.906   7.742  1.5603  0.9429 -0.8373
   49MOL    H1516431   3.786   2.053   7.576  2.1103 -1.6490  2.2939
   49MOL    H1616432   3.937   2.231   7.637  0.5226 -0.1378  0.9721
   49MOL    H1716433   3.923   2.390   7.711 -1.5308 -0.0684 -0.0399
   49MOL    H1816434   3.724   2.431   7.562  1.3704  0.8663 -0.4286
   49MOL    C1916435   4.015   2.383   7.507  0.3424 -0.3149  0.4613
   49MOL    C2016436   4.164   2.368   7.551  0.8835 -0.3992  0.2940
   49MOL    C2116437   4.214   2.374   7.684 -0.5240  0.0337  0.2795
   49MOL    C2216438   4.350   2.366   7.717 -0.7111 -0.6327  0.6202
   49MOL    C2316439   4.446   2.360   7.615 -0.1134  0.2859  0.6639
   49MOL    O2416440   4.581   2.362   7.645 -0.0679 -0.3939 -0.1145
   49MOL    C2516441   4.398   2.377   7.482  0.2757  0.0087 -0.3031
   49MOL    C2616442   4.260   2.369   7.450  0.2658  0.5517 -0.4549
   49MOL    C2716443   3.988   2.524   7.456 -0.5730 -0.3356 -0.6122
   49MOL    H2816444   4.008   2.314   7.423 -1.5639  2.1942 -1.5113
   49MOL    H2916445   4.136   2.376   7.758 -0.2562 -0.6243  0.5862
   49MOL    H3016446   4.390   2.365   7.817  0.8749 -0.6274 -0.0067
   49MOL    H3116447   4.631   2.371   7.566  1.8622  1.2636  1.2463
   49MOL    H3216448   4.472   2.376   7.403 -1.0016 -1.6886 -1.5142
   49MOL    H3316449   4.227   2.371   7.348 -0.2308  1.8911 -0.2830
   49MOL    H3416450   3.884   2.531   7.425 -1.0846 -0.8202  0.9341
   49MOL    H3516451   4.043   2.533   7.363  1.2263 -2.9574  0.1490
   49MOL    C3616452   4.027   2.631   7.553 -1.0094 -0.3343  0.4889
   49MOL    C3716453   3.925   2.662   7.666  0.2490 -0.3004 -0.2739
   49MOL    C3816454   3.968   2.646   7.799  0.0578  0.6564 -0.3263
   49MOL    C3916455   3.877   2.681   7.899  0.3222 -0.3092  0.3163
   49MOL    C4016456   3.748   2.739   7.872 -0.1528 -0.4203  0.8970
   49MOL    O4116457   3.670   2.772   7.974 -0.0121 -0.1600 -0.2098
   49MOL    C4216458   3.707   2.759   7.742 -1.0709 -0.1300 -0.0524
   49MOL    C4316459   3.798   2.718   7.639  0.1171 -0.2399 -0.0496
   49MOL    C4416460   4.066   2.760   7.476 -0.7368  0.6984 -0.4085
   49MOL    H4516461   4.124   2.610   7.598 -2.2051 -3.5356  1.6869
   49MOL    H4616462   4.064   2.607   7.829  0.3308  1.5784  0.0186
   49MOL    H4716463   3.913   2.658   7.997  0.3622  0.1965  0.4240
   49MOL    H4816464   3.595   2.716   7.983 -0.7223  1.1540  2.3257
   49MOL    H4916465   3.616   2.813   7.726 -1.1379 -0.1821  0.1412
   49MOL    H5016466   3.764   2.718   7.536  0.9127  1.8143 -0.3337
   49MOL    H5116467   4.129   2.738   7.391  0.1098 -0.9922  0.6339
   49MOL    H5216468   3.979   2.808   7.432  0.1459  1.8033 -0.9627
   49MOL    C5316469   4.142   2.864   7.566  0.4616  0.4913  0.0686
   49MOL    C5416470   4.302   2.854   7.544  0.3701 -0.2903  0.1140
   49MOL    C5516471   4.375   2.761   7.618  0.7015  0.3245  0.6541
   49MOL    C5616472   4.514   2.743   7.602  0.3948  0.4409  0.2467
   49MOL    C5716473   4.582   2.824   7.505  0.5774  0.1445  0.4185
   49MOL    O5816474   4.718   2.809   7.480  0.2750  0.5487  0.2177
   49MOL    C5916475   4.514   2.918   7.432 -0.2425 -0.5915 -0.3478
   49MOL    C6016476   4.375   2.933   7.447 -0.4851  0.6767  0.1954
   49MOL    C6116477   4.089   3.013   7.541  0.2812 -0.2665  0.0105
   49MOL    H6216478   4.126   2.840   7.671  2.4105  2.7073  0.9308
   49MOL    H6316479   4.326   2.695   7.688 -0.4262  0.8671  0.3793
   49MOL    H6416480   4.568   2.672   7.663  1.5047  0.7360 -0.3887
   49MOL    H6516481   4.755   2.749   7.543  0.7082 -0.5173 -1.0420
   49MOL    H6616482   4.559   2.967   7.347 -3.6127 -0.3961 -2.1268
   49MOL    H6716483   4.329   3.013   7.390  0.6683  1.7673  0.7560
   49MOL    H6816484   3.980   3.011   7.547  0.3544  0.2040  1.8900
   49MOL    H6916485   4.114   3.028   7.436  2.0703  0.5143  0.5279
   49MOL    C7016486   4.144   3.110   7.644  0.5899 -0.4142  0.2103
   49MOL    C7116487   4.091   3.090   7.791 -0.7211 -0.0762 -0.2534
   49MOL    C7216488   3.961   3.128   7.825  0.0851  0.0831 -0.0209
   49MOL    C7316489   3.902   3.112   7.959  0.2414  0.1418 -0.2717
   49MOL    C7416490   3.986   3.046   0.018 -0.5584  0.0390  0.6533
   49MOL    O7516491   3.947   3.022   0.147  0.2823 -0.5512  0.1775
   49MOL    C7616492   4.123   3.024   8.025  0.5244 -0.7347  0.3873
   49MOL    C7716493   4.174   3.031   7.894  0.2876 -0.4343 -0.2762
   49MOL    C7816494   4.150   3.257   7.590  0.3409  0.1672 -0.2862
   49MOL    H7916495   4.249   3.081   7.649  1.1011  0.6648 -3.0256
   49MOL    H8016496   3.908   3.170   7.742 -2.9489 -0.0214  1.7927
   49MOL    H8116497   3.799   3.141   7.973 -0.0140 -1.3079  0.9198
   49MOL    H8216498   3.855   3.014   0.166 -0.0822  0.3660 -1.0815
   49MOL    H8316499   4.184   2.988   0.068 -0.4843  0.3054  1.6452
   49MOL    H8416500   4.274   2.994   7.876  0.2259 -0.4423 -0.6050
   49MOL    H8516501   4.047   3.290   7.586  0.3384  0.4998  1.8908
   49MOL    H8616502   4.196   3.249   7.491  2.9454 -1.7254  0.9954
   49MOL    C8716503   4.225   3.366   7.671  0.2759 -0.0459 -0.4793
   49MOL    C8816504   4.230   3.491   7.590 -0.3501  0.5027  1.1453
   49MOL    C8916505   4.181   3.612   7.644  0.4643 -0.9344 -0.4658
   49MOL    C9016506   4.175   3.722   7.560 -0.6411  0.0195  0.1936
   49MOL    C9116507   4.216   3.711   7.427  0.2705 -0.4129  0.2902
   49MOL    O9216508   4.190   3.815   7.340 -0.3823 -0.0901  0.5696
   49MOL    C9316509   4.271   3.592   7.379 -0.5075  0.1953 -0.1934
   49MOL    C9416510   4.284   3.484   7.458 -0.3913 -0.5665 -0.4767
   49MOL    C9516511   4.370   3.320   7.712 -0.2347 -0.5233 -0.0675
   49MOL    H9616512   4.165   3.387   7.759 -0.7524 -1.5003 -0.8224
   49MOL    H9716513   4.154   3.627   7.747 -1.1060 -0.4225 -0.9391
   49MOL    H9816514   4.136   3.814   7.601 -0.0779 -0.0139  0.8192
   49MOL    H9916515   4.216   3.891   7.390 -3.0140  0.6385  0.8786
   49MOL   H10016516   4.300   3.591   7.275 -3.6098  1.7801 -1.1570
   49MOL   H10116517   4.324   3.393   7.416  0.7737  0.2079 -1.0692
   49MOL   H10216518   4.371   3.216   7.744 -0.2007 -0.3210  0.5984
   49MOL   H10316519   4.421   3.323   7.616  0.1760  1.3462  0.1864
   49MOL   C10416520   4.419   3.405   7.831  0.2339  0.2660 -0.4749
   49MOL   C10516521   4.577   3.396   7.843 -0.3233 -0.3821  0.1546
   49MOL   C10616522   4.650   3.273   7.809 -0.3991 -0.2959 -0.2122
   49MOL   C10716523   4.790   3.264   7.817  0.0834 -0.4427  0.3758
   49MOL   C10816524   4.864   3.377   7.856  0.2021  0.3969 -0.1493
   49MOL   O10916525   5.000   3.369   7.860 -0.0334 -0.6078 -0.3751
   49MOL   C11016526   4.792   3.491   7.900  0.5018 -0.0878  0.4004
   49MOL   C11116527   4.651   3.503   7.891  0.4471 -0.0587 -0.2004
   49MOL   C11216528   4.353   3.348   7.960 -0.3567  0.2277 -0.0972
   49MOL   H11316529   4.381   3.505   7.810 -2.2861 -0.7717 -1.1195
   49MOL   H11416530   4.606   3.189   7.758  1.7104 -0.6419 -1.5310
   49MOL   H11516531   4.845   3.176   7.788  0.9972 -0.1830  1.3183
   49MOL   H11616532   5.028   3.313   7.789 -0.6796 -0.2830 -0.8915
   49MOL   H11716533   4.837   3.580   7.943  0.9683 -0.2423  0.2353
   49MOL   H11816534   4.602   3.595   7.920 -0.4322 -0.8923  1.0067
   49MOL   H11916535   4.403   3.264   8.007 -0.1897  1.0653  1.2440
   49MOL   H12016536   4.257   3.302   7.936  0.5331 -0.3196 -2.6871
   49MOL   C12116537   4.338   3.464   0.023 -0.5471  0.2800 -0.5424
   49MOL   C12216538   4.195   3.465   0.076  0.3237 -0.1505  0.2233
   49MOL   C12316539   4.146   3.349   0.147  0.0229  0.3238 -0.6981
   49MOL   C12416540   4.015   3.342   0.194  0.0367 -0.1640  0.0812
   49MOL   C12516541   3.936   3.457   0.178 -0.6991  0.1028  0.0829
   49MOL   O12616542   3.812   3.462   0.234  0.2030 -0.2274 -0.4805
   49MOL   C12716543   3.985   3.573   0.111 -0.1459  0.3760 -0.0620
   49MOL   C12816544   4.110   3.576   0.054 -0.4132 -0.0906 -0.6046
   49MOL   C12916545   4.451   3.461   0.131  0.0950  0.3327  0.0474
   49MOL   H13016546   4.358   3.564   8.023  3.5590 -0.9597 -1.8704
   49MOL   H13116547   4.213   3.266   0.164  0.3737  1.1063  1.9048
   49MOL   H13216548   3.973   3.253   0.237  2.5440 -0.9662  0.9946
   49MOL   H13316549   3.811   3.419   0.317  0.8863  0.9588  0.1638
   49MOL   H13416550   3.913   3.654   0.103  0.0193  0.6874  1.4474
   49MOL   H13516551   4.135   3.659   8.027 -0.2318  1.3921  1.3589
   49MOL   H13616552   4.537   3.407   0.089  0.7852  0.9513  0.6416
   49MOL   H13716553   4.423   3.407   0.221  0.7026 -0.0256  0.0293
   49MOL   C13816554   4.504   3.597   0.179 -0.0661 -0.0813 -0.1266
   49MOL   C13916555   4.624   3.593   0.269 -0.3023 -0.4071 -0.4853
   49MOL   C14016556   4.749   3.619   0.209 -0.1199 -0.0898 -0.1839
   49MOL   C14116557   4.869   3.619   0.288  0.2732  0.0475  0.0516
   49MOL   C14216558   4.866   3.591   0.423  0.1428 -0.6202 -0.2710
   49MOL   O14316559   4.981   3.572   0.493 -0.3607 -0.1238  0.8978
   49MOL   C14416560   4.740   3.552   0.480  0.3062  0.1841 -0.4156
   49MOL   C14516561   4.617   3.560   0.410 -0.0790 -0.7109  0.2831
   49MOL   C14616562   4.390   3.677   0.247  0.1705 -0.3113  1.0747
   49MOL   H14716563   4.525   3.658   0.092  1.6394  1.2188  1.1547
   49MOL   H14816564   4.757   3.645   0.105  1.1552  0.3657  0.0221
   49MOL   H14916565   4.966   3.635   0.243  0.8796 -0.3131  1.2031
   49MOL   H15016566   4.971   3.538   0.581  0.6053  0.1543  1.1206
   49MOL   H15116567   4.748   3.512   0.580 -0.6577 -2.7324 -1.4545
   49MOL   H15216568   4.526   3.538   0.463 -0.2270 -0.6908  0.0381
   49MOL   H15316569   4.347   3.618   0.328 -1.2311 -0.6296  0.1296
   49MOL   H15416570   4.313   3.683   0.170  3.8902 -2.8975 -3.0747
   49MOL   C15516571   4.414   3.817   0.308  0.4127  1.5284 -0.4246
   49MOL   C15616572   4.290   3.858   0.381  0.0118  0.3058  0.2296
   49MOL   C15716573   4.278   3.836   0.519  0.6085  0.2491 -0.5645
   49MOL   C15816574   4.158   3.857   0.590 -0.3065  0.6400  0.2596
   49MOL   C15916575   4.044   3.902   0.518 -0.3631 -0.1474 -0.4304
   49MOL   O16016576   3.923   3.925   0.585  0.1764  0.1299  0.0230
   49MOL   C16116577   4.051   3.917   0.377  0.3315  0.1750 -0.6981
   49MOL   C16216578   4.174   3.898   0.312  0.5072 -0.2681 -0.6961
   49MOL   C16316579   4.459   3.919   0.205 -0.1945  0.3675  0.1528
   49MOL   H16416580   4.496   3.795   0.377  0.1818  0.0522 -0.5973
   49MOL   H16516581   4.355   3.808   0.589 -0.0511 -0.0646  0.0501
   49MOL   H16616582   4.167   3.840   0.697 -0.5539 -1.4031 -0.0393
   49MOL   H16716583   3.861   3.968   0.529  1.0818  0.2086 -0.9278
   49MOL   H16816584   3.968   3.955   0.319 -0.4263  0.0903  0.3162
   49MOL   H16916585   4.170   3.912   0.205  0.0128 -1.6436 -0.8680
   49MOL   H17016586   4.383   3.917   0.126  0.2531 -2.6934 -0.2420
   49MOL   H17116587   4.546   3.880   0.152  0.4972  0.8708  0.9119
   49MOL   C17216588   4.489   4.059   0.250 -0.0460 -0.4966  0.8702
   49MOL   C17316589   4.481   4.162   0.131 -0.0899  0.4096  0.1960
   49MOL   C17416590   4.400   4.279   0.141 -0.2195 -0.2924  0.0143
   49MOL   C17516591   4.385   4.370   0.034  0.7916 -0.2498 -0.0540
   49MOL   C17616592   4.464   4.355   7.957 -1.0754  0.1108 -0.1589
   49MOL   O17716593   4.444   4.433   7.849  0.0026 -0.1329  0.1343
   49MOL   C17816594   4.555   4.247   7.952 -0.2581  0.5777 -0.6454
   49MOL   C17916595   4.561   4.145   0.016 -0.3342 -0.8113  0.5755
   49MOL   C18016596   4.631   4.054   0.323  0.4399  0.5439  0.1097
   49MOL   H18116597   4.404   4.087   0.311 -1.2451  1.4272 -1.5898
   49MOL   H18216598   4.353   4.293   0.237  1.2746  2.2141  0.4168
   49MOL   H18316599   4.329   4.462   0.043  0.8100 -0.2731  0.2936
   49MOL   H18416600   4.362   4.480   7.852  0.7150  1.0715  0.9618
   49MOL   H18516601   4.602   4.228   7.857 -1.2016 -0.1749 -0.9646
   49MOL   H18616602   4.622   4.056   0.019  0.9088 -0.0555 -1.3348
   49MOL   H18716603   4.689   4.138   0.284 -0.4908  0.9060 -0.4935
   49MOL   H18816604   4.694   3.971   0.292  1.6553  0.9848  1.3305
   49MOL   C18916605   4.621   4.079   0.473 -0.7789  0.4934 -0.3513
   49MOL   C19016606   4.698   3.982   0.557  0.5816 -0.3831  0.5324
   49MOL   C19116607   4.641   3.926   0.671 -0.3089 -0.2415  0.6363
   49MOL   C19216608   4.718   3.843   0.756  0.0545  0.4730  0.2714
   49MOL   C19316609   4.856   3.815   0.729  0.2993  0.1744 -0.0626
   49MOL   O19416610   4.927   3.742   0.823  0.0346  0.6221 -0.2307
   49MOL   C19516611   4.916   3.871   0.616  0.7609 -0.8208 -0.2622
   49MOL   C19616612   4.836   3.952   0.530  0.5530 -0.3011  0.2783
   49MOL   C19716613   4.662   4.223   0.516 -0.1521  0.2730  0.1536
   49MOL   H19816614   4.517   4.060   0.501  0.1883 -0.4964  2.8957
   49MOL   H19916615   4.542   3.942   0.710  0.3697  2.4065  1.3903
   49MOL   H20016616   4.667   3.798   0.839 -0.8069  0.0647 -0.4696
   49MOL   H20116617   5.013   3.715   0.793 -0.0201  0.4350 -0.2203
   49MOL   H20216618   5.021   3.856   0.600  0.6323 -1.6399 -0.3641
   49MOL   H20316619   4.882   3.989   0.440  0.1925 -1.0661 -0.2301
   49MOL   H20416620   4.648   4.298   0.438  1.2142  1.3574  0.9098
   49MOL   H20516621   4.769   4.221   0.540 -0.1492 -1.0083  0.0422
   49MOL   C20616622   4.604   4.268   0.657  0.7901  0.8359  1.0610
   49MOL   C20716623   4.451   4.266   0.668 -0.2286  0.2406 -0.0401
   49MOL   C20816624   4.379   4.321   0.557 -0.0397 -0.1302  0.4167
   49MOL   C20916625   4.244   4.287   0.541 -0.1235  0.1702  0.5266
   49MOL   C21016626   4.172   4.225   0.644 -0.3812 -0.6653 -0.4212
   49MOL   O21116627   4.038   4.212   0.632 -0.0173  0.2073 -0.2676
   49MOL   C21216628   4.241   4.169   0.758  0.0014 -0.3387  0.2452
   49MOL   C21316629   4.380   4.190   0.768 -0.4414 -0.4109 -0.1485
   49MOL   C21416630   4.650   4.405   0.708  0.4377  0.3537  0.0547
   49MOL   H21516631   4.635   4.187   0.723 -1.0140 -2.1999 -1.6553
   49MOL   H21616632   4.439   4.356   0.475  0.6276 -0.4428  0.7646
   49MOL   H21716633   4.207   4.312   0.442  1.7083 -0.1458 -0.2619
   49MOL   H21816634   4.015   4.140   0.688 -0.1204 -1.5274 -2.4634
   49MOL   H21916635   4.183   4.128   0.839 -0.9933 -2.6059 -1.5553
   49MOL   H22016636   4.437   4.153   0.852  1.0967  2.3973  0.1274
   49MOL   H22116637   4.560   4.466   0.703 -1.1498 -1.9866 -0.8026
   49MOL   H22216638   4.716   4.445   0.631  3.7261 -3.8753  0.5356
   49MOL   C22316639   4.727   4.429   0.842 -0.3024  0.1569 -0.3033
   49MOL   C22416640   4.779   4.571   0.837 -0.6118  0.3010  0.1899
   49MOL   C22516641   4.913   4.610   0.807  0.1290  0.1852 -0.2435
   49MOL   C22616642   4.950   4.746   0.803  0.1522  0.1199 -0.6379
   49MOL   C22716643   4.856   4.843   0.831 -0.1177  0.5433 -1.2943
   49MOL   O22816644   4.894   4.977   0.838  0.1451 -0.0940  0.3559
   49MOL   C22916645   4.723   4.811   0.857  0.1497  0.6519 -0.7916
   49MOL   C23016646   4.688   4.670   0.869 -0.0704  0.4090 -0.0591
   49MOL   C23116647   4.828   4.322   0.867  0.1832 -0.4593 -0.2634
   49MOL   H23216648   4.654   4.429   0.923 -0.3535 -0.1664 -0.3500
   49MOL   H23316649   4.988   4.536   0.782 -0.9677 -1.6169  1.6833
   49MOL   H23416650   5.055   4.770   0.797 -0.1119  1.4725  0.0625
   49MOL   H23516651   4.986   4.985   0.816  0.6295 -1.8664  1.5789
   49MOL   H23616652   4.651   4.887   0.883  0.4533  1.1311 -1.3252
   49MOL   H23716653   4.591   4.635   0.902  0.7639 -2.3957 -0.4954
   49MOL   H23816654   4.762   4.235   0.868 -1.1041  0.4500 -1.9357
   49MOL   H23916655   4.891   4.318   0.779  0.9501  0.7919  0.2122
   49MOL   C24016656   4.923   4.330   0.996 -0.8075  0.1160  0.2995
   49MOL   C24116657   4.855   4.314   1.130  0.5514 -0.7194  0.4016
   49MOL   C24216658   4.786   4.194   1.152  0.4024  0.4118  0.7438
   49MOL   C24316659   4.723   4.170   1.273 -0.9920 -0.1621 -0.4134
   49MOL   C24416660   4.733   4.266   1.372  0.1893 -0.6580 -0.1684
   49MOL   O24516661   4.676   4.240   1.497 -0.0199  0.5231 -0.2547
   49MOL   C24616662   4.814   4.380   1.350  0.5177 -0.3825  0.2821
   49MOL   C24716663   4.872   4.409   1.231  0.0182 -0.1845 -0.1573
   49MOL   C24816664   5.045   4.232   0.973  0.1749 -0.1055 -0.2227
   49MOL   H24916665   4.952   4.435   0.997 -1.0378  0.1841 -0.5834
   49MOL   H25016666   4.774   4.125   1.070 -0.6571 -0.8411  1.9187
   49MOL   H25116667   4.683   4.074   1.303 -1.6936  0.3623  0.3275
   49MOL   H25216668   4.711   4.282   1.574 -0.9309 -1.7064  1.4659
   49MOL   H25316669   4.831   4.446   1.434  2.9722  1.4650 -1.6147
   49MOL   H25416670   4.932   4.497   1.213 -2.4114  1.2914 -1.3516
   49MOL   H25516671   5.068   4.167   1.058  0.3429  0.1224 -0.0939
   49MOL   H25616672   5.004   4.162   0.900  0.4268  1.5939 -2.0288
   49MOL   C25716673   5.167   4.309   0.920  0.0452  0.3585  0.5251
   49MOL   C25816674   5.214   4.410   1.023 -0.0825 -0.3252 -0.0290
   49MOL   C25916675   5.247   4.536   0.975 -0.0501  0.2848 -0.0333
   49MOL   C26016676   5.313   4.624   1.052 -0.3863 -0.0498  0.1845
   49MOL   C26116677   5.337   4.591   1.187 -0.2926 -0.1029 -0.1816
   49MOL   O26216678   5.399   4.680   1.269 -0.1097  0.8803 -0.1185
   49MOL   C26316679   5.304   4.466   1.236 -0.0047 -0.4918  0.0998
   49MOL   C26416680   5.248   4.370   1.152 -0.2608  0.3302 -0.6544
   49MOL   C26516681   5.285   4.221   0.879  0.3841  0.1580  0.3518
   49MOL   H26616682   5.131   4.355   0.828 -0.8951  0.1423  0.7807
   49MOL   H26716683   5.229   4.557   0.871 -1.7131 -0.6746  0.0524
   49MOL   H26816684   5.361   4.711   1.009 -1.6736 -0.0031 -1.1839
   49MOL   H26916685   5.388   4.766   1.231 -0.6167  0.0199 -1.9550
   49MOL   H27016686   5.339   4.434   1.333  2.1388 -1.0631 -0.8278
   49MOL   H27116687   5.233   4.266   1.176 -1.9617  0.6158 -0.4509
   49MOL   H27216688   5.256   4.194   0.778  0.7018  0.4460  0.1835
   49MOL   H27316689   5.286   4.137   0.948 -1.3052  1.5491  2.1146
   49MOL   C27416690   5.433   4.284   0.874 -0.4000  0.2259 -0.1426
   49MOL   C27516691   5.444   4.372   0.751 -0.5221 -0.1046 -0.8798
   49MOL   C27616692   5.405   4.341   0.621  0.6645  0.2435 -0.1236
   49MOL   C27716693   5.432   4.435   0.515 -0.3063  0.1460  0.1932
   49MOL   C27816694   5.489   4.562   0.540 -0.2406  1.0031 -0.0658
   49MOL   O27916695   5.518   4.660   0.452  0.0883 -0.2792  0.6794
   49MOL   C28016696   5.534   4.591   0.670 -0.0690 -0.1962  0.2368
   49MOL   C28116697   5.513   4.497   0.772  0.5595 -0.0728  0.0599
   49MOL   C28216698   5.539   4.170   0.875 -0.4491 -0.5189 -0.2893
   49MOL   H28316699   5.450   4.342   0.964  0.5776  2.1303 -1.5339
   49MOL   H28416700   5.348   4.251   0.601  1.4698 -0.0741 -1.0617
   49MOL   H28516701   5.402   4.403   0.416  2.0331  0.9150 -0.7963
   49MOL   H28616702   5.466   4.638   0.376 -0.0054  1.4616  0.2112
   49MOL   H28716703   5.589   4.677   0.704  0.4936 -0.9401  1.2624
   49MOL   H28816704   5.550   4.530   0.868 -1.0126  0.9690  0.3250
   49MOL   H28916705   5.501   4.068   0.878  2.9364 -1.8316 -0.2215
   49MOL   H29016706   5.581   4.162   0.775 -0.1637  0.2457 -0.2348
   49MOL   C29116707   5.636   4.177   0.999 -0.1093 -0.2731 -0.3951
   49MOL   C29216708   5.714   4.308   1.007  0.2625 -0.5966 -0.2519
   49MOL   C29316709   5.706   4.397   1.113 -0.2358  0.3730  0.5385
   49MOL   C29416710   5.774   4.523   1.098  0.1887  0.5335 -0.3243
   49MOL   C29516711   5.856   4.553   0.987 -0.1565 -0.0310 -1.0295
   49MOL   O29616712   5.926   4.669   0.990  0.2130  0.3829  0.0395
   49MOL   C29716713   5.865   4.460   0.883  0.0945  0.4447  0.4282
   49MOL   C29816714   5.792   4.342   0.896 -0.2797 -0.4545  0.4134
   49MOL   C29916715   5.722   4.053   1.031 -1.0595  1.0720 -0.3775
   49MOL   H30016716   5.567   4.184   1.083  0.7814 -0.4935  0.3689
   49MOL   H30116717   5.645   4.381   1.200 -1.6563  0.1323 -0.4811
   49MOL   H30216718   5.756   4.590   1.181  1.0326  0.1314  0.1816
   49MOL   H30316719   5.881   4.706   1.064  0.2380 -4.6703  2.8634
   49MOL   H30416720   5.935   4.470   0.801  0.3242  3.3628  0.9278
   49MOL   H30516721   5.808   4.273   0.814  2.4839 -1.0814  1.4238
   49MOL   H30616722   5.785   4.093   1.110 -0.0134  0.2160 -0.7695
   49MOL   H30716723   5.781   4.031   0.943 -1.2545 -1.7681  0.1458
   49MOL   C30816724   5.644   3.927   1.084 -0.1323  0.3848  0.6348
   49MOL   C30916725   5.541   3.960   1.191  1.2923  0.0622  0.2590
   49MOL   C31016726   5.573   4.018   1.313 -0.6988  0.1745 -0.2524
   49MOL   C31116727   5.475   4.049   1.411 -0.4045  0.2257 -0.1282
   49MOL   C31216728   5.345   4.022   1.385 -0.7744 -0.0415  0.4086
   49MOL   O31316729   5.246   4.058   1.476  0.3086  0.4745  0.4036
   49MOL   C31416730   5.307   3.959   1.264 -0.0567  0.2731 -0.1290
   49MOL   C31516731   5.403   3.939   1.163  0.3877  0.2618  0.0060
   49MOL   C31616732   5.730   3.800   1.124 -0.1865  0.9918  0.4616
   49MOL   H31716733   5.591   3.891   0.996  1.4000 -1.1191  0.3091
   49MOL   H31816734   5.672   4.060   1.327 -0.4463 -0.8455  1.1598
   49MOL   H31916735   5.513   4.104   1.496  0.2503 -0.6520  0.1559
   49MOL   H32016736   5.163   4.085   1.439 -1.0770 -0.2362  2.8461
   49MOL   H32116737   5.203   3.952   1.235  0.2672  0.3855 -1.3323
   49MOL   H32216738   5.375   3.909   1.063 -0.5356  3.1316 -0.6224
   49MOL   H32316739   5.654   3.743   1.178 -0.0246  2.3977  2.2106
   49MOL   H32416740   5.812   3.822   1.193  0.9769  0.3391 -0.6890
   49MOL   C32516741   5.784   3.715   1.009  0.9212  0.1583  0.4561
   49MOL   C32616742   5.669   3.632   0.939  0.6700  0.4250 -0.1949
   49MOL   C32716743   5.680   3.609   0.798 -0.3553 -0.4818  0.7319
   49MOL   C32816744   5.590   3.527   0.728  0.2148  0.0925 -0.3405
   49MOL   C32916745   5.471   3.487   0.794  0.3706  0.1586 -0.6166
   49MOL   O33016746   5.376   3.421   0.718 -0.5978  0.3213 -0.4453
   49MOL   C33116747   5.453   3.511   0.933  0.4601  0.2057 -0.1706
   49MOL   C33216748   5.555   3.580   1.008  1.0922  0.5664  0.2861
   49MOL   C33316749   5.895   3.620   1.047  0.4366 -0.1609 -0.4297
   49MOL   H33416750   5.837   3.783   0.943 -0.5649 -0.3615 -1.3288
   49MOL   H33516751   5.772   3.641   0.749 -1.0228 -0.0190 -0.2467
   49MOL   H33616752   5.596   3.500   0.623 -2.9387 -2.7557  0.1179
   49MOL   H33716753   5.402   3.398   0.630  0.6517 -3.3403  0.8237
   49MOL   H33816754   5.373   3.463   0.989 -1.0875  2.7618 -0.1197
   49MOL   H33916755   5.552   3.573   1.116  1.7397 -1.9200  0.1827
   49MOL   H34016756   5.874   3.571   1.142  0.7143 -0.6673 -0.6244
   49MOL   H34116757   5.979   3.686   1.068  1.4138 -0.9278 -1.8239
   49MOL   H34216758   5.916   3.542   0.972  0.0647 -0.6598 -0.0183
   50MOL     C116759   3.942   0.356   4.669  0.1917  0.9968  0.5647
   50MOL     C216760   3.868   0.461   4.755 -0.3689  0.0075  0.6374
   50MOL     C316761   3.756   0.410   4.821 -0.4987 -0.6376 -0.1765
   50MOL     C416762   3.670   0.503   4.887 -0.4026 -0.2309 -0.0210
   50MOL     C516763   3.698   0.644   4.875  0.7803 -0.7770  0.4163
   50MOL     O616764   3.604   0.735   4.917 -0.0787 -0.0514  0.6090
   50MOL     C716765   3.810   0.694   4.807  0.4565 -0.6863  0.1240
   50MOL     C816766   3.900   0.599   4.750 -0.0105  0.4628 -0.8333
   50MOL     C916767   4.006   0.239   4.758  0.0160 -0.3940 -0.4524
   50MOL    H1016768   3.884   0.315   4.586  1.6462 -2.5658  1.2143
   50MOL    H1116769   3.735   0.305   4.828  0.4439 -0.9893 -2.3885
   50MOL    H1216770   3.595   0.469   4.957  1.6215 -0.1004  2.2700
   50MOL    H1316771   3.626   0.826   4.904 -1.7123  0.3246  0.3907
   50MOL    H1416772   3.840   0.796   4.794  2.9220 -1.6174 -1.9366
   50MOL    H1516773   3.986   0.626   4.692 -0.7828  2.1194 -1.2271
   50MOL    H1616774   3.939   0.189   4.827 -0.5930 -0.8411 -1.3630
   50MOL    H1716775   4.086   0.276   4.823 -2.4803  1.9590  1.3865
   50MOL    H1816776   4.027   0.396   4.613 -0.3917 -0.5516 -1.4874
   50MOL    C1916777   4.074   0.120   4.681  0.2602  0.3713  0.0249
   50MOL    C2016778   3.992   0.046   4.576 -0.2344 -0.8495  0.3850
   50MOL    C2116779   4.039   0.019   4.445 -0.0661 -0.0900  0.5626
   50MOL    C2216780   3.956   7.988   4.356 -0.2884  0.0253 -0.0185
   50MOL    C2316781   3.825   7.960   4.390 -0.1616 -0.0485 -0.0795
   50MOL    O2416782   3.750   7.889   4.295  0.2035 -0.5999 -0.0481
   50MOL    C2516783   3.773   7.993   4.518  0.9421  0.0401  0.6503
   50MOL    C2616784   3.860   0.010   4.609  0.0619  0.2385 -0.8291
   50MOL    C2716785   4.131   0.006   4.778 -0.0188 -0.5409 -0.5906
   50MOL    H2816786   4.148   0.168   4.617  1.9935 -1.9525  0.2339
   50MOL    H2916787   4.139   0.045   4.414  0.0108 -0.6203  0.3635
   50MOL    H3016788   3.988   7.975   4.254  0.3581 -0.2254  0.2215
   50MOL    H3116789   3.807   7.870   4.222 -0.0681  0.6783 -0.6149
   50MOL    H3216790   3.671   7.971   4.546  1.6210 -3.0058  0.8571
   50MOL    H3316791   3.823   0.031   4.708 -1.5334  0.4133 -1.4508
   50MOL    H3416792   4.191   7.981   4.712 -0.2329 -0.3972 -0.9240
   50MOL    H3516793   4.048   7.992   4.825  0.0640 -1.6833 -1.6710
   50MOL    C3616794   4.227   0.059   4.891 -0.1365  0.4116  0.0494
   50MOL    C3716795   4.327   0.152   4.826  0.4553  0.0819 -0.1173
   50MOL    C3816796   4.400   0.112   4.707 -0.4014  0.4236 -0.4895
   50MOL    C3916797   4.511   0.187   4.666 -0.4264 -0.3598 -0.4559
   50MOL    C4016798   4.545   0.305   4.735 -0.1049  0.6299 -0.1814
   50MOL    O4116799   4.649   0.380   4.684  0.8608  0.6332 -0.5408
   50MOL    C4216800   4.463   0.352   4.840  0.2658  0.1906  0.2741
   50MOL    C4316801   4.354   0.274   4.891  0.1699  0.3698  0.2856
   50MOL    C4416802   4.296   7.978   4.976  0.3246 -0.9005  0.3794
   50MOL    H4516803   4.166   0.111   4.966 -0.9986 -1.5570  0.7359
   50MOL    H4616804   4.371   0.021   4.657 -1.2157  0.6530 -0.4432
   50MOL    H4716805   4.568   0.158   4.579 -1.9235 -0.6479 -1.3671
   50MOL    H4816806   4.692   0.334   4.614  1.3399 -0.4986  0.4743
   50MOL    H4916807   4.485   0.447   4.886  2.4975 -0.6807  1.0700
   50MOL    H5016808   4.298   0.305   4.978 -2.1589 -1.2207 -0.5961
   50MOL    H5116809   4.348   7.910   4.908  2.5342 -0.5978  1.7055
   50MOL    H5216810   4.382   8.026   5.023 -0.0437  1.7006 -1.4722
   50MOL    C5316811   4.203   7.909   5.087 -0.1922 -0.4849 -0.2820
   50MOL    C5416812   4.082   7.846   5.026  0.6876  0.0889 -0.2032
   50MOL    C5516813   3.955   7.872   5.076 -0.4295 -0.2801  0.0982
   50MOL    C5616814   3.839   7.818   5.012 -0.1047  0.0827 -0.1338
   50MOL    C5716815   3.854   7.724   4.908 -0.6639  0.3053  0.2789
   50MOL    O5816816   3.743   7.676   4.843  0.1929  0.4467 -0.2212
   50MOL    C5916817   3.983   7.694   4.866 -0.0962  0.3337  0.5706
   50MOL    C6016818   4.097   7.754   4.923  0.0459  0.5423  0.0395
   50MOL    C6116819   4.306   7.819   5.171 -0.1780 -0.2074 -1.0354
   50MOL    H6216820   4.175   7.982   5.163  1.4944  0.2023 -0.3089
   50MOL    H6316821   3.942   7.932   5.165  0.0529 -0.1492  0.0813
   50MOL    H6416822   3.737   7.845   5.031 -0.8468 -0.9022 -2.4594
   50MOL    H6516823   3.660   7.701   4.882  0.3762 -3.1594  2.6464
   50MOL    H6616824   3.987   7.617   4.790  1.4472 -0.0859  1.0658
   50MOL    H6716825   4.195   7.723   4.889 -0.0318  0.3602 -0.0217
   50MOL    H6816826   4.372   7.882   5.231 -1.4043 -0.3109  0.4523
   50MOL    H6916827   4.366   7.757   5.105  0.1135 -0.9210 -0.1251
   50MOL    C7016828   4.241   7.710   5.263  0.6544 -0.2873  0.1324
   50MOL    C7116829   4.289   7.721   5.408 -0.5810 -0.2562 -0.7213
   50MOL    C7216830   4.191   7.742   5.515  0.7366  0.6968 -0.0274
   50MOL    C7316831   4.231   7.745   5.651  1.0237  0.1703  0.3421
   50MOL    C7416832   4.369   7.728   5.674 -0.3056 -0.8528  0.3110
   50MOL    O7516833   4.410   7.741   5.800  0.1653 -0.0117 -0.8052
   50MOL    C7616834   4.463   7.706   5.578  0.3024  0.0502  2.0165
   50MOL    C7716835   4.428   7.710   5.439 -0.6321 -0.7296  0.4002
   50MOL    C7816836   4.270   7.569   5.204  0.4896 -0.1986 -0.6943
   50MOL    H7916837   4.132   7.716   5.252  0.7145  1.0462  0.1263
   50MOL    H8016838   4.087   7.754   5.486  0.0982 -4.0740 -0.1970
   50MOL    H8116839   4.158   7.763   5.728  2.1282  1.4153  1.1201
   50MOL    H8216840   4.341   7.722   5.861  1.4413  1.4743  1.1829
   50MOL    H8316841   4.563   7.682   5.611  0.7401 -1.0428 -0.0300
   50MOL    H8416842   4.501   7.696   5.360 -1.2561 -2.2711  0.0739
   50MOL    H8516843   4.367   7.553   5.252  0.5063  0.0919 -0.6298
   50MOL    H8616844   4.278   7.570   5.095  0.7824  0.4183 -0.6690
   50MOL    C8716845   4.174   7.453   5.246 -0.0017  0.1646 -0.5003
   50MOL    C8816846   4.244   7.317   5.256  0.2809 -0.6369 -0.1023
   50MOL    C8916847   4.307   7.250   5.144 -0.3850  0.6733 -0.1846
   50MOL    C9016848   4.378   7.134   5.167  0.3632  0.2849  0.1736
   50MOL    C9116849   4.388   7.085   5.301  0.9123 -0.0084 -0.2530
   50MOL    O9216850   4.470   6.978   5.323  0.3607  0.2192 -0.7208
   50MOL    C9316851   4.326   7.147   5.412  0.7760 -1.4576  0.0454
   50MOL    C9416852   4.252   7.265   5.387  0.3385  0.5071 -0.1765
   50MOL    C9516853   4.058   7.442   5.139  0.2479 -0.0509 -0.3623
   50MOL    H9616854   4.126   7.471   5.342  0.3045 -0.5235 -0.2166
   50MOL    H9716855   4.313   7.298   5.047 -1.6932  2.7742  0.7452
   50MOL    H9816856   4.427   7.079   5.087  0.4646 -1.2779  1.2832
   50MOL    H9916857   4.449   6.943   5.408  2.1496  2.0474  0.5217
   50MOL   H10016858   4.331   7.103   5.511 -1.3443 -1.1879  0.2784
   50MOL   H10116859   4.205   7.322   5.466  2.5085  2.2664 -0.0903
   50MOL   H10216860   4.041   7.544   5.107 -0.2082  0.1608  0.5488
   50MOL   H10316861   4.081   7.385   5.048 -1.4376  2.8349 -2.6912
   50MOL   C10416862   3.922   7.400   5.209 -0.7180  0.2997  0.2748
   50MOL   C10516863   3.935   7.261   5.278  0.0768 -0.9031 -0.4642
   50MOL   C10616864   3.970   7.147   5.203 -0.1515 -0.0070 -0.1078
   50MOL   C10716865   4.004   7.025   5.276 -0.0709 -0.2533  0.9746
   50MOL   C10816866   4.000   7.024   5.417  0.2857  0.4645  0.7483
   50MOL   O10916867   4.049   6.913   5.483  0.1255 -0.2835 -0.6742
   50MOL   C11016868   3.956   7.136   5.490 -0.3866  0.1137  0.2228
   50MOL   C11116869   3.922   7.251   5.417 -0.0722  0.2037 -0.9837
   50MOL   C11216870   3.794   7.409   5.121 -0.4704 -0.7500  0.0823
   50MOL   H11316871   3.908   7.470   5.291 -0.1421  1.4425 -0.5854
   50MOL   H11416872   3.990   7.145   5.097 -1.1983 -0.2765 -0.3132
   50MOL   H11516873   4.054   6.938   5.236 -1.9450 -0.9994  0.1578
   50MOL   H11616874   4.110   6.865   5.429 -0.0538 -0.9962 -0.2571
   50MOL   H11716875   3.948   7.130   5.597 -0.4211 -0.3063  0.1969
   50MOL   H11816876   3.886   7.332   5.478  1.0313  0.2138 -0.3315
   50MOL   H11916877   3.799   7.332   5.044  4.9990 -0.0585 -0.4621
   50MOL   H12016878   3.809   7.499   5.061  0.7067 -0.5005  0.7230
   50MOL   C12116879   3.667   7.401   5.203  0.0638 -0.4961  0.0655
   50MOL   C12216880   3.577   7.518   5.163  0.6221 -0.7397  0.2953
   50MOL   C12316881   3.517   7.517   5.034  0.7676  0.1103  0.8537
   50MOL   C12416882   3.442   7.632   4.993  0.2415  0.7662  0.3136
   50MOL   C12516883   3.410   7.740   5.078 -0.0096  0.3792  0.2621
   50MOL   O12616884   3.336   7.848   5.041 -0.1354  0.4007 -0.4173
   50MOL   C12716885   3.466   7.738   5.206 -0.0349 -0.6368 -0.2991
   50MOL   C12816886   3.557   7.636   5.243  0.2310 -0.0626  0.2066
   50MOL   C12916887   3.596   7.268   5.198  0.5262  0.2283 -0.2408
   50MOL   H13016888   3.698   7.427   5.304  2.2122  2.8923 -1.3691
   50MOL   H13116889   3.526   7.434   4.965  1.1169 -1.1383  2.3827
   50MOL   H13216890   3.383   7.631   4.903  0.6597 -0.7109  0.0445
   50MOL   H13316891   3.301   7.893   5.116  0.7459  0.8554 -0.2717
   50MOL   H13416892   3.435   7.813   5.277 -0.7229 -1.8777  0.7495
   50MOL   H13516893   3.617   7.643   5.333  2.3602  0.7902 -1.2542
   50MOL   H13616894   3.665   7.186   5.218  1.4915  1.0023 -0.3562
   50MOL   H13716895   3.570   7.250   5.094  0.1730 -1.4891  0.1266
   50MOL   C13816896   3.483   7.250   5.298  0.6416  0.0816  0.2208
   50MOL   C13916897   3.541   7.213   5.434  0.0060 -0.2098 -0.2473
   50MOL   C14016898   3.536   7.303   5.543  0.0768 -1.0941  0.1854
   50MOL   C14116899   3.603   7.271   5.661 -0.8324 -0.4731  0.3579
   50MOL   C14216900   3.663   7.145   5.683 -0.0124 -0.2361  0.2462
   50MOL   O14316901   3.727   7.120   5.802 -0.2619 -0.1791  0.2202
   50MOL   C14416902   3.653   7.046   5.584 -0.3149 -0.3005 -0.3817
   50MOL   C14516903   3.604   7.086   5.453  0.3220 -0.6502  0.0374
   50MOL   C14616904   3.364   7.169   5.242  0.1950  0.5837 -0.6209
   50MOL   H14716905   3.431   7.345   5.313 -2.4346 -1.4722 -0.2562
   50MOL   H14816906   3.514   7.405   5.518  0.1742 -1.2704 -0.6170
   50MOL   H14916907   3.634   7.347   5.731 -1.3276 -0.7217  0.8555
   50MOL   H15016908   3.784   7.045   5.796 -0.8733 -0.6243 -0.0778
   50MOL   H15116909   3.704   6.953   5.603 -0.9271 -0.5758 -0.0736
   50MOL   H15216910   3.609   7.009   5.378  0.1331  0.4014 -1.0576
   50MOL   H15316911   3.315   7.132   5.332 -2.7217 -0.1623 -2.4413
   50MOL   H15416912   3.403   7.080   5.193  1.2338  0.8605 -0.2995
   50MOL   C15516913   3.261   7.246   5.147  1.1216  0.3307  0.3875
   50MOL   C15616914   3.199   7.376   5.183 -0.2560  0.1952  0.1405
   50MOL   C15716915   3.154   7.464   5.088 -0.4238 -0.0369  0.4403
   50MOL   C15816916   3.086   7.585   5.127  0.5574 -0.6575  0.7055
   50MOL   C15916917   3.080   7.618   5.262  0.1622 -0.3484 -0.1273
   50MOL   O16016918   3.005   7.726   5.302 -0.4742 -0.7233  0.1664
   50MOL   C16116919   3.116   7.523   5.359 -0.6202  0.2547 -0.3558
   50MOL   C16216920   3.180   7.402   5.315 -0.4118  0.0754  0.2106
   50MOL   C16316921   3.160   7.148   5.091 -0.6412 -0.2308  0.0284
   50MOL   H16416922   3.315   7.283   5.060  0.6267  1.3428  0.5089
   50MOL   H16516923   3.160   7.435   4.984  1.2452 -0.5333  0.6594
   50MOL   H16616924   3.035   7.653   5.060  0.0259 -1.0239  0.7382
   50MOL   H16716925   2.941   7.757   5.239  0.6839  1.6937  0.1367
   50MOL   H16816926   3.106   7.547   5.464  3.0736  0.0670  0.0902
   50MOL   H16916927   3.207   7.323   5.384  0.8458  1.1016  0.8934
   50MOL   H17016928   3.086   7.218   5.051 -1.2627 -0.2445  1.1343
   50MOL   H17116929   3.102   7.102   5.170 -0.6669 -0.2991 -0.0301
   50MOL   C17216930   3.190   7.053   4.968  0.3612  0.3130 -0.4848
   50MOL   C17316931   3.323   7.086   4.906  0.1122  0.8677  0.3015
   50MOL   C17416932   3.326   7.200   4.821  0.1630  0.1078  0.6625
   50MOL   C17516933   3.448   7.233   4.756 -0.9859 -0.2634 -0.5521
   50MOL   C17616934   3.559   7.146   4.765 -0.2125  0.0500  0.0535
   50MOL   O17716935   3.674   7.186   4.703 -0.1374  0.7792 -0.4204
   50MOL   C17816936   3.554   7.032   4.849 -0.5350 -0.0315  0.0908
   50MOL   C17916937   3.436   7.005   4.917  0.4991 -0.2428 -0.6279
   50MOL   C18016938   3.069   7.048   4.879  0.1959 -0.8246  0.5605
   50MOL   H18116939   3.197   6.952   5.007  2.1797  0.2266 -0.9910
   50MOL   H18216940   3.239   7.265   4.816 -0.5035 -0.7048  1.4198
   50MOL   H18316941   3.452   7.323   4.696 -1.2995 -0.0681 -0.2805
   50MOL   H18416942   3.686   7.279   4.715  1.1211  0.6839 -0.8838
   50MOL   H18516943   3.642   6.970   4.862  0.4747  1.0491 -1.4725
   50MOL   H18616944   3.438   6.925   4.990  0.7692 -0.2729 -0.6697
   50MOL   H18716945   3.044   7.149   4.845 -2.0344 -2.4561 -2.8959
   50MOL   H18816946   2.975   7.020   4.926 -0.2798 -1.4682 -0.7652
   50MOL   C18916947   3.090   6.965   4.750  0.1368 -0.4332  0.0300
   50MOL   C19016948   3.078   6.816   4.777 -0.6512 -0.2567 -0.3414
   50MOL   C19116949   3.192   6.736   4.773  0.2869 -0.1536  0.3453
   50MOL   C19216950   3.191   6.611   4.824 -0.1477  0.0188  0.3924
   50MOL   C19316951   3.071   6.551   4.869  0.7124  0.5138 -0.9903
   50MOL   O19416952   3.059   6.421   4.910  0.1444  0.5802 -0.3766
   50MOL   C19516953   2.957   6.627   4.875 -0.0901 -0.7304 -1.2732
   50MOL   C19616954   2.966   6.764   4.836 -0.3789 -0.3477  0.5024
   50MOL   C19716955   3.015   7.015   4.619 -0.0887 -0.0404 -0.2726
   50MOL   H19816956   3.193   6.976   4.714 -0.6345  1.6865 -1.6139
   50MOL   H19916957   3.274   6.771   4.711  0.7613 -0.1663  0.9656
   50MOL   H20016958   3.278   6.547   4.817 -1.6194 -2.0642  0.7944
   50MOL   H20116959   3.143   6.386   4.935 -1.4356 -1.7698  1.9620
   50MOL   H20216960   2.864   6.592   4.919  0.2339 -0.8725 -0.6942
   50MOL   H20316961   2.881   6.831   4.839 -0.0145  0.2203 -1.5316
   50MOL   H20416962   2.914   7.035   4.655  0.8510  1.8876  1.3908
   50MOL   H20516963   3.008   6.919   4.568  1.9333  0.3370 -1.2815
   50MOL   C20616964   3.065   7.130   4.530 -0.2167 -0.5584 -0.4605
   50MOL   C20716965   3.057   7.266   4.592  0.3994  0.1310 -0.6572
   50MOL   C20816966   3.158   7.362   4.570  0.0110  0.2933 -0.0003
   50MOL   C20916967   3.154   7.482   4.635  0.2975 -0.2712  0.4173
   50MOL   C21016968   3.044   7.522   4.714 -0.8012  0.1419 -0.5715
   50MOL   O21116969   3.042   7.641   4.779  0.4513 -0.4670 -0.0686
   50MOL   C21216970   2.936   7.437   4.724 -0.3431 -0.0736  0.6111
   50MOL   C21316971   2.940   7.311   4.665 -0.2979  0.5649 -0.5562
   50MOL   C21416972   3.012   7.117   4.389  0.7062  0.0784  0.1422
   50MOL   H21516973   3.172   7.109   4.524  0.4772  2.4966  0.7480
   50MOL   H21616974   3.240   7.339   4.503 -1.4157  1.6781 -2.3211
   50MOL   H21716975   3.235   7.553   4.626 -1.1968  1.6390  1.7212
   50MOL   H21816976   2.967   7.676   4.825 -0.2598 -1.1834 -0.6681
   50MOL   H21916977   2.852   7.468   4.785  0.6498  0.9545  1.4639
   50MOL   H22016978   2.862   7.237   4.661 -1.0722  1.4124 -1.2779
   50MOL   H22116979   2.996   7.215   4.344  0.2549  1.0404  2.3299
   50MOL   H22216980   2.915   7.073   4.409  1.1782 -0.6972  0.7965
   50MOL   C22316981   3.085   7.019   4.301 -0.0016  0.6217  0.5231
   50MOL   C22416982   3.217   7.085   4.257 -0.7314 -0.2594  1.1370
   50MOL   C22516983   3.210   7.182   4.155  0.5632  0.3972  0.4278
   50MOL   C22616984   3.328   7.239   4.103  0.4065 -0.3019 -0.2951
   50MOL   C22716985   3.450   7.201   4.157 -0.7856 -0.1868 -0.1507
   50MOL   O22816986   3.560   7.271   4.121  0.1625 -0.0173 -0.0801
   50MOL   C22916987   3.462   7.099   4.255 -0.4409  0.2373  0.6065
   50MOL   C23016988   3.347   7.041   4.307 -0.1218  0.2593  0.0970
   50MOL   C23116989   3.003   6.949   4.187 -0.0761 -0.6204 -0.1805
   50MOL   H23216990   3.115   6.944   4.375 -2.6154  0.2281  1.2406
   50MOL   H23316991   3.119   7.217   4.108  0.3947 -0.5612  0.0328
   50MOL   H23416992   3.333   7.322   4.034 -0.5772  1.6651  1.9264
   50MOL   H23516993   3.633   7.257   4.179  0.5182  3.7998  0.5384
   50MOL   H23616994   3.557   7.060   4.287 -0.1552  0.8850  0.5569
   50MOL   H23716995   3.361   6.952   4.366 -2.9824 -1.1477 -1.2419
   50MOL   H23816996   2.904   6.925   4.226  1.2187 -2.6881  1.9966
   50MOL   H23916997   2.995   7.018   4.103 -0.8964 -1.2376 -0.6168
   50MOL   C24016998   3.077   6.823   4.139  0.4419 -0.1987 -0.2649
   50MOL   C24116999   3.091   6.708   4.233  0.0306 -0.2704 -0.8579
   50MOL   C24217000   3.205   6.622   4.220 -0.7949 -0.0198  0.0023
   50MOL   C24317001   3.223   6.517   4.313 -0.4599  0.8381 -0.7721
   50MOL   C24417002   3.127   6.495   4.419 -0.1959  0.2759 -0.3418
   50MOL   O24517003   3.154   6.408   4.519  0.3371  0.1939 -0.4384
   50MOL   C24617004   3.011   6.574   4.424  0.0511  0.0147 -0.8551
   50MOL   C24717005   2.995   6.676   4.332  0.3808 -0.1974  0.8859
   50MOL   C24817006   3.016   6.762   4.010 -0.3882 -0.3144 -0.4357
   50MOL   H24917007   3.180   6.844   4.108  1.9723 -3.3922  2.3433
   50MOL   H25017008   3.282   6.633   4.145  0.3009 -0.0934  1.0937
   50MOL   H25117009   3.313   6.460   4.294 -0.8456  0.8546 -2.7083
   50MOL   H25217010   3.098   6.411   4.595 -0.7123  0.4477 -1.2064
   50MOL   H25317011   2.936   6.561   4.502  0.8973 -2.0294 -0.3496
   50MOL   H25417012   2.908   6.740   4.332  0.3314 -0.2518 -0.3492
   50MOL   H25517013   3.074   6.672   3.987  0.6278 -0.2549  1.7722
   50MOL   H25617014   2.919   6.721   4.040 -0.2171  0.5601  1.3709
   50MOL   C25717015   2.997   6.856   3.879  0.4052  0.1236 -0.3708
   50MOL   C25817016   3.134   6.883   3.805 -0.1047  0.3102 -0.7492
   50MOL   C25917017   3.164   7.009   3.760 -0.3917 -0.1111  0.4823
   50MOL   C26017018   3.276   7.032   3.675 -0.5567 -0.1537  0.2546
   50MOL   C26117019   3.360   6.927   3.631  0.4692 -1.3758  0.1089
   50MOL   O26217020   3.466   6.949   3.542 -0.0948  0.1357 -0.4920
   50MOL   C26317021   3.338   6.800   3.692  0.3563 -0.0991  0.3703
   50MOL   C26417022   3.220   6.778   3.770 -0.3617 -0.0217  0.2111
   50MOL   C26517023   2.894   6.799   3.785 -0.4875  0.4306  0.5249
   50MOL   H26617024   2.959   6.950   3.919 -1.7680 -1.0372  0.3442
   50MOL   H26717025   3.111   7.095   3.796  0.3147 -0.4027  2.2718
   50MOL   H26817026   3.293   7.126   3.624  0.0875 -1.0583 -1.2414
   50MOL   H26917027   3.434   7.023   3.493 -1.8902  0.0377  0.4882
   50MOL   H27017028   3.406   6.720   3.666  2.1562  0.6937  2.4964
   50MOL   H27117029   3.197   6.677   3.801  0.2495  0.6144  2.8748
   50MOL   H27217030   2.807   6.774   3.844 -0.6780  0.4675  0.2579
   50MOL   H27317031   2.923   6.703   3.742 -2.2169  1.3498 -2.8281
   50MOL   C27417032   2.853   6.894   3.672 -0.3470 -1.1853  0.4363
   50MOL   C27517033   2.783   7.021   3.730  0.4353 -0.2226  0.4668
   50MOL   C27617034   2.661   7.010   3.802  0.1212  0.1869 -0.1018
   50MOL   C27717035   2.600   7.123   3.856 -0.2990  0.1424 -0.5000
   50MOL   C27817036   2.669   7.244   3.846  0.5010 -0.2740  0.2231
   50MOL   O27917037   2.629   7.349   3.924 -0.0896  0.2829  0.1235
   50MOL   C28017038   2.788   7.259   3.770  0.2043 -0.0593  0.0067
   50MOL   C28117039   2.846   7.145   3.709 -0.8328  0.8830  0.0065
   50MOL   C28217040   2.768   6.829   3.563  0.0308 -0.2397 -0.4664
   50MOL   H28317041   2.946   6.932   3.630  0.2212  0.0631  2.7757
   50MOL   H28417042   2.616   6.914   3.823 -1.3879  1.3708  2.4585
   50MOL   H28517043   2.514   7.112   3.919  1.0888  1.7364  1.7230
   50MOL   H28617044   2.538   7.372   3.926 -0.5088 -1.1667 -1.1138
   50MOL   H28717045   2.836   7.355   3.766 -2.4872  1.3683  1.2863
   50MOL   H28817046   2.932   7.147   3.642 -1.3252 -2.3854 -0.8140
   50MOL   H28917047   2.834   6.761   3.509  0.4099 -0.5240  0.3531
   50MOL   H29017048   2.691   6.767   3.609 -0.5459  0.9865  0.2434
   50MOL   C29117049   2.703   6.923   3.458 -0.5244 -0.3312  0.1592
   50MOL   C29217050   2.619   6.824   3.375 -0.4461 -0.1576  0.0274
   50MOL   C29317051   2.676   6.754   3.265  0.5862 -0.1137  0.2538
   50MOL   C29417052   2.607   6.652   3.197 -0.2248  0.6199  0.5028
   50MOL   C29517053   2.473   6.634   3.225 -0.9945  0.1665  0.0753
   50MOL   O29617054   2.408   6.532   3.164 -0.0490  0.6979  0.0884
   50MOL   C29717055   2.410   6.702   3.334  0.1484 -0.6813 -0.2542
   50MOL   C29817056   2.486   6.798   3.410  0.0520 -0.5764  1.2718
   50MOL   C29917057   2.793   7.026   3.371  0.3564 -0.4856  0.0886
   50MOL   H30017058   2.628   6.989   3.503 -1.7417 -1.5223 -0.0692
   50MOL   H30117059   2.777   6.767   3.230  0.8788 -1.5890  0.5261
   50MOL   H30217060   2.670   6.589   3.137 -0.8522  0.6485 -0.1848
   50MOL   H30317061   2.314   6.540   3.162 -0.0301  1.2553  1.4986
   50MOL   H30417062   2.304   6.686   3.351  0.1169  0.6970  0.8837
   50MOL   H30517063   2.440   6.837   3.500 -2.6607  1.1952 -0.8063
   50MOL   H30617064   2.854   6.971   3.300 -0.8304  0.0796 -1.3850
   50MOL   H30717065   2.869   7.077   3.430  0.1550  0.5041 -0.4974
   50MOL   C30817066   2.713   7.136   3.297  0.0339 -0.1865 -0.6320
   50MOL   C30917067   2.771   7.168   3.160 -0.5559 -0.4876 -0.0879
   50MOL   C31017068   2.892   7.246   3.145  0.6296 -0.3951  0.0098
   50MOL   C31117069   2.948   7.267   3.014  0.7115 -0.7911  0.0746
   50MOL   C31217070   2.890   7.202   2.903 -0.2295  0.1362 -1.0295
   50MOL   O31317071   2.940   7.230   2.778 -0.0312  0.1145 -0.7260
   50MOL   C31417072   2.777   7.122   2.919 -0.1639  0.6964 -0.5201
   50MOL   C31517073   2.715   7.107   3.046  0.7541 -0.3517 -0.4930
   50MOL   C31617074   2.702   7.262   3.386 -0.1178 -0.7272 -0.5692
   50MOL   H31717075   2.612   7.099   3.278  0.0394  0.3575 -1.7495
   50MOL   H31817076   2.941   7.276   3.237  0.5016 -0.4633  0.1011
   50MOL   H31917077   3.041   7.322   3.006  1.1811 -1.5333  0.3165
   50MOL   H32017078   3.012   7.290   2.779  0.2776 -0.2417  1.4708
   50MOL   H32117079   2.739   7.065   2.836 -0.5493  0.2095 -0.0178
   50MOL   H32217080   2.622   7.052   3.035 -0.1481  1.1955 -0.7822
   50MOL   H32317081   2.797   7.295   3.429 -1.4051  0.9089  1.0918
   50MOL   H32417082   2.651   7.234   3.478  2.4603 -1.6346  0.6536
   50MOL   C32517083   2.612   7.383   3.323 -0.1925  1.0040  0.5027
   50MOL   C32617084   2.691   7.501   3.267 -0.1001  0.3365 -0.0747
   50MOL   C32717085   2.672   7.548   3.137 -0.2658  0.0900 -0.6003
   50MOL   C32817086   2.753   7.639   3.073 -0.3134  0.3640  0.0241
   50MOL   C32917087   2.856   7.702   3.151 -0.1802  0.2067 -0.1400
   50MOL   O33017088   2.932   7.799   3.101  0.0089  0.3305 -0.0204
   50MOL   C33117089   2.884   7.651   3.283 -0.4775 -0.1205 -0.5897
   50MOL   C33217090   2.793   7.555   3.335  0.2505 -0.5927 -0.0660
   50MOL   C33317091   2.500   7.429   3.423 -0.8821  0.3610 -0.1675
   50MOL   H33417092   2.548   7.339   3.247  3.5195 -1.6018 -1.2680
   50MOL   H33517093   2.602   7.500   3.070 -0.0501 -0.2057 -0.6128
   50MOL   H33617094   2.720   7.672   2.976  1.4273 -1.1949 -1.1259
   50MOL   H33717095   2.937   7.798   3.006 -0.7645  0.4003 -0.0604
   50MOL   H33817096   2.974   7.688   3.330 -0.0243 -1.0302 -0.7270
   50MOL   H33917097   2.820   7.520   3.434  0.5385  0.1615  0.1277
   50MOL   H34017098   2.414   7.482   3.382 -0.6042 -0.2551 -1.5489
   50MOL   H34117099   2.535   7.487   3.509 -0.1212 -0.1550 -0.1215
   50MOL   H34217100   2.451   7.347   3.474 -0.1046  0.8657  1.4411
   51MOL     C117101   6.636   7.771   6.612 -0.5425  0.5311 -0.1629
   51MOL     C217102   6.542   7.852   6.690  0.1886 -0.2184  0.7717
   51MOL     C317103   6.434   7.915   6.614 -0.0369 -0.5066 -0.2534
   51MOL     C417104   6.353   8.013   6.673  0.4447 -0.2094 -0.1381
   51MOL     C517105   6.371   0.006   6.813  0.3053 -0.6058  0.3115
   51MOL     O617106   6.294   0.097   6.871  0.4808  0.4206 -0.4323
   51MOL     C717107   6.473   7.979   6.887 -0.4784 -0.2494  0.5493
   51MOL     C817108   6.567   7.891   6.820  0.2169 -0.3018 -0.3503
   51MOL     C917109   6.747   7.855   6.544  0.4499  0.1252  0.0339
   51MOL    H1017110   6.684   7.710   6.689  1.8228  0.9335 -1.2729
   51MOL    H1117111   6.427   7.882   6.512 -1.4654 -1.0037 -0.0086
   51MOL    H1217112   6.265   0.013   6.623 -0.9446 -1.5976  1.2259
   51MOL    H1317113   6.308   0.089   6.964 -0.3474  2.7917 -0.0594
   51MOL    H1417114   6.479   8.007   6.991  0.4181  1.4933  0.0480
   51MOL    H1517115   6.656   7.850   6.867  0.0231 -0.1695  0.1393
   51MOL    H1617116   6.824   7.864   6.621  1.4062 -2.0140 -0.6513
   51MOL    H1717117   6.697   7.949   6.521  1.0891 -0.5485 -4.4423
   51MOL    H1817118   6.575   7.716   6.542 -1.0061 -0.6379  1.1270
   51MOL    C1917119   6.801   7.798   6.406 -0.7164 -0.5865 -0.1327
   51MOL    C2017120   6.905   7.683   6.422 -0.0467  0.2098 -0.7275
   51MOL    C2117121   7.016   7.692   6.509  0.8737 -0.7164  0.0686
   51MOL    C2217122   7.103   7.583   6.516 -0.4651 -0.1584  0.3935
   51MOL    C2317123   7.076   7.466   6.448  0.0959  0.6548  0.2276
   51MOL    O2417124   7.154   7.357   6.474 -0.0669  0.3993  0.0119
   51MOL    C2517125   6.963   7.450   6.370  0.2200 -0.1269 -0.0980
   51MOL    C2617126   6.874   7.559   6.358 -0.0030 -0.4406 -0.4877
   51MOL    C2717127   6.862   7.901   6.300 -0.3463  0.9503 -0.1226
   51MOL    H2817128   6.709   7.763   6.358 -0.3233  1.6472 -2.6049
   51MOL    H2917129   7.042   7.787   6.552  4.3431 -0.3139 -2.7015
   51MOL    H3017130   7.191   7.612   6.572 -0.2613  0.5736 -0.2978
   51MOL    H3117131   7.199   7.348   6.556 -2.0785 -2.3631  0.9004
   51MOL    H3217132   6.939   7.358   6.319  2.0094 -1.0627  0.7155
   51MOL    H3317133   6.783   7.547   6.300  0.5091  1.9862 -1.8491
   51MOL    H3417134   6.896   7.844   6.213 -0.9928  1.6271 -0.8377
   51MOL    H3517135   6.958   7.937   6.339 -0.9375  1.0004  1.2800
   51MOL    C3617136   6.781   8.018   6.240  0.7872  0.2847 -0.1019
   51MOL    C3717137   6.665   7.956   6.174  0.3338 -0.5968  0.0783
   51MOL    C3817138   6.543   8.001   6.227  0.2197 -0.0125  0.2820
   51MOL    C3917139   6.425   7.964   6.170  0.3916  1.0683 -0.4557
   51MOL    C4017140   6.424   7.874   6.056 -0.3125 -0.3023 -0.9909
   51MOL    O4117141   6.301   7.861   6.002 -0.0370 -0.1649  0.7685
   51MOL    C4217142   6.546   7.815   6.008 -0.6308  0.1396  0.5921
   51MOL    C4317143   6.673   7.867   6.061 -0.1779  0.6148  0.2054
   51MOL    C4417144   6.857   0.088   6.156 -0.2045 -1.0160 -0.1865
   51MOL    H4517145   6.746   0.033   6.330  0.7938  0.9369 -0.4782
   51MOL    H4617146   6.536   0.032   6.310 -1.2797  1.6958 -1.2303
   51MOL    H4717147   6.332   7.994   6.215 -0.0819 -0.7749 -0.1332
   51MOL    H4817148   6.307   7.861   5.908  1.2466  0.9692  0.8396
   51MOL    H4917149   6.549   7.748   5.924 -0.6439 -0.1259  0.8024
   51MOL    H5017150   6.767   7.843   6.015 -1.6303 -2.3576 -1.3443
   51MOL    H5117151   6.963   0.067   6.171  0.0283 -0.6608 -1.3437
   51MOL    H5217152   6.829   0.065   6.054  1.7487 -1.7019 -0.5975
   51MOL    C5317153   6.810   0.238   6.170 -0.5077 -0.1501  0.2633
   51MOL    C5417154   6.913   0.338   6.110  0.4311  0.1589 -0.0962
   51MOL    C5517155   7.026   0.368   6.184  0.0492  0.3584  0.2951
   51MOL    C5617156   7.118   0.463   6.126  0.7216  0.1743  0.1547
   51MOL    C5717157   7.098   0.509   5.994 -0.7573  0.1040  0.4467
   51MOL    O5817158   7.188   0.587   5.926 -0.3306  0.2337 -0.1779
   51MOL    C5917159   6.973   0.483   5.929  0.0466 -0.4563  0.3186
   51MOL    C6017160   6.883   0.395   5.983 -0.0149 -0.3342  0.9886
   51MOL    C6117161   6.670   0.272   6.115  0.2184  0.6759 -0.4841
   51MOL    H6217162   6.816   0.255   6.278 -1.3638  0.5861  0.2034
   51MOL    H6317163   7.050   0.331   6.283  2.9928 -0.0615 -0.5304
   51MOL    H6417164   7.213   0.478   6.177 -0.4921  0.9730  2.2603
   51MOL    H6517165   7.274   0.560   5.954 -1.1044 -2.3938 -0.1852
   51MOL    H6617166   6.959   0.504   5.824 -2.7705 -1.1569  0.5026
   51MOL    H6717167   6.801   0.365   5.920  1.3324 -0.5289 -0.7270
   51MOL    H6817168   6.605   0.186   6.134  1.3647  0.2459  1.7250
   51MOL    H6917169   6.660   0.271   6.007 -3.8702 -3.0803 -0.2626
   51MOL    C7017170   6.600   0.393   6.184 -0.3737  0.3957 -0.3405
   51MOL    C7117171   6.567   0.365   6.334 -0.5403  0.2641 -0.1110
   51MOL    C7217172   6.448   0.297   6.374 -0.8588  0.2100 -0.1468
   51MOL    C7317173   6.409   0.277   6.508  0.4939 -0.2207 -0.0782
   51MOL    C7417174   6.499   0.318   6.608 -0.1019 -0.8175  0.1813
   51MOL    O7517175   6.471   0.301   6.740 -0.4836  0.5452 -0.3569
   51MOL    C7617176   6.625   0.379   6.576 -0.3179 -0.5772  1.0532
   51MOL    C7717177   6.660   0.398   6.438  0.7131 -0.1470 -0.6475
   51MOL    C7817178   6.485   0.452   6.093 -1.0243  0.9789 -0.0031
   51MOL    H7917179   6.680   0.468   6.184  0.8342 -0.8729  0.4492
   51MOL    H8017180   6.384   0.250   6.300 -0.3841  0.0052 -0.4300
   51MOL    H8117181   6.324   0.216   6.533  0.3820 -0.4502 -1.0112
   51MOL    H8217182   6.418   0.227   6.767  1.7451 -1.0627 -0.2091
   51MOL    H8317183   6.692   0.421   6.650 -0.4967  0.7703  0.4743
   51MOL    H8417184   6.757   0.443   6.423  0.6987 -0.8393 -3.0008
   51MOL    H8517185   6.419   0.371   6.061 -0.5557  0.8737 -0.7025
   51MOL    H8617186   6.525   0.498   6.003 -0.9026  2.0386  0.5844
   51MOL    C8717187   6.396   0.554   6.163 -0.0889  0.5257 -0.1770
   51MOL    C8817188   6.285   0.597   6.069  0.7817 -0.0026  0.5944
   51MOL    C8917189   6.312   0.687   5.964 -0.1344  0.1053  0.1195
   51MOL    C9017190   6.206   0.732   5.879  0.0013  0.4622  0.2431
   51MOL    C9117191   6.073   0.687   5.893 -0.5170  0.3132 -0.0753
   51MOL    O9217192   5.972   0.751   5.835  0.1898 -0.2592 -0.5982
   51MOL    C9317193   6.050   0.587   5.995  0.4115 -0.6476 -0.4599
   51MOL    C9417194   6.156   0.546   6.079 -0.7203 -0.3306  0.4854
   51MOL    C9517195   6.476   0.674   6.224 -0.1794  0.3955 -0.1520
   51MOL    H9617196   6.346   0.497   6.242 -0.8983  0.4427 -0.7350
   51MOL    H9717197   6.410   0.732   5.960 -0.1247  0.6001  3.6064
   51MOL    H9817198   6.230   0.816   5.814  0.1929  0.5218  0.3904
   51MOL    H9917199   5.885   0.733   5.866  0.2371 -0.6293 -0.6802
   51MOL   H10017200   5.948   0.555   6.010  0.1748  1.1684  1.9881
   51MOL   H10117201   6.130   0.482   6.161 -0.5338 -0.4885  0.4219
   51MOL   H10217202   6.553   0.633   6.289  1.0159  2.0502 -0.4982
   51MOL   H10317203   6.539   0.724   6.150 -0.5873  0.7771 -0.2383
   51MOL   C10417204   6.393   0.778   6.299  0.4060 -0.3710  0.6970
   51MOL   C10517205   6.469   0.916   6.325  0.2430  0.1938 -0.3640
   51MOL   C10617206   6.401   1.037   6.309 -0.0465  0.1933 -0.4918
   51MOL   C10717207   6.463   1.156   6.354  0.1972  0.3995  0.2852
   51MOL   C10817208   6.595   1.161   6.392 -0.2210  0.0455  0.3404
   51MOL   O10917209   6.652   1.281   6.427  0.5903 -0.0947  0.1682
   51MOL   C11017210   6.664   1.042   6.396  0.1525 -0.4081  0.5875
   51MOL   C11117211   6.600   0.920   6.367 -0.5799  0.4024  0.2459
   51MOL   C11217212   6.346   0.711   6.433 -0.4504 -0.2665 -0.7214
   51MOL   H11317213   6.300   0.794   6.244  0.6546  1.3197  0.7323
   51MOL   H11417214   6.296   1.037   6.282  0.1649 -0.4703 -1.3574
   51MOL   H11517215   6.411   1.251   6.355  0.7188  0.6883  0.5142
   51MOL   H11617216   6.721   1.250   6.484 -0.0715 -2.0976 -0.0917
   51MOL   H11717217   6.766   1.045   6.432  0.5807 -1.0041 -0.5230
   51MOL   H11817218   6.653   0.827   6.377 -1.4547 -0.1529 -0.1281
   51MOL   H11917219   6.437   0.706   6.494 -2.7698  1.1786  3.0433
   51MOL   H12017220   6.310   0.610   6.414  1.4213 -0.4146 -3.8259
   51MOL   C12117221   6.245   0.789   6.509  0.0754  0.2143  0.3348
   51MOL   C12217222   6.113   0.786   6.436 -0.5155 -0.5427 -0.4678
   51MOL   C12317223   6.050   0.898   6.384  0.0873  0.6371 -0.2559
   51MOL   C12417224   5.929   0.896   6.313 -0.4995 -0.0334  0.2656
   51MOL   C12517225   5.878   0.769   6.276 -0.2435 -0.1693  0.4160
   51MOL   O12617226   5.763   0.767   6.197 -0.0491  0.0197  0.6425
   51MOL   C12717227   5.936   0.656   6.318 -0.0569  0.0841 -0.0528
   51MOL   C12817228   6.056   0.661   6.395 -0.4277 -0.9398 -0.5141
   51MOL   C12917229   6.224   0.742   6.658  0.1603 -0.2184  0.1661
   51MOL   H13017230   6.276   0.894   6.507  1.6990 -0.2651 -0.4734
   51MOL   H13117231   6.095   0.995   6.398  1.6630 -0.1920  0.6409
   51MOL   H13217232   5.879   0.989   6.290  3.1911  2.6883  2.5160
   51MOL   H13317233   5.695   0.709   6.230 -1.6166  1.3222 -0.2214
   51MOL   H13417234   5.895   0.560   6.291  2.3363 -0.9521 -0.1417
   51MOL   H13517235   6.095   0.571   6.440  3.5389  0.2631 -1.3108
   51MOL   H13617236   6.314   0.707   6.709 -0.2881  0.9953  1.8401
   51MOL   H13717237   6.163   0.652   6.658 -1.9800  1.1924 -1.3338
   51MOL   C13817238   6.142   0.834   6.754 -0.0404  1.1132  0.3070
   51MOL   C13917239   6.196   0.973   6.738 -0.5594  0.4060 -0.1104
   51MOL   C14017240   6.113   1.078   6.694  0.9268 -0.2486 -0.2043
   51MOL   C14117241   6.155   1.209   6.704  0.1842 -0.1430  0.0192
   51MOL   C14217242   6.284   1.242   6.755  0.0131 -0.0403  0.4078
   51MOL   O14317243   6.328   1.373   6.774 -0.1966  0.2099 -0.2725
   51MOL   C14417244   6.374   1.138   6.789  0.0054  0.1616  0.3266
   51MOL   C14517245   6.329   1.004   6.786 -0.1960  0.1675 -0.5019
   51MOL   C14617246   6.129   0.778   6.898 -0.0153 -0.4187 -0.1791
   51MOL   H14717247   6.041   0.831   6.713 -0.4309  0.6547  1.2945
   51MOL   H14817248   6.008   1.066   6.672  0.6993 -0.0866  0.7614
   51MOL   H14917249   6.082   1.283   6.677 -1.3645 -2.3991 -2.1868
   51MOL   H15017250   6.373   1.398   6.853  0.2935  1.1868 -0.8501
   51MOL   H15117251   6.479   1.154   6.809  0.7319 -2.1323 -1.4062
   51MOL   H15217252   6.387   0.918   6.816 -2.2474 -0.5814  1.4236
   51MOL   H15317253   6.227   0.786   6.945  0.3866  1.3104 -1.2237
   51MOL   H15417254   6.119   0.670   6.892 -0.2869 -0.4058  0.0487
   51MOL   C15517255   6.019   0.845   6.982 -0.0474 -0.8135 -0.2451
   51MOL   C15617256   6.064   0.875   7.129  0.2674  0.9487 -0.0689
   51MOL   C15717257   6.070   0.767   7.224 -0.2866  0.0843  0.5142
   51MOL   C15817258   6.114   0.792   7.357  0.0333  0.3559  0.2417
   51MOL   C15917259   6.140   0.920   7.396 -0.4089  0.2306 -0.0212
   51MOL   O16017260   6.196   0.938   7.519 -0.4418 -0.0092  0.6057
   51MOL   C16117261   6.133   1.032   7.305  0.4898  0.9241  0.4434
   51MOL   C16217262   6.084   1.005   7.177  0.0331 -0.3058 -0.8381
   51MOL   C16317263   5.878   0.787   6.970  0.0147  0.5770  0.6407
   51MOL   H16417264   6.009   0.940   6.929  1.0650 -0.3076  0.4326
   51MOL   H16517265   6.065   0.663   7.193  1.1597  0.4400 -0.9744
   51MOL   H16617266   6.135   0.712   7.426 -0.2306  0.9947  1.0684
   51MOL   H16717267   6.289   0.958   7.523 -0.5206  0.6148 -0.4369
   51MOL   H16817268   6.154   1.130   7.344  1.1825  0.7234  0.5876
   51MOL   H16917269   6.071   1.095   7.118 -2.8762  0.1879  0.4568
   51MOL   H17017270   5.872   0.717   7.053  1.5347 -0.8602 -0.4378
   51MOL   H17117271   5.858   0.730   6.879 -1.0399 -0.7375  1.6757
   51MOL   C17217272   5.767   0.892   6.993  0.3544 -0.0839  0.5201
   51MOL   C17317273   5.641   0.847   7.062 -0.4410  0.5460 -0.2468
   51MOL   C17417274   5.562   0.751   6.997 -0.4112  0.6064 -0.3548
   51MOL   C17517275   5.455   0.701   7.058  0.2487  0.1909 -0.6627
   51MOL   C17617276   5.423   0.740   7.188 -0.3597  0.7206 -0.2871
   51MOL   O17717277   5.316   0.682   7.255 -0.5990 -0.2880  0.0910
   51MOL   C17817278   5.505   0.836   7.256 -0.9178  0.2324 -0.1931
   51MOL   C17917279   5.611   0.893   7.185  0.3675  0.8078  0.3758
   51MOL   C18017280   5.736   0.965   6.853 -0.8913  0.5577  0.1230
   51MOL   H18117281   5.809   0.974   7.051 -0.0642  1.4354 -1.2782
   51MOL   H18217282   5.594   0.728   6.896  1.9359  1.1241  0.2345
   51MOL   H18317283   5.394   0.626   7.011  0.4074 -0.5447  0.2842
   51MOL   H18417284   5.257   0.636   7.197 -0.0208  0.1442 -0.8701
   51MOL   H18517285   5.486   0.864   7.359 -3.1691 -0.9675 -0.2496
   51MOL   H18617286   5.671   0.965   7.238 -1.0173  1.8090  0.6168
   51MOL   H18717287   5.664   0.911   6.791  0.9841 -1.0633 -0.6776
   51MOL   H18817288   5.818   0.965   6.782 -0.4691  2.1243  0.5802
   51MOL   C18917289   5.677   1.109   6.859  0.7542 -0.3504 -0.2174
   51MOL   C19017290   5.773   1.211   6.929 -0.7198  0.3451 -0.2960
   51MOL   C19117291   5.872   1.284   6.860 -0.5579  0.7287 -0.4128
   51MOL   C19217292   5.962   1.379   6.914 -0.6830 -0.4204 -0.7425
   51MOL   C19317293   5.956   1.399   7.051 -0.3447 -0.3339 -0.5069
   51MOL   O19417294   6.041   1.490   7.115  0.0688  0.0805 -0.3104
   51MOL   C19517295   5.865   1.326   7.124 -0.5967  0.0893 -0.1560
   51MOL   C19617296   5.773   1.240   7.067  0.3758 -0.1918 -0.1240
   51MOL   C19717297   5.621   1.162   6.728  0.2831  0.1219 -0.4872
   51MOL   H19817298   5.595   1.092   6.929  0.9769 -1.8084 -0.2935
   51MOL   H19917299   5.869   1.271   6.753  1.7286  1.8250 -0.6509
   51MOL   H20017300   6.031   1.438   6.855 -0.2756  2.2865  2.2520
   51MOL   H20117301   6.055   1.566   7.061  1.3875 -1.5659 -2.3497
   51MOL   H20217302   5.852   1.339   7.231  1.1005 -0.6226  0.1497
   51MOL   H20317303   5.709   1.189   7.137 -0.2939  0.4842 -0.2332
   51MOL   H20417304   5.559   1.083   6.685  2.8558 -1.2963 -1.6676
   51MOL   H20517305   5.701   1.170   6.654 -0.4332 -1.4518 -1.4762
   51MOL   C20617306   5.550   1.302   6.737  0.3987 -0.3818 -0.7156
   51MOL   C20717307   5.425   1.279   6.820  0.2129  0.0784  1.2908
   51MOL   C20817308   5.305   1.249   6.753  0.3992 -0.3236  0.3299
   51MOL   C20917309   5.189   1.225   6.826 -0.5385  0.0023 -0.0955
   51MOL   C21017310   5.189   1.226   6.964  0.1552  0.1844 -0.0752
   51MOL   O21117311   5.084   1.188   7.041  0.5772  0.8701  0.4547
   51MOL   C21217312   5.307   1.266   7.033 -0.3165  0.9058  0.0903
   51MOL   C21317313   5.420   1.301   6.960  0.1818  0.1005 -0.3676
   51MOL   C21417314   5.527   1.353   6.594 -0.1274  0.0069  0.3938
   51MOL   H21517315   5.622   1.366   6.788  0.4900  2.7970 -4.5216
   51MOL   H21617316   5.293   1.254   6.646  3.1094 -2.0480 -0.1140
   51MOL   H21717317   5.097   1.199   6.775 -1.3606 -2.3059  2.4507
   51MOL   H21817318   5.119   1.134   7.110  2.4464 -0.3550 -1.3936
   51MOL   H21917319   5.308   1.264   7.141 -0.0550 -2.3528  0.0917
   51MOL   H22017320   5.507   1.333   7.016 -0.2539 -2.3481  1.8520
   51MOL   H22117321   5.431   1.406   6.587  0.1462  0.5762  0.9121
   51MOL   H22217322   5.513   1.268   6.527 -1.9909  0.0565  0.6828
   51MOL   C22317323   5.643   1.435   6.534  0.2991 -0.2177 -0.8513
   51MOL   C22417324   5.690   1.553   6.620  0.0160 -0.6062  0.2960
   51MOL   C22517325   5.592   1.626   6.698  0.4466  0.7663  0.4533
   51MOL   C22617326   5.633   1.735   6.776 -0.0918  0.6056  0.8281
   51MOL   C22717327   5.767   1.779   6.770 -0.0701  0.2326 -0.0184
   51MOL   O22817328   5.810   1.889   6.842 -0.2716 -0.3482 -0.3967
   51MOL   C22917329   5.865   1.711   6.693  0.0697 -0.4457 -1.1532
   51MOL   C23017330   5.826   1.596   6.617  0.2548  0.2146  0.1344
   51MOL   C23117331   5.617   1.494   6.400  0.0178 -0.0283 -0.0640
   51MOL   H23217332   5.732   1.374   6.517  0.1213 -1.5276  2.6099
   51MOL   H23317333   5.488   1.597   6.692  0.2210  1.5511  0.6077
   51MOL   H23417334   5.570   1.785   6.847  1.8719  1.7594  1.8019
   51MOL   H23517335   5.731   1.940   6.852 -0.9132 -0.9279 -2.2215
   51MOL   H23617336   5.959   1.760   6.673 -0.0898  0.8788  1.1107
   51MOL   H23717337   5.896   1.557   6.545 -0.1594 -0.4660  0.1009
   51MOL   H23817338   5.520   1.543   6.393 -0.0738  0.1579  2.2002
   51MOL   H23917339   5.692   1.570   6.378 -0.9050  0.6195 -1.0160
   51MOL   C24017340   5.640   1.400   6.284 -0.5507 -0.2818  0.1032
   51MOL   C24117341   5.538   1.289   6.280  0.5399 -0.2548  0.0057
   51MOL   C24217342   5.399   1.319   6.267 -0.5443  0.4602  0.2254
   51MOL   C24317343   5.298   1.222   6.258  0.1069 -0.0599  0.2534
   51MOL   C24417344   5.335   1.086   6.269  0.2601  0.5032 -0.1540
   51MOL   O24517345   5.235   0.988   6.267  0.2164  0.4549  0.1228
   51MOL   C24617346   5.473   1.053   6.280 -0.2281  0.3994  0.3696
   51MOL   C24717347   5.577   1.151   6.287 -0.4557  0.3769  0.2324
   51MOL   C24817348   5.645   1.481   6.150 -0.6367 -0.8346 -0.6834
   51MOL   H24917349   5.736   1.351   6.301  0.0313  1.1695  1.1554
   51MOL   H25017350   5.374   1.421   6.241  1.6662  0.8183 -0.6418
   51MOL   H25117351   5.193   1.248   6.252 -0.3158 -1.3188  1.7208
   51MOL   H25217352   5.152   1.031   6.277  0.8698  1.4047  1.7689
   51MOL   H25317353   5.511   0.951   6.285 -0.1732  0.4217  0.4092
   51MOL   H25417354   5.680   1.119   6.292 -0.2118  1.0850 -0.2391
   51MOL   H25517355   5.550   1.534   6.146  0.8816  1.9986 -0.2467
   51MOL   H25617356   5.732   1.547   6.157 -0.6671 -0.9375  1.0042
   51MOL   C25717357   5.666   1.410   6.013 -0.4355  0.4389 -0.0696
   51MOL   C25817358   5.784   1.316   6.015  0.1974 -0.2508  0.9209
   51MOL   C25917359   5.914   1.370   6.028  1.2074  0.2679  0.0955
   51MOL   C26017360   6.025   1.279   6.032  0.2697  0.5427  0.6414
   51MOL   C26117361   6.006   1.141   6.025  0.0835  0.7210 -0.8589
   51MOL   O26217362   6.111   1.054   6.025  0.0933  0.0388 -0.0059
   51MOL   C26317363   5.881   1.092   6.023 -0.6959  0.4067  0.2409
   51MOL   C26417364   5.770   1.178   6.017  0.0318  0.0622  0.3699
   51MOL   C26517365   5.535   1.356   5.952  0.4101 -0.4912 -0.2870
   51MOL   H26617366   5.688   1.494   5.947 -0.4211 -0.9735 -1.9122
   51MOL   H26717367   5.925   1.477   6.027  2.8440  0.1284  1.0166
   51MOL   H26817368   6.127   1.310   6.046  1.0479 -2.0282  0.8463
   51MOL   H26917369   6.077   0.968   6.008 -1.1611  0.6981 -0.9031
   51MOL   H27017370   5.878   0.984   6.012 -2.1934  0.7006 -2.6898
   51MOL   H27117371   5.672   1.135   6.001 -0.0781 -1.3394  4.1368
   51MOL   H27217372   5.466   1.440   5.949  0.2539 -0.6427 -0.9586
   51MOL   H27317373   5.490   1.277   6.011  2.8630 -1.6763  0.0764
   51MOL   C27417374   5.545   1.309   5.806  0.4248  0.1742  0.0769
   51MOL   C27517375   5.620   1.404   5.716  0.1717  0.0956 -0.0377
   51MOL   C27617376   5.754   1.391   5.699  0.1896 -0.3776  0.0116
   51MOL   C27717377   5.823   1.481   5.619 -0.2296 -0.8145 -0.0587
   51MOL   C27817378   5.754   1.585   5.550 -0.0895 -0.3651  0.2821
   51MOL   O27917379   5.819   1.660   5.461  0.1110 -0.2944 -0.1588
   51MOL   C28017380   5.616   1.604   5.564  0.3885 -0.5419 -0.8450
   51MOL   C28117381   5.551   1.508   5.648  0.5371 -0.7638 -0.3311
   51MOL   C28217382   5.414   1.252   5.742  0.1893  0.1581  0.8502
   51MOL   H28317383   5.616   1.226   5.805  2.9405  2.2235 -2.3810
   51MOL   H28417384   5.812   1.310   5.741 -0.1515 -1.6824 -1.9832
   51MOL   H28517385   5.929   1.473   5.604  0.0855  1.1778  1.0355
   51MOL   H28617386   5.841   1.605   5.388  0.3821  0.9751 -1.0580
   51MOL   H28717387   5.567   1.688   5.517  1.4517 -0.0445 -1.0789
   51MOL   H28817388   5.444   1.515   5.663  0.7056  1.7763 -0.1813
   51MOL   H28917389   5.338   1.328   5.759 -0.1357  0.1011 -0.3103
   51MOL   H29017390   5.417   1.245   5.633 -0.3819 -1.7050  0.9327
   51MOL   C29117391   5.352   1.114   5.790  0.2597 -0.0203  0.0071
   51MOL   C29217392   5.444   1.000   5.825 -0.1783  0.2766  0.2721
   51MOL   C29317393   5.556   0.967   5.744 -0.0933 -0.1886 -0.3861
   51MOL   C29417394   5.649   0.875   5.786  0.1820  0.2303  0.3730
   51MOL   C29517395   5.635   0.813   5.911  0.1475 -0.5829  0.4714
   51MOL   O29617396   5.729   0.723   5.946  0.0875  0.4298 -0.2508
   51MOL   C29717397   5.527   0.844   5.993 -0.3047 -0.1951 -0.4095
   51MOL   C29817398   5.428   0.930   5.945  0.7195 -0.4422  0.3828
   51MOL   C29917399   5.220   1.078   5.711 -1.1821  0.1086 -0.0996
   51MOL   H30017400   5.309   1.148   5.884 -1.5634  0.6618 -1.0287
   51MOL   H30117401   5.582   1.003   5.646 -2.9611  3.1124 -0.0327
   51MOL   H30217402   5.737   0.854   5.727 -0.1900 -0.6264  0.1106
   51MOL   H30317403   5.758   0.727   6.036  1.1819  0.3589 -0.5816
   51MOL   H30417404   5.517   0.786   6.084 -1.1897 -1.2566 -1.1629
   51MOL   H30517405   5.341   0.945   6.007  0.4353 -2.5295  0.5169
   51MOL   H30617406   5.213   0.969   5.716 -0.0131 -0.0184 -1.0441
   51MOL   H30717407   5.231   1.094   5.603 -1.6535  0.6463 -0.0722
   51MOL   C30817408   5.081   1.128   5.757 -0.5038 -0.4732 -0.0048
   51MOL   C30917409   5.045   1.097   5.901 -0.2757  0.3447  0.4896
   51MOL   C31017410   4.999   1.204   5.988 -0.2867 -0.5121 -0.1984
   51MOL   C31117411   4.953   1.185   6.121 -0.0150  0.3726 -0.6997
   51MOL   C31217412   4.947   1.045   6.167 -0.2871  0.4489  0.6588
   51MOL   O31317413   4.918   0.997   6.289 -0.5471  0.5707  0.2115
   51MOL   C31417414   4.981   0.940   6.078 -0.8209  0.5684 -0.0666
   51MOL   C31517415   5.039   0.968   5.953  0.0299  0.4525 -0.3477
   51MOL   C31617416   4.971   1.083   5.651  0.1982  0.0424 -0.5290
   51MOL   H31717417   5.093   1.236   5.757 -0.3984 -0.4822  0.5539
   51MOL   H31817418   4.999   1.305   5.950 -0.4439 -1.1996 -2.0616
   51MOL   H31917419   4.927   1.274   6.176  2.1856  1.2575 -1.0551
   51MOL   H32017420   4.841   0.942   6.293  0.9216 -1.5389  0.0360
   51MOL   H32117421   4.973   0.835   6.102  2.3218  0.7713  2.2305
   51MOL   H32217422   5.056   0.890   5.880  1.4049  0.5733 -0.1735
   51MOL   H32317423   4.975   0.975   5.639  3.9110  0.2654 -1.8214
   51MOL   H32417424   4.985   1.117   5.548  0.6595 -1.1564 -0.8634
   51MOL   C32517425   4.826   1.139   5.685  0.0523  0.1299  0.1345
   51MOL   C32617426   4.721   1.065   5.605 -0.6551 -0.0955 -1.3274
   51MOL   C32717427   4.604   1.016   5.661 -0.4293  0.5760  0.1813
   51MOL   C32817428   4.508   0.951   5.574  0.4248  0.1749  0.5105
   51MOL   C32917429   4.529   0.952   5.437  0.1914 -0.2245 -0.0197
   51MOL   O33017430   4.435   0.896   5.354  0.1470 -0.6316 -0.0751
   51MOL   C33117431   4.648   0.995   5.383 -0.0147  0.1899 -0.5361
   51MOL   C33217432   4.742   1.047   5.467  0.3340  0.3555  0.2077
   51MOL   C33317433   4.820   1.297   5.670 -0.2464 -0.1058 -0.5419
   51MOL   H33417434   4.812   1.103   5.787 -1.5243  0.4473  0.0406
   51MOL   H33517435   4.578   1.025   5.766 -2.2895 -0.8340 -0.1258
   51MOL   H33617436   4.420   0.898   5.607  1.7208 -2.2788  0.1683
   51MOL   H33717437   4.355   0.946   5.351  2.0716  2.5977  0.3835
   51MOL   H33817438   4.661   1.002   5.276 -1.3065  0.2216 -0.6928
   51MOL   H33917439   4.830   1.087   5.419  0.9069 -0.4465  0.5808
   51MOL   H34017440   4.894   1.359   5.721 -0.5169 -1.0993  1.0746
   51MOL   H34117441   4.724   1.331   5.707  0.5749 -0.2734  1.7823
   51MOL   H34217442   4.835   1.330   5.567 -0.0290 -1.4781 -0.9625
   52MOL     C117443   0.638   6.466   4.972  0.0535  0.1204  0.4000
   52MOL     C217444   0.621   6.321   4.988  0.3935 -0.3254  0.4866
   52MOL     C317445   0.669   6.240   4.879 -0.8523  0.1026 -0.2522
   52MOL     C417446   0.647   6.105   4.877  0.0872 -0.2373 -0.8411
   52MOL     C517447   0.576   6.038   4.981 -0.2299 -0.2075  0.8378
   52MOL     O617448   0.551   5.906   4.998 -0.2730 -0.0302 -0.1008
   52MOL     C717449   0.525   6.119   5.078  0.0552  0.1529  0.6361
   52MOL     C817450   0.545   6.261   5.089 -0.1456  0.0626  0.2279
   52MOL     C917451   0.587   6.555   5.089 -0.1870 -0.1330 -0.3585
   52MOL    H1017452   0.745   6.485   4.964 -0.5256  2.7040 -2.0359
   52MOL    H1117453   0.731   6.281   4.800  0.5981  1.7019  1.6554
   52MOL    H1217454   0.678   6.043   4.794 -1.9973 -1.9097 -0.3915
   52MOL    H1317455   0.539   5.850   4.922  1.5951  0.4299 -0.7668
   52MOL    H1417456   0.471   6.066   5.155  1.1543 -1.2016  0.4941
   52MOL    H1517457   0.483   6.316   5.158 -1.0814 -0.4882 -0.1551
   52MOL    H1617458   0.663   6.545   5.166  0.4914  0.4345 -0.9396
   52MOL    H1717459   0.492   6.528   5.134 -0.9187  0.5679 -1.4443
   52MOL    H1817460   0.590   6.490   4.877 -1.0393 -1.3492  0.5692
   52MOL    C1917461   0.584   6.706   5.057  0.2676 -0.1825 -0.7213
   52MOL    C2017462   0.716   6.753   5.001  0.2698 -0.6305  0.2646
   52MOL    C2117463   0.823   6.794   5.082 -0.2875 -0.4369  0.5847
   52MOL    C2217464   0.941   6.848   5.032 -0.3537 -0.7143  0.3015
   52MOL    C2317465   0.947   6.875   4.890  0.4205 -0.4828  0.2504
   52MOL    O2417466   1.059   6.942   4.840 -0.5124 -0.1069  0.9290
   52MOL    C2517467   0.848   6.825   4.807 -0.6432  1.3789  0.1424
   52MOL    C2617468   0.731   6.768   4.859 -0.3664 -0.2392 -0.5384
   52MOL    C2717469   0.530   6.792   5.183  1.0700 -0.3024 -0.7163
   52MOL    H2817470   0.521   6.731   4.971 -1.9236  1.2611  1.2309
   52MOL    H2917471   0.822   6.796   5.190  0.5441 -0.3044  0.5949
   52MOL    H3017472   1.020   6.880   5.098 -1.9716  2.2286  0.9131
   52MOL    H3117473   1.077   6.924   4.749  0.6433 -2.1884  1.5523
   52MOL    H3217474   0.848   6.843   4.700  0.7350  3.3423  0.4342
   52MOL    H3317475   0.664   6.731   4.783 -1.7548 -0.9521  0.9793
   52MOL    H3417476   0.562   6.896   5.183 -1.0228  0.3831 -0.1168
   52MOL    H3517477   0.578   6.745   5.269  1.4853  1.5417  0.0907
   52MOL    C3617478   0.375   6.800   5.172  0.3351 -0.2746 -0.5812
   52MOL    C3717479   0.330   6.894   5.059  0.5897  0.3551  0.6907
   52MOL    C3817480   0.400   7.012   5.015 -0.0710  0.8734 -0.2541
   52MOL    C3917481   0.357   7.079   4.898 -0.2273 -0.5079 -0.1798
   52MOL    C4017482   0.236   7.044   4.841  0.1962  0.0150  0.2777
   52MOL    O4117483   0.198   7.106   4.721  0.0245 -0.1250 -0.6780
   52MOL    C4217484   0.160   6.937   4.893 -0.3679  0.0189 -0.5846
   52MOL    C4317485   0.209   6.859   4.997 -0.3161  0.6946 -0.1818
   52MOL    C4417486   0.306   6.840   5.306 -0.0560 -0.3045 -0.3701
   52MOL    H4517487   0.334   6.704   5.141 -0.3380 -0.1823 -0.0022
   52MOL    H4617488   0.495   7.043   5.054  0.1852 -1.8051  1.4118
   52MOL    H4717489   0.412   7.165   4.861  0.6047  0.1584  2.5040
   52MOL    H4817490   0.271   7.143   4.674  0.5824  0.7102  0.8136
   52MOL    H4917491   0.065   6.900   4.858 -0.2916  1.6535 -2.5784
   52MOL    H5017492   0.145   6.787   5.046  0.6166  0.2673  0.4154
   52MOL    H5117493   0.348   6.925   5.359 -0.3624 -0.0603 -0.5165
   52MOL    H5217494   0.208   6.883   5.286 -0.2411 -0.5141  0.0869
   52MOL    C5317495   0.277   6.726   5.402  0.0543  0.1999  0.5139
   52MOL    C5417496   0.411   6.672   5.456  0.3174  0.6865  0.3617
   52MOL    C5517497   0.497   6.745   5.539 -0.1873 -0.1166 -0.2188
   52MOL    C5617498   0.595   6.679   5.612  0.0754  0.1743  0.3553
   52MOL    C5717499   0.607   6.535   5.597  1.1432 -0.1243 -0.0071
   52MOL    O5817500   0.692   6.475   5.683 -0.4785 -0.4200 -0.3657
   52MOL    C5917501   0.539   6.462   5.499  0.8224  1.0785  0.0714
   52MOL    C6017502   0.434   6.529   5.431 -0.3366 -0.2075 -0.1971
   52MOL    C6117503   0.186   6.757   5.524  0.0469 -0.3333  0.2517
   52MOL    H6217504   0.238   6.648   5.336 -0.7296  0.0480  1.1485
   52MOL    H6317505   0.491   6.852   5.546 -0.8650 -0.2236  0.9413
   52MOL    H6417506   0.658   6.734   5.680  1.2699  0.1435 -0.6877
   52MOL    H6517507   0.773   6.524   5.676 -0.7052  0.0472  0.2265
   52MOL    H6617508   0.566   6.359   5.480 -1.1219  0.2858  1.5037
   52MOL    H6717509   0.365   6.481   5.363 -2.2006  1.2901  0.5787
   52MOL    H6817510   0.207   6.852   5.575  5.3382 -0.8657 -0.6530
   52MOL    H6917511   0.212   6.684   5.600  0.4489 -0.5829 -0.1189
   52MOL    C7017512   0.039   6.731   5.495 -0.4299  0.6413 -0.1939
   52MOL    C7117513   8.023   6.852   5.421 -0.0282  0.0286 -0.0753
   52MOL    C7217514   7.989   6.838   5.284 -0.0970 -0.2343 -0.3823
   52MOL    C7317515   7.963   6.949   5.209  0.3493  0.4267 -0.2549
   52MOL    C7417516   7.964   7.076   5.266  0.3829 -0.1525  0.0376
   52MOL    O7517517   7.936   7.186   5.187  0.0322  0.0139 -0.1486
   52MOL    C7617518   7.978   7.086   5.402 -0.0690 -0.5713 -0.6781
   52MOL    C7717519   8.010   6.977   5.483 -0.5255  0.3931 -0.4804
   52MOL    C7817520   7.999   6.703   5.626  0.3568 -0.1127 -0.1401
   52MOL    H7917521   0.031   6.649   5.424 -1.2996  0.3194  0.2678
   52MOL    H8017522   7.977   6.744   5.233  2.7819 -0.2699 -1.0622
   52MOL    H8117523   7.929   6.929   5.109  1.5070 -0.3221 -0.5144
   52MOL    H8217524   8.014   7.236   5.166 -0.6441  0.6606 -1.1389
   52MOL    H8317525   7.956   7.183   5.444  2.5334  0.1907 -1.0431
   52MOL    H8417526   8.024   6.985   5.590  1.2351 -3.5915 -0.3235
   52MOL    H8517527   7.892   6.714   5.608  0.2340 -0.7780  0.1728
   52MOL    H8617528   8.021   6.776   5.704  2.6067 -0.4643 -0.3987
   52MOL    C8717529   8.026   6.565   5.696 -0.1509  0.0417 -0.3014
   52MOL    C8817530   0.020   6.453   5.600  0.2466  0.3264 -0.9240
   52MOL    C8917531   0.146   6.394   5.604  0.1550 -0.0966  0.2146
   52MOL    C9017532   0.183   6.298   5.507 -0.3659  0.3080  0.5025
   52MOL    C9117533   0.093   6.264   5.405  0.0932  0.1257 -0.3203
   52MOL    O9217534   0.153   6.196   5.298  0.2448 -0.7418  0.0619
   52MOL    C9317535   7.999   6.322   5.408 -0.2995 -0.6369  0.1948
   52MOL    C9417536   7.963   6.414   5.508  0.2654  0.4361 -0.1873
   52MOL    C9517537   7.918   6.522   5.794  0.1724 -0.0342  0.7772
   52MOL    H9617538   0.079   6.568   5.756 -0.9809  1.7661  0.8939
   52MOL    H9717539   0.224   6.431   5.668 -1.7744  1.7160  1.5561
   52MOL    H9817540   0.284   6.259   5.509 -0.3143  0.2925 -1.9782
   52MOL    H9917541   0.243   6.177   5.321  0.3031 -0.1881  0.3234
   52MOL   H10017542   7.934   6.287   5.329 -0.4394  3.8606 -1.8315
   52MOL   H10117543   7.866   6.460   5.510  1.3059  2.8305 -2.0110
   52MOL   H10217544   7.903   6.612   5.854  1.7820  1.4296 -0.9676
   52MOL   H10317545   7.835   6.507   5.724  1.9964 -1.2790 -1.1521
   52MOL   C10417546   7.944   6.410   5.894  0.4315  0.1610  0.6992
   52MOL   C10517547   7.816   6.328   5.937  0.2104 -0.7843 -0.5647
   52MOL   C10617548   7.818   6.191   5.912 -0.3552  1.0381 -0.6129
   52MOL   C10717549   7.701   6.114   5.937  0.2630 -0.3443  0.2364
   52MOL   C10817550   7.587   6.174   5.995 -0.3319  0.3617 -0.1264
   52MOL   O10917551   7.486   6.096   6.029 -0.3077  0.0607  0.4424
   52MOL   C11017552   7.589   6.309   6.022  0.0991  0.4103  0.2352
   52MOL   C11117553   7.700   6.392   5.996 -0.6949 -0.1669 -0.3447
   52MOL   C11217554   8.008   6.469   6.016 -0.1861 -0.0161  0.7057
   52MOL   H11317555   8.015   6.341   5.850  0.5715  0.0459  1.1029
   52MOL   H11417556   7.902   6.145   5.862 -1.8101 -1.8394 -0.5283
   52MOL   H11517557   7.704   6.009   5.910  2.4541 -0.2183 -0.1297
   52MOL   H11617558   7.487   6.004   6.010 -0.7702  0.4865 -1.8167
   52MOL   H11717559   7.498   6.354   6.060  0.1578  0.8146 -0.0909
   52MOL   H11817560   7.696   6.497   6.019 -2.1397 -0.5681  1.3001
   52MOL   H11917561   7.948   6.523   6.089 -0.4697  2.4589 -1.2851
   52MOL   H12017562   0.038   6.551   5.992 -0.9975  0.9917  1.7545
   52MOL   C12117563   0.066   6.364   6.092  0.2307 -0.2601  0.5482
   52MOL   C12217564   0.193   6.326   6.013  0.1403 -0.6221 -0.2152
   52MOL   C12317565   0.295   6.426   5.992  0.7755  0.0166  0.0052
   52MOL   C12417566   0.398   6.395   5.898 -0.0550 -0.4383 -0.7086
   52MOL   C12517567   0.400   6.273   5.829 -0.1409 -0.5567  0.6315
   52MOL   O12617568   0.498   6.245   5.730  0.3905  0.5245  0.4547
   52MOL   C12717569   0.291   6.182   5.851  0.4608  0.8217  0.3181
   52MOL   C12817570   0.189   6.207   5.940  0.5231 -0.0324  0.0907
   52MOL   C12917571   0.083   6.406   6.237  0.8893 -0.0061 -0.2847
   52MOL   H13017572   8.034   6.281   6.097 -2.0048  1.3595 -1.8275
   52MOL   H13117573   0.289   6.522   6.041  1.1603 -0.3863  0.8603
   52MOL   H13217574   0.480   6.464   5.882 -1.7708  1.9451  0.3752
   52MOL   H13317575   0.541   6.325   5.702  2.1220 -1.0242 -1.4767
   52MOL   H13417576   0.298   6.098   5.783  1.3358 -0.1268  1.5667
   52MOL   H13517577   0.116   6.129   5.953 -0.1419  0.2560 -1.6914
   52MOL   H13617578   8.027   6.434   6.285  1.2835 -1.1067  1.1874
   52MOL   H13717579   0.151   6.492   6.239  2.3752 -1.1878  1.2468
   52MOL   C13817580   0.153   6.306   6.342 -0.3757  0.2454  0.6907
   52MOL   C13917581   0.099   6.169   6.326 -0.0025 -0.5515 -0.2222
   52MOL   C14017582   0.182   6.060   6.284  0.2882 -0.2707 -0.2608
   52MOL   C14117583   0.131   5.933   6.265  0.4806 -0.3989  0.0657
   52MOL   C14217584   8.030   5.911   6.273  0.4322 -0.9616 -0.0807
   52MOL   O14317585   7.982   5.787   6.239  0.6670 -0.5675  0.6492
   52MOL   C14417586   7.945   6.017   6.312 -0.6338  0.4402 -0.2629
   52MOL   C14517587   8.000   6.143   6.345  0.0637  0.0285 -0.2150
   52MOL   C14617588   0.128   6.364   6.491  0.6833 -0.7479  0.7786
   52MOL   H14717589   0.259   6.312   6.320 -0.6076 -2.1450 -1.2354
   52MOL   H14817590   0.283   6.085   6.256 -0.0798  2.3413  0.5685
   52MOL   H14917591   0.197   5.859   6.222 -1.5693 -2.8031  0.9332
   52MOL   H15017592   0.020   5.753   6.194  1.5863  1.7754  0.3370
   52MOL   H15117593   7.838   6.003   6.325 -0.4430 -3.5360 -2.0197
   52MOL   H15217594   7.936   6.228   6.362  0.8692  0.6429 -0.1886
   52MOL   H15317595   0.023   6.388   6.507  0.7354 -1.1554  1.7325
   52MOL   H15417596   0.183   6.454   6.517 -1.1372  0.7687 -0.5278
   52MOL   C15517597   0.173   6.275   6.609  0.0216 -0.5401 -0.2736
   52MOL   C15617598   0.105   6.314   6.739  0.5820 -0.5667 -0.2268
   52MOL   C15717599   0.076   6.448   6.783 -0.3620 -0.1486 -0.3668
   52MOL   C15817600   0.019   6.469   6.913 -0.4739  0.0653  0.8910
   52MOL   C15917601   8.008   6.366   6.995  0.8098 -0.6188  0.3450
   52MOL   O16017602   7.959   6.389   7.120  0.2518 -0.3029  0.3412
   52MOL   C16117603   8.022   6.232   6.942  0.0333  0.1748  0.2337
   52MOL   C16217604   0.048   6.210   6.818  0.2788  0.0511 -0.2907
   52MOL   C16317605   0.335   6.279   6.633  0.3197  0.5467 -0.5072
   52MOL   H16417606   0.134   6.174   6.591 -1.7461  0.2787 -1.1184
   52MOL   H16517607   0.110   6.536   6.729 -0.0379 -0.9930 -1.5823
   52MOL   H16617608   0.013   6.573   6.941 -0.6035  0.0472  0.9313
   52MOL   H16717609   7.909   6.469   7.108  0.5023 -0.4761 -2.0739
   52MOL   H16817610   7.984   6.154   7.007  1.9494  0.2542  1.4852
   52MOL   H16917611   0.069   6.111   6.780 -1.1771  0.1101 -1.3118
   52MOL   H17017612   0.349   6.293   6.741  0.3336  1.0417 -0.5711
   52MOL   H17117613   0.379   6.362   6.578  0.4910  0.5712 -0.3354
   52MOL   C17217614   0.406   6.155   6.577 -0.1598 -0.8439  0.0754
   52MOL   C17317615   0.368   6.034   6.661  0.2417 -0.5435  0.8839
   52MOL   C17417616   0.302   5.925   6.596 -0.0301  0.3386  0.1595
   52MOL   C17517617   0.264   5.808   6.669  0.1258  0.1407  0.0597
   52MOL   C17617618   0.277   5.809   6.809  0.1160  0.0932  0.6805
   52MOL   O17717619   0.243   5.695   6.888  0.4486  0.4653  0.1250
   52MOL   C17817620   0.341   5.924   6.870  0.2553 -0.2924 -0.6108
   52MOL   C17917621   0.393   6.029   6.797 -0.0317 -0.5586  0.0330
   52MOL   C18017622   0.561   6.176   6.571 -0.6221  0.6525  0.3213
   52MOL   H18117623   0.373   6.151   6.473 -0.6628  0.7616  0.1654
   52MOL   H18217624   0.275   5.934   6.491 -1.5972 -1.7353  0.3397
   52MOL   H18317625   0.209   5.733   6.614 -2.8068  1.3913  1.1591
   52MOL   H18417626   0.279   5.683   6.975 -1.8327  0.6353  1.1390
   52MOL   H18517627   0.352   5.927   6.977 -0.8269  2.2227 -0.5533
   52MOL   H18617628   0.426   6.117   6.850 -0.4476  0.7710 -1.8844
   52MOL   H18717629   0.609   6.168   6.669  0.1832  1.4589  0.0005
   52MOL   H18817630   0.591   6.277   6.541  0.6997  0.5646  1.2997
   52MOL   C18917631   0.626   6.108   6.450 -0.3418  0.7527  0.2274
   52MOL   C19017632   0.776   6.126   6.473  0.3788  0.0083  0.2960
   52MOL   C19117633   0.829   6.066   6.587  0.0827  0.2752  0.3386
   52MOL   C19217634   0.964   6.092   6.607 -0.8210  0.2395 -0.1787
   52MOL   C19317635   1.047   6.172   6.532 -0.5807 -0.1137  0.0054
   52MOL   O19417636   1.173   6.194   6.572  1.0424 -0.3857  0.5280
   52MOL   C19517637   0.991   6.236   6.416  0.9034  0.0971 -0.5481
   52MOL   C19617638   0.856   6.205   6.385  0.3684  0.0048  0.3168
   52MOL   C19717639   0.589   5.956   6.429 -0.2575 -0.8198 -0.2320
   52MOL   H19817640   0.598   6.162   6.360  0.6283  1.2809  0.2359
   52MOL   H19917641   0.768   6.005   6.652  0.1972  0.0283  0.2137
   52MOL   H20017642   1.016   6.048   6.691  0.6402 -0.8639 -1.6359
   52MOL   H20117643   1.194   6.148   6.652 -1.9156 -1.5768  0.7124
   52MOL   H20217644   1.044   6.305   6.352  2.1762 -1.3801 -1.1159
   52MOL   H20317645   0.800   6.239   6.299  0.5360 -0.9069 -0.1594
   52MOL   H20417646   0.489   5.952   6.385  0.0811  0.9362 -1.1956
   52MOL   H20517647   0.593   5.901   6.524  3.0883 -1.0329 -0.4377
   52MOL   C20617648   0.671   5.873   6.337 -0.5475 -0.1638  0.6190
   52MOL   C20717649   0.677   5.925   6.196 -0.3844  0.4031 -0.5264
   52MOL   C20817650   0.798   5.987   6.159  0.5035  0.2236  0.3973
   52MOL   C20917651   0.806   6.050   6.031 -0.1156  1.3077  0.4973
   52MOL   C21017652   0.699   6.045   5.937  0.5227  0.8390 -0.3067
   52MOL   O21117653   0.709   6.099   5.817 -0.5300  0.4626 -0.0434
   52MOL   C21217654   0.580   5.977   5.969  0.9164 -0.6954  0.3776
   52MOL   C21317655   0.574   5.919   6.095  0.6382  0.7046  0.0708
   52MOL   C21417656   0.639   5.723   6.345 -0.0081 -0.0305  0.2532
   52MOL   H21517657   0.776   5.877   6.367  0.6289 -1.5970 -3.0596
   52MOL   H21617658   0.880   6.002   6.228  0.2670 -0.2658  0.7881
   52MOL   H21717659   0.899   6.099   6.006  1.0272 -1.6911 -1.3670
   52MOL   H21817660   0.627   6.134   5.784 -0.1734 -0.2538 -1.7543
   52MOL   H21917661   0.498   5.975   5.899  2.9453  3.2082 -2.3096
   52MOL   H22017662   0.480   5.870   6.117  2.1858 -2.5694 -0.2361
   52MOL   H22117663   0.680   5.677   6.255  1.5543  0.4465  0.7007
   52MOL   H22217664   0.533   5.702   6.335 -0.1219  1.2942 -1.6479
   52MOL   C22317665   0.685   5.652   6.472  0.5212  0.7435  0.5109
   52MOL   C22417666   0.833   5.682   6.512 -0.4200 -0.5120  1.3459
   52MOL   C22517667   0.936   5.672   6.415 -0.5449 -0.1983  0.2770
   52MOL   C22617668   1.071   5.700   6.456  0.0646  0.2457  1.1893
   52MOL   C22717669   1.098   5.742   6.586  0.0442  0.2641 -0.8604
   52MOL   O22817670   1.224   5.778   6.621 -0.1288 -0.2060 -0.0792
   52MOL   C22917671   0.996   5.750   6.681  0.6142 -0.0556 -0.0317
   52MOL   C23017672   0.862   5.723   6.645  0.4749  0.5178  0.3889
   52MOL   C23117673   0.656   5.500   6.461  0.0963  0.1515  0.4312
   52MOL   H23217674   0.618   5.705   6.540 -1.8102 -3.4163  1.6447
   52MOL   H23317675   0.916   5.651   6.311  0.9558  0.1846 -0.1029
   52MOL   H23417676   1.155   5.693   6.389  0.1703  2.7186  1.0197
   52MOL   H23517677   1.283   5.740   6.558  0.7099 -0.6403  0.9619
   52MOL   H23617678   1.013   5.784   6.782 -1.1935  0.8119 -0.0014
   52MOL   H23717679   0.782   5.724   6.718  0.5169 -1.2002  0.4698
   52MOL   H23817680   0.548   5.485   6.450 -0.0395  0.0311  1.8661
   52MOL   H23917681   0.713   5.456   6.380 -0.4127  0.8084 -0.2926
   52MOL   C24017682   0.697   5.427   6.589 -0.4240  0.4199 -0.3554
   52MOL   C24117683   0.574   5.423   6.684 -0.6411  0.2213  0.0487
   52MOL   C24217684   0.479   5.319   6.665 -0.9018 -0.2020 -0.2955
   52MOL   C24317685   0.377   5.301   6.757 -0.4642  0.1478 -0.3063
   52MOL   C24417686   0.374   5.380   6.873 -0.0646 -0.2212 -0.4356
   52MOL   O24517687   0.271   5.364   6.962  0.5209 -0.0765 -0.5819
   52MOL   C24617688   0.468   5.480   6.890 -0.2012  0.7481  0.3593
   52MOL   C24717689   0.573   5.500   6.801  0.4269 -0.4702 -0.3665
   52MOL   C24817690   0.752   5.284   6.566 -0.2935 -1.0885 -0.4942
   52MOL   H24917691   0.776   5.479   6.645 -0.3251 -1.6286  1.4700
   52MOL   H25017692   0.489   5.260   6.575 -1.1271 -1.5793  0.5702
   52MOL   H25117693   0.293   5.237   6.737  0.8344 -1.3264 -1.2362
   52MOL   H25217694   0.223   5.291   6.926 -0.0982 -0.4177  0.9093
   52MOL   H25317695   0.459   5.556   6.965 -3.3070  0.8406 -0.0433
   52MOL   H25417696   0.648   5.573   6.827  1.3105 -1.7795  0.8373
   52MOL   H25517697   0.731   5.228   6.657  2.1112 -0.4357  0.5036
   52MOL   H25617698   0.689   5.230   6.495 -0.3691 -0.5040 -0.8728
   52MOL   C25717699   0.894   5.291   6.504  0.6846  0.3807 -1.2580
   52MOL   C25817700   1.006   5.266   6.607  0.6582 -0.4034  0.3132
   52MOL   C25917701   1.027   5.135   6.662  0.2782  0.4105  0.5313
   52MOL   C26017702   1.143   5.109   6.739 -0.5760 -0.0669  0.0390
   52MOL   C26117703   1.226   5.209   6.783  0.2544 -0.1382  0.3867
   52MOL   O26217704   1.336   5.168   6.861  0.1374 -0.1595 -0.7643
   52MOL   C26317705   1.194   5.341   6.747 -0.2803  0.7715 -0.5945
   52MOL   C26417706   1.095   5.373   6.654  0.5725 -0.1332 -0.2028
   52MOL   C26517707   0.907   5.183   6.389  0.5223  0.8277 -0.0094
   52MOL   H26617708   0.913   5.388   6.459  1.0715  1.1976  0.6202
   52MOL   H26717709   0.958   5.059   6.627 -0.0612  0.6639  0.6387
   52MOL   H26817710   1.176   5.007   6.751 -0.1369  0.0296 -0.3445
   52MOL   H26917711   1.388   5.243   6.888 -0.7541 -0.7940  2.9003
   52MOL   H27017712   1.262   5.415   6.788 -0.5887  1.1925 -0.8431
   52MOL   H27117713   1.086   5.476   6.624 -0.1511  0.1112  0.8109
   52MOL   H27217714   0.822   5.208   6.325 -0.3837 -2.3108 -0.0979
   52MOL   H27317715   0.884   5.092   6.444  3.6222  0.0592  0.0887
   52MOL   C27417716   1.038   5.174   6.307 -0.0534 -0.2802 -0.3185
   52MOL   C27517717   1.063   5.316   6.243 -0.2330  0.6396  0.3367
   52MOL   C27617718   1.185   5.380   6.259  0.4503 -0.7591  0.0764
   52MOL   C27717719   1.218   5.509   6.206  0.3670 -0.2676 -0.2622
   52MOL   C27817720   1.118   5.576   6.141 -0.0292  0.5845  0.1888
   52MOL   O27917721   1.143   5.693   6.085  0.1748  0.3252 -0.1433
   52MOL   C28017722   0.991   5.514   6.116  0.1873 -0.2369 -0.3102
   52MOL   C28117723   0.963   5.385   6.163  0.6835  0.4252 -0.1110
   52MOL   C28217724   1.010   5.067   6.197 -0.3117 -0.3819  0.1501
   52MOL   H28317725   1.125   5.142   6.364 -0.0776 -1.9085 -1.1631
   52MOL   H28417726   1.248   5.334   6.334  1.6617  1.3886  0.4378
   52MOL   H28517727   1.309   5.565   6.223  0.8228 -1.3082  0.7708
   52MOL   H28617728   1.090   5.732   6.018 -0.1514  0.0363 -0.0567
   52MOL   H28717729   0.919   5.566   6.055 -0.5425 -0.8611  0.0292
   52MOL   H28817730   0.872   5.339   6.127 -0.5558  0.8353  2.3988
   52MOL   H28917731   0.925   5.098   6.137  1.3173  2.0433 -1.0074
   52MOL   H29017732   1.096   5.055   6.131  0.9249 -1.0692  1.8487
   52MOL   C29117733   0.981   4.926   6.244 -0.0494  0.2145 -0.0537
   52MOL   C29217734   1.099   4.882   6.325  0.0525 -0.2999 -0.0507
   52MOL   C29317735   1.088   4.856   6.468 -0.3806  0.3906  0.3400
   52MOL   C29417736   1.207   4.825   6.543 -0.2985  0.8134 -0.1420
   52MOL   C29517737   1.333   4.822   6.481 -0.5775 -0.5489 -0.4711
   52MOL   O29617738   1.444   4.809   6.560  0.5424 -0.1073  0.6355
   52MOL   C29717739   1.346   4.844   6.349  0.2266  0.3078 -0.9566
   52MOL   C29817740   1.228   4.876   6.265  0.7255 -0.4374 -0.0769
   52MOL   C29917741   0.945   4.831   6.127 -0.1450  0.0354  0.0024
   52MOL   H30017742   0.897   4.925   6.313  0.0117 -2.1909  0.0504
   52MOL   H30117743   0.995   4.847   6.521 -0.3252  0.8015  0.5149
   52MOL   H30217744   1.199   4.794   6.647 -1.0574  1.7892  0.1008
   52MOL   H30317745   1.436   4.759   6.640 -3.9092 -2.8286 -1.3285
   52MOL   H30417746   1.445   4.831   6.306 -0.2362 -0.4169 -1.8428
   52MOL   H30517747   1.243   4.892   6.160 -0.2662  0.2784 -0.1057
   52MOL   H30617748   1.028   4.765   6.102 -2.4296 -2.4317 -1.2742
   52MOL   H30717749   0.924   4.897   6.043 -1.2350 -1.7785 -1.1846
   52MOL   C30817750   0.814   4.746   6.149 -0.3831 -0.6398  0.3633
   52MOL   C30917751   0.831   4.612   6.220 -0.4331  0.0317 -0.2185
   52MOL   C31017752   0.743   4.573   6.320  0.4711 -1.0041 -0.0265
   52MOL   C31117753   0.748   4.442   6.379  0.1663  0.9095 -0.0451
   52MOL   C31217754   0.850   4.357   6.332 -0.5638  0.4637 -0.0865
   52MOL   O31317755   0.850   4.230   6.380 -0.5207  0.6584  0.2291
   52MOL   C31417756   0.939   4.400   6.230 -0.2640  0.1362 -0.2272
   52MOL   C31517757   0.932   4.528   6.173  0.7726 -0.0246  0.1031
   52MOL   C31617758   0.709   4.747   6.034  0.7330  0.2408 -0.5400
   52MOL   H31717759   0.758   4.799   6.226  1.2103 -1.4776  2.1727
   52MOL   H31817760   0.676   4.645   6.364 -0.3596 -0.9227 -1.4064
   52MOL   H31917761   0.671   4.428   6.452 -0.0092  1.0169 -0.2080
   52MOL   H32017762   0.929   4.189   6.349 -0.7260 -1.0479  1.8304
   52MOL   H32117763   1.015   4.335   6.188  0.7752  0.1174  1.6311
   52MOL   H32217764   0.995   4.564   6.094  1.6116  2.1375  1.7005
   52MOL   H32317765   0.619   4.696   6.069  0.3711  0.3804 -1.2752
   52MOL   H32417766   0.761   4.692   5.956  1.4587 -0.5839  0.4980
   52MOL   C32517767   0.658   4.884   5.988 -0.6199  0.0210  0.0689
   52MOL   C32617768   0.579   4.962   6.084  0.3330  0.0687 -0.0033
   52MOL   C32717769   0.630   5.076   6.150  0.0986 -0.8002 -0.1204
   52MOL   C32817770   0.551   5.146   6.240  0.0490 -0.1913  0.3262
   52MOL   C32917771   0.425   5.098   6.279  0.1136  0.3880 -0.1648
   52MOL   O33017772   0.353   5.175   6.367  0.1275  0.3677  0.3560
   52MOL   C33117773   0.382   4.974   6.226  0.1788 -0.5095 -0.1839
   52MOL   C33217774   0.450   4.913   6.125  0.0816  0.7238 -0.1772
   52MOL   C33317775   0.571   4.870   5.864  0.4321 -0.3073  0.8498
   52MOL   H33417776   0.728   4.957   5.949  1.2450 -2.2582 -0.9727
   52MOL   H33517777   0.726   5.114   6.117 -0.5815  0.7692 -0.3262
   52MOL   H33617778   0.592   5.243   6.264  1.3004 -1.0064  1.5379
   52MOL   H33717779   0.260   5.173   6.350  0.5525 -1.0479 -2.1068
   52MOL   H33817780   0.296   4.919   6.259  1.4130 -2.7581 -0.6148
   52MOL   H33917781   0.408   4.818   6.097  0.9644  0.5290 -0.8574
   52MOL   H34017782   0.627   4.847   5.774  1.6250  3.2698  0.5716
   52MOL   H34117783   0.529   4.965   5.831  3.3470  0.9780  0.6657
   52MOL   H34217784   0.489   4.800   5.879 -1.4361  1.3687 -1.1818
   53MOL     C117785   5.187   2.857   6.888 -0.2272  0.0471 -0.3409
   53MOL     C217786   5.062   2.829   6.970 -0.0418  0.4482  0.3317
   53MOL     C317787   5.031   2.916   7.073  0.4010 -0.3972 -0.0639
   53MOL     C417788   4.914   2.906   7.153  0.0647 -0.1016 -0.3550
   53MOL     C517789   4.829   2.797   7.131 -0.1365  0.0108 -0.1376
   53MOL     O617790   4.712   2.785   7.207 -0.2298 -0.3576 -0.3765
   53MOL     C717791   4.871   2.696   7.050 -0.4613  0.4951  0.2275
   53MOL     C817792   4.983   2.714   6.964  0.0928 -0.0307 -0.2066
   53MOL     C917793   5.222   2.754   6.778 -0.4658 -0.2881  0.5887
   53MOL    H1017794   5.175   2.954   6.839  1.5953 -0.1943 -1.3157
   53MOL    H1117795   5.099   2.999   7.087 -0.1931  0.4487 -2.0198
   53MOL    H1217796   4.894   2.979   7.229 -0.5233 -0.7607  0.1291
   53MOL    H1317797   4.717   2.827   7.292 -0.1912  1.6720 -1.3595
   53MOL    H1417798   4.819   2.603   7.030 -1.2382  1.2654 -1.4530
   53MOL    H1517799   5.017   2.643   6.889  0.8958  0.5410 -0.3977
   53MOL    H1617800   5.136   2.725   6.718 -0.6785  0.2091  0.6561
   53MOL    H1717801   5.243   2.666   6.840 -1.3497 -0.1110  1.1518
   53MOL    H1817802   5.272   2.864   6.956 -0.3179 -0.0740 -0.2157
   53MOL    C1917803   5.338   2.817   6.683 -0.6453  0.7307 -0.1114
   53MOL    C2017804   5.286   2.921   6.586  0.0676 -0.4491  0.1352
   53MOL    C2117805   5.170   2.900   6.509  0.0261 -0.8629 -1.1733
   53MOL    C2217806   5.117   3.000   6.424  0.1275 -0.2187 -0.0472
   53MOL    C2317807   5.196   3.113   6.394  0.2545  0.9027  0.8260
   53MOL    O2417808   5.148   3.212   6.310 -0.3197  0.2489  0.1505
   53MOL    C2517809   5.320   3.132   6.466 -0.3823 -0.7579 -0.0922
   53MOL    C2617810   5.367   3.037   6.561  0.1248 -0.3793 -0.4862
   53MOL    C2717811   5.417   2.713   6.603  0.1040  0.3463 -0.0119
   53MOL    H2817812   5.407   2.864   6.753 -1.7918  2.3120 -0.0112
   53MOL    H2917813   5.122   2.805   6.527 -1.2491  0.0219  0.2121
   53MOL    H3017814   5.028   2.985   6.367 -0.3086  0.4518  0.4451
   53MOL    H3117815   5.094   3.185   6.237  0.1917  0.5533 -0.3460
   53MOL    H3217816   5.374   3.224   6.451  1.3552 -1.2745  2.6378
   53MOL    H3317817   5.452   3.066   6.621  0.0391 -1.1313  0.0082
   53MOL    H3417818   5.411   2.742   6.499 -0.8927 -1.8328 -0.5920
   53MOL    H3517819   5.358   2.625   6.579 -1.2770  0.6072  2.1929
   53MOL    C3617820   5.562   2.684   6.639  0.0658 -0.3952  0.1081
   53MOL    C3717821   5.631   2.624   6.513  0.3025 -0.0872 -0.2690
   53MOL    C3817822   5.744   2.695   6.466  0.4243 -0.2565 -0.4208
   53MOL    C3917823   5.827   2.635   6.372  0.3105  0.2298  0.4840
   53MOL    C4017824   5.787   2.526   6.302  0.0863 -0.3587  0.0220
   53MOL    O4117825   5.851   2.487   6.188 -0.1025  0.1280 -0.0382
   53MOL    C4217826   5.673   2.456   6.349 -0.2895  0.0042 -0.4278
   53MOL    C4317827   5.595   2.507   6.450 -0.2887  0.7874 -0.8679
   53MOL    C4417828   5.583   2.593   6.757  0.2798  0.7168 -0.4440
   53MOL    H4517829   5.602   2.780   6.671  0.7015 -0.5117 -0.3334
   53MOL    H4617830   5.771   2.787   6.516 -0.8272 -0.1505  0.0880
   53MOL    H4717831   5.911   2.695   6.341 -1.5097  2.4112 -0.4199
   53MOL    H4817832   5.941   2.511   6.176  0.2457 -0.3974  1.3719
   53MOL    H4917833   5.637   2.373   6.291  0.3443 -1.0491  0.6615
   53MOL    H5017834   5.508   2.450   6.480 -0.5723  1.7429  0.1737
   53MOL    H5117835   5.537   2.621   6.851 -0.3535  2.3673 -1.2233
   53MOL    H5217836   5.545   2.493   6.739  1.6684  0.1528 -0.3254
   53MOL    C5317837   5.736   2.585   6.787 -0.1235 -0.3496  0.0618
   53MOL    C5417838   5.790   2.720   6.822  0.7615  0.7074 -0.1633
   53MOL    C5517839   5.714   2.802   6.915 -0.2039  0.1574  0.4839
   53MOL    C5617840   5.771   2.928   6.953  0.8556  0.1199  0.5553
   53MOL    C5717841   5.882   2.981   6.884 -0.7414  0.8353 -0.2094
   53MOL    O5817842   5.928   3.108   6.910 -0.4253 -0.5463 -0.0051
   53MOL    C5917843   5.958   2.896   6.795 -0.1364 -0.0798  0.0301
   53MOL    C6017844   5.906   2.770   6.766  0.5801 -0.8342 -0.2940
   53MOL    C6117845   5.769   2.483   6.898 -0.0893 -0.5333 -0.0133
   53MOL    H6217846   5.787   2.539   6.703 -2.1673 -0.9214 -0.8987
   53MOL    H6317847   5.622   2.770   6.961 -0.0689 -1.9942 -0.6768
   53MOL    H6417848   5.716   2.992   7.020  0.1743  1.9862 -1.6943
   53MOL    H6517849   5.868   3.152   6.968  2.2838  1.0697  1.6100
   53MOL    H6617850   6.045   2.935   6.745  0.8357 -2.4395 -0.1660
   53MOL    H6717851   5.957   2.709   6.693  2.2503  0.5773 -0.3313
   53MOL    H6817852   5.725   2.389   6.866 -0.8053 -0.9142  2.0471
   53MOL    H6917853   5.720   2.519   6.988  0.8116 -1.4000  0.8275
   53MOL    C7017854   5.916   2.455   6.924 -0.0533 -0.1314  0.0069
   53MOL    C7117855   5.993   2.393   6.810 -0.2851  0.0950 -0.5780
   53MOL    C7217856   6.113   2.450   6.766 -0.4995 -0.6045  0.3406
   53MOL    C7317857   6.185   2.383   6.665 -1.0799 -0.2897  0.2138
   53MOL    C7417858   6.139   2.259   6.612 -0.1565 -0.8477 -0.6763
   53MOL    O7517859   6.206   2.201   6.507 -0.4529  0.1217  0.2055
   53MOL    C7617860   6.025   2.207   6.657 -0.6930  0.0949  0.1402
   53MOL    C7717861   5.949   2.269   6.758 -0.6365  1.5726 -0.1953
   53MOL    C7817862   5.947   2.382   7.054 -0.0604  0.1066 -0.3260
   53MOL    H7917863   5.966   2.551   6.936  1.2685 -0.8248  0.1541
   53MOL    H8017864   6.156   2.540   6.807 -2.6662  0.4173  0.4607
   53MOL    H8117865   6.274   2.423   6.618 -1.2996  0.7826  0.6982
   53MOL    H8217866   6.255   2.271   6.467  1.4903 -1.5163 -0.3195
   53MOL    H8317867   6.008   2.110   6.612  1.6315  0.5781 -1.8708
   53MOL    H8417868   5.863   2.216   6.796 -0.1685 -1.6434 -3.3088
   53MOL    H8517869   6.035   2.323   7.030 -0.1479  0.6940 -2.1730
   53MOL    H8617870   5.880   2.298   7.074 -0.6789  0.3536 -1.3174
   53MOL    C8717871   5.958   2.468   7.185  0.1890  0.3650  0.0242
   53MOL    C8817872   6.097   2.546   7.190  0.6412 -0.2542 -0.6181
   53MOL    C8917873   6.112   2.679   7.144 -0.1617 -1.0991 -0.2301
   53MOL    C9017874   6.239   2.743   7.147 -0.3497  0.4037  0.2720
   53MOL    C9117875   6.349   2.672   7.200 -0.0038  0.1491  0.2162
   53MOL    O9217876   6.465   2.739   7.202  0.2252  0.2550 -0.5906
   53MOL    C9317877   6.335   2.542   7.238 -0.1245 -0.0482 -0.2922
   53MOL    C9417878   6.214   2.472   7.229  0.3062 -0.7572 -0.3847
   53MOL    C9517879   5.935   2.380   7.316 -0.4734 -0.7744  0.7796
   53MOL    H9617880   5.882   2.546   7.177 -1.8275 -1.7633 -2.4942
   53MOL    H9717881   6.034   2.742   7.106 -0.7378 -0.3002  2.1761
   53MOL    H9817882   6.242   2.843   7.107 -0.9777  0.2329 -0.2029
   53MOL    H9917883   6.455   2.829   7.176 -1.8137  0.1875 -0.0940
   53MOL   H10017884   6.418   2.487   7.278 -1.3298 -2.6696 -1.3146
   53MOL   H10117885   6.208   2.369   7.262  0.2454 -0.7564 -0.3934
   53MOL   H10217886   5.838   2.329   7.314 -0.2659 -1.1418 -0.5015
   53MOL   H10317887   6.009   2.300   7.319 -0.3842 -0.8149 -1.7753
   53MOL   C10417888   5.949   2.460   7.445 -0.1792 -0.2712  0.1584
   53MOL   C10517889   5.922   2.371   7.570  0.1697  0.6730 -0.0675
   53MOL   C10617890   5.798   2.305   7.589 -0.3912  0.5217  0.3471
   53MOL   C10717891   5.779   2.212   7.698  0.4161 -0.2894 -0.1769
   53MOL   C10817892   5.888   2.180   7.781  0.3941 -0.2476 -0.3038
   53MOL   O10917893   5.883   2.086   7.880 -0.1071 -0.4096 -0.6200
   53MOL   C11017894   6.013   2.240   7.761 -0.3142  0.2414  0.7210
   53MOL   C11117895   6.029   2.339   7.658  0.6035  0.6483 -0.1553
   53MOL   C11217896   5.882   2.596   7.450 -0.9084  0.5708 -0.0777
   53MOL   H11317897   6.053   2.482   7.465 -0.5336 -0.5521  2.4971
   53MOL   H11417898   5.715   2.336   7.526 -1.1479  0.0469  1.1019
   53MOL   H11517899   5.688   2.154   7.695 -0.0755  0.4765 -0.3041
   53MOL   H11617900   5.953   2.027   7.902 -1.7255 -1.5990  1.5673
   53MOL   H11717901   6.103   2.206   7.810  1.5600  2.4668 -1.1092
   53MOL   H11817902   6.130   2.367   7.632  1.1938 -1.5591 -0.3709
   53MOL   H11917903   5.775   2.576   7.444 -0.5863 -2.0221  2.0142
   53MOL   H12017904   5.892   2.654   7.358 -2.9264  1.3981  0.1961
   53MOL   C12117905   5.907   2.681   7.580  0.7793  0.0434  0.2015
   53MOL   C12217906   6.046   2.738   7.598 -0.2677 -0.0372  0.0913
   53MOL   C12317907   6.089   2.781   7.728 -0.2267  0.0649  0.0290
   53MOL   C12417908   6.213   2.847   7.742 -0.2220 -0.0547  0.2925
   53MOL   C12517909   6.297   2.862   7.634  0.8047  0.0140 -0.2254
   53MOL   O12617910   6.420   2.915   7.652 -0.0119  0.1122  0.1990
   53MOL   C12717911   6.255   2.824   7.506 -0.6873 -0.6459 -0.4538
   53MOL   C12817912   6.132   2.761   7.485 -0.1094 -0.0003  0.5449
   53MOL   C12917913   5.795   2.786   7.607 -0.3895 -0.1870 -0.3056
   53MOL   H13017914   5.898   2.606   7.658 -1.2487  0.4967  0.4481
   53MOL   H13117915   6.021   2.765   7.810  1.4430  0.4195  1.5158
   53MOL   H13217916   6.232   2.879   7.843 -2.8848  1.2449  0.4086
   53MOL   H13317917   6.435   2.936   7.743  0.1716  2.2315 -0.2933
   53MOL   H13417918   6.323   2.841   7.424 -1.2367 -0.3137 -0.8461
   53MOL   H13517919   6.103   2.726   7.387 -1.4951 -0.6875  1.1812
   53MOL   H13617920   5.829   2.836   7.697  1.7952 -1.3276 -0.4647
   53MOL   H13717921   5.703   2.738   7.639 -0.2685  0.6313  1.2921
   53MOL   C13817922   5.764   2.878   7.491  0.4118 -0.5711 -0.1335
   53MOL   C13917923   5.877   2.956   7.425  0.0660  0.2516 -0.1470
   53MOL   C14017924   5.902   2.937   7.287  0.6175 -0.0633 -0.2428
   53MOL   C14117925   6.002   3.014   7.223 -0.5740 -0.2957  0.3148
   53MOL   C14217926   6.079   3.107   7.295 -0.5120 -0.3438 -0.2603
   53MOL   O14317927   6.171   3.178   7.225  0.5859  0.1784  0.0429
   53MOL   C14417928   6.065   3.114   7.434  0.2982 -0.7892 -0.1429
   53MOL   C14517929   5.965   3.034   7.500  0.3290  0.6704 -0.2473
   53MOL   C14617930   5.654   2.985   7.519  0.0529 -0.3067 -0.1343
   53MOL   H14717931   5.729   2.807   7.416 -0.4084 -1.9180  1.4941
   53MOL   H14817932   5.841   2.862   7.237 -0.5175  0.4727  0.3197
   53MOL   H14917933   6.024   2.997   7.119 -0.4163 -0.4498  0.3734
   53MOL   H15017934   6.173   3.176   7.131 -0.3790  1.1728 -0.0038
   53MOL   H15117935   6.124   3.176   7.500 -1.6780  0.9626  0.0215
   53MOL   H15217936   5.945   3.038   7.606  3.4433 -1.2671  0.4594
   53MOL   H15317937   5.633   3.031   7.422  0.5956 -0.1021 -0.1553
   53MOL   H15417938   5.690   3.066   7.583 -0.6030 -0.3106  0.2394
   53MOL   C15517939   5.516   2.945   7.579 -0.2495  0.0698 -0.3273
   53MOL   C15617940   5.435   2.862   7.479 -0.5275  0.7287  0.3186
   53MOL   C15717941   5.356   2.924   7.387 -0.2216  0.1831 -0.4238
   53MOL   C15817942   5.261   2.848   7.316  0.4565 -0.3428  0.0680
   53MOL   C15917943   5.242   2.709   7.333 -0.8659  0.0245  0.6992
   53MOL   O16017944   5.136   2.645   7.285  0.4326  0.2937  0.4650
   53MOL   C16117945   5.344   2.645   7.410 -0.4136 -0.1789  0.1389
   53MOL   C16217946   5.433   2.721   7.493  0.6899 -0.4736  0.5512
   53MOL   C16317947   5.429   3.067   7.635  0.6572  0.0707 -0.2263
   53MOL   H16417948   5.532   2.885   7.669 -0.5780 -0.7107 -0.7849
   53MOL   H16517949   5.356   3.032   7.376  0.3716  0.1840 -0.4369
   53MOL   H16617950   5.187   2.896   7.254  1.1250 -0.4971 -0.8566
   53MOL   H16717951   5.076   2.710   7.251  0.7719  0.3737  0.0224
   53MOL   H16817952   5.347   2.540   7.437  0.6860 -0.2191 -0.1441
   53MOL   H16917953   5.505   2.684   7.565  1.2986 -1.6763 -0.6392
   53MOL   H17017954   5.423   3.136   7.551 -0.1245 -1.1921 -1.2273
   53MOL   H17117955   5.481   3.121   7.714 -0.4812 -0.9195  1.2071
   53MOL   C17217956   5.288   3.040   7.679 -0.3084 -0.3211  0.6220
   53MOL   C17317957   5.200   3.155   7.639  0.0559  0.7124  0.0127
   53MOL   C17417958   5.250   3.283   7.654  0.0145  0.3206 -0.0849
   53MOL   C17517959   5.180   3.398   7.607 -0.5544  0.3571  0.2858
   53MOL   C17617960   5.054   3.377   7.552  0.0247  0.0029  0.9533
   53MOL   O17717961   4.967   3.483   7.534 -0.1333 -0.0663  0.1585
   53MOL   C17817962   5.002   3.245   7.536  0.0622 -0.3891  0.3911
   53MOL   C17917963   5.079   3.136   7.576 -0.6044  0.1967  0.4351
   53MOL   C18017964   5.294   3.036   7.835  0.1573 -0.5670  0.0700
   53MOL   H18117965   5.245   2.948   7.638  2.0098 -1.3461  0.3963
   53MOL   H18217966   5.347   3.296   7.700  0.4783  2.3657 -1.5293
   53MOL   H18317967   5.223   3.495   7.629 -0.8990  0.4583  0.5288
   53MOL   H18417968   4.886   3.457   7.492 -0.7618 -0.5761  1.6648
   53MOL   H18517969   4.915   3.229   7.473  0.3184 -0.8470  0.1529
   53MOL   H18617970   5.037   3.037   7.564 -0.0524  0.0720 -0.5746
   53MOL   H18717971   5.322   3.129   7.885 -3.9242 -0.9931  3.4952
   53MOL   H18817972   5.379   2.972   7.858  0.6478  0.5710  1.5421
   53MOL   C18917973   5.175   2.987   7.919  0.6994 -0.5691 -0.2608
   53MOL   C19017974   5.095   2.884   7.846 -0.3145 -0.0454 -0.5415
   53MOL   C19117975   5.152   2.769   7.790 -0.0919  1.0304  0.1593
   53MOL   C19217976   5.074   2.682   7.712  0.1177  0.8372  0.4037
   53MOL   C19317977   4.934   2.705   7.701 -0.0376  0.9954 -0.3845
   53MOL   O19417978   4.869   2.624   7.610  0.2665 -0.1366  0.2454
   53MOL   C19517979   4.871   2.811   7.764 -0.1332  1.1692  0.3095
   53MOL   C19617980   4.955   2.900   7.833 -0.5056  0.0144 -0.3618
   53MOL   C19717981   5.213   2.936   0.014 -0.3240  0.0908 -0.5407
   53MOL   H19817982   5.110   3.074   7.931  0.2756 -1.1636  2.1751
   53MOL   H19917983   5.259   2.754   7.795  0.2884  3.1098 -0.9401
   53MOL   H20017984   5.129   2.609   7.654 -1.9875 -2.6948  2.6187
   53MOL   H20117985   4.904   2.545   7.572 -1.5313  0.4242 -2.7246
   53MOL   H20217986   4.763   2.821   7.762 -0.2904 -0.5478 -2.2237
   53MOL   H20317987   4.902   2.987   7.869  0.5693 -0.3168  2.0463
   53MOL   H20417988   5.273   3.016   0.056 -1.9839  0.9409  0.2823
   53MOL   H20517989   5.282   2.853   8.035 -2.2433 -1.4797 -0.9810
   53MOL   C20617990   5.099   2.883   0.105  0.3682 -0.3619 -0.6196
   53MOL   C20717991   4.983   2.987   0.137  0.2866  0.0032 -0.4376
   53MOL   C20817992   5.007   3.094   0.228  0.3102 -1.0216 -0.8566
   53MOL   C20917993   4.905   3.187   0.259 -0.1697  0.1350  0.1010
   53MOL   C21017994   4.774   3.167   0.218  0.4052  0.5898  0.9339
   53MOL   O21117995   4.673   3.248   0.252 -0.0435 -0.5501  0.3311
   53MOL   C21217996   4.747   3.055   0.139 -0.3670 -0.2950 -0.7502
   53MOL   C21317997   4.844   2.963   0.102 -0.3988  0.1722 -0.1019
   53MOL   C21417998   5.163   2.831   0.234 -0.7581  0.3113 -0.8456
   53MOL   H21517999   5.046   2.804   0.052  0.7358 -1.9053  1.2392
   53MOL   H21618000   5.105   3.115   0.269 -1.0947 -0.1680  2.1491
   53MOL   H21718001   4.926   3.281   0.308 -0.0115  1.6488 -2.7822
   53MOL   H21818002   4.698   3.333   0.284  0.5600 -0.2264 -0.9947
   53MOL   H21918003   4.651   3.025   0.100 -0.6448 -0.1771 -0.1541
   53MOL   H22018004   4.816   2.886   0.032  0.8121 -0.0656 -0.3272
   53MOL   H22118005   5.090   2.799   0.309 -1.1932 -0.3789 -1.5598
   53MOL   H22218006   5.216   2.912   0.285  0.6506 -1.6857  0.9482
   53MOL   C22318007   5.248   2.695   0.229 -0.4750 -0.3808 -0.3154
   53MOL   C22418008   5.177   2.586   0.144 -0.6372  0.1954 -0.2306
   53MOL   C22518009   5.042   2.548   0.164 -1.1495  0.0691  0.1941
   53MOL   C22618010   4.982   2.445   0.086  0.2213 -0.6410 -0.2151
   53MOL   C22718011   5.061   2.383   8.017  0.8786 -0.9666 -0.7460
   53MOL   O22818012   5.006   2.290   7.937  0.5462 -0.0748 -0.1488
   53MOL   C22918013   5.195   2.426   7.997  0.5780  0.3877  0.4174
   53MOL   C23018014   5.256   2.520   0.046  0.0923 -0.1077  0.7692
   53MOL   C23118015   5.283   2.641   0.370  0.1923 -0.2682 -0.0100
   53MOL   H23218016   5.342   2.709   0.176 -0.2729 -1.6058 -0.2961
   53MOL   H23318017   4.988   2.589   0.248 -0.2206  1.6957  0.0121
   53MOL   H23418018   4.881   2.414   0.108 -0.6033  1.0238 -1.5271
   53MOL   H23518019   4.916   2.316   7.950  0.6078 -0.8064  2.0190
   53MOL   H23618020   5.242   2.381   7.910 -0.0908 -0.5645  0.5438
   53MOL   H23718021   5.357   2.555   0.031 -0.3589  2.3124  2.9932
   53MOL   H23818022   5.187   2.625   0.420 -0.2701  2.1490 -0.0802
   53MOL   H23918023   5.331   2.544   0.364 -0.6466 -0.7725  1.2214
   53MOL   C24018024   5.363   2.729   0.465 -0.8593  0.2492  0.9987
   53MOL   C24118025   5.327   2.698   0.612 -0.0392 -0.8021  0.2537
   53MOL   C24218026   5.266   2.798   0.691 -0.3441  0.6195 -0.1286
   53MOL   C24318027   5.243   2.773   0.831 -0.1002  0.1597  0.0021
   53MOL   C24418028   5.303   2.656   0.892 -0.4660  0.0016  0.1078
   53MOL   O24518029   5.291   2.644   1.031  0.0130  0.5706  0.3983
   53MOL   C24618030   5.366   2.558   0.811 -0.9143 -0.3575 -0.5130
   53MOL   C24718031   5.370   2.573   0.671  0.1298 -0.2604  0.3874
   53MOL   C24818032   5.518   2.722   0.435 -0.3289 -0.2251 -0.1409
   53MOL   H24918033   5.339   2.832   0.437  2.0579  1.1668  1.7317
   53MOL   H25018034   5.221   2.883   0.641 -0.9635 -0.3666 -1.2547
   53MOL   H25118035   5.187   2.842   0.892  0.0594  0.5912 -0.3344
   53MOL   H25218036   5.358   2.592   1.074 -0.8961 -0.1663  0.9329
   53MOL   H25318037   5.395   2.465   0.858 -1.4455  0.2992  1.1553
   53MOL   H25418038   5.415   2.498   0.607 -0.9977 -0.4725 -0.1659
   53MOL   H25518039   5.582   2.737   0.522  0.4573  0.4779 -0.8365
   53MOL   H25618040   5.547   2.623   0.401  0.4915 -0.0425  0.0324
   53MOL   C25718041   5.577   2.819   0.330 -0.6349 -0.8141  0.5673
   53MOL   C25818042   5.546   2.962   0.357  0.4227 -0.4060 -0.1718
   53MOL   C25918043   5.581   3.028   0.484  0.1835 -0.8080  0.3018
   53MOL   C26018044   5.524   3.155   0.512 -0.2656 -0.2532  0.8525
   53MOL   C26118045   5.452   3.230   0.419  0.3517 -0.3250  0.1807
   53MOL   O26218046   5.406   3.353   0.454  0.3128 -0.0329  0.6121
   53MOL   C26318047   5.423   3.170   0.294 -0.3681  0.4371 -0.1708
   53MOL   C26418048   5.470   3.042   0.256  0.8785  0.3738  0.1417
   53MOL   C26518049   5.732   2.807   0.306 -0.1289  0.0448  0.2555
   53MOL   H26618050   5.524   2.798   0.237 -2.0848  0.0085  1.1847
   53MOL   H26718051   5.631   2.972   0.561  2.4594  0.5737 -0.1229
   53MOL   H26818052   5.536   3.201   0.609  0.1415 -0.9190  1.1195
   53MOL   H26918053   5.345   3.375   0.386  1.1281 -1.7883 -0.7313
   53MOL   H27018054   5.370   3.238   0.227 -2.3027 -0.2453  0.6175
   53MOL   H27118055   5.445   2.999   0.160 -1.9635  1.6103  0.2712
   53MOL   H27218056   5.771   2.705   0.310 -0.1283  0.0493  0.3709
   53MOL   H27318057   5.787   2.850   0.390  1.0342  0.1086 -0.5307
   53MOL   C27418058   5.783   2.872   0.177  0.6371  0.9175  0.0379
   53MOL   C27518059   5.767   2.767   0.067  1.0461 -0.2753 -0.6473
   53MOL   C27618060   5.847   2.654   0.055 -0.0069 -0.0268  0.0942
   53MOL   C27718061   5.820   2.549   8.004  0.4106 -0.2329  0.3020
   53MOL   C27818062   5.708   2.556   7.917 -0.6145  0.2379 -0.5703
   53MOL   O27918063   5.664   2.454   7.838 -0.3253 -0.3831 -0.2867
   53MOL   C28018064   5.633   2.670   7.922 -0.0193  0.1446  0.1723
   53MOL   C28118065   5.665   2.774   8.014  0.4456 -0.1898  0.2819
   53MOL   C28218066   5.925   2.928   0.195  0.0896  0.2613  0.4815
   53MOL   H28318067   5.715   2.948   0.139  0.1771  0.6483  0.3266
   53MOL   H28418068   5.930   2.631   0.121 -0.0271 -0.1971  0.0619
   53MOL   H28518069   5.879   2.459   8.012 -0.7690 -0.9691  0.8983
   53MOL   H28618070   5.730   2.392   7.811  1.5408  1.0724  0.7855
   53MOL   H28718071   5.535   2.681   7.877 -1.3709 -1.7012  2.5049
   53MOL   H28818072   5.603   2.863   8.015  1.7202  0.7156  0.3952
   53MOL   H28918073   5.971   2.910   0.292 -0.4428 -2.1522  0.3223
   53MOL   H29018074   5.994   2.887   0.121  0.3622  0.1387  0.7972
   53MOL   C29118075   5.926   3.076   0.167  1.0313  0.3690 -0.2111
   53MOL   C29218076   6.072   3.108   0.133  0.3655  0.4038  0.8466
   53MOL   C29318077   6.171   3.129   0.234 -0.0322 -0.4969  0.0571
   53MOL   C29418078   6.302   3.167   0.199 -0.3361 -0.6013  0.7449
   53MOL   C29518079   6.341   3.178   0.066 -0.3430  0.2022 -0.3181
   53MOL   O29618080   6.469   3.221   0.043 -0.6434 -0.3473 -0.2800
   53MOL   C29718081   6.250   3.154   7.999  0.2029 -0.3684 -0.4398
   53MOL   C29818082   6.115   3.118   8.035 -0.1319  0.4851  0.0143
   53MOL   C29918083   5.868   3.161   0.288 -0.1667 -0.2283  0.1971
   53MOL   H30018084   5.860   3.092   0.082  0.3996  0.6618  0.3275
   53MOL   H30118085   6.136   3.123   0.336 -1.8655  1.2274 -0.4346
   53MOL   H30218086   6.373   3.192   0.276 -0.1966  1.9609 -0.1569
   53MOL   H30318087   6.462   3.311   0.015 -0.5764  0.1801  1.3098
   53MOL   H30418088   6.285   3.170   7.899 -1.5429 -3.0433 -1.5360
   53MOL   H30518089   6.051   3.092   7.953 -2.2028  0.8364  1.4764
   53MOL   H30618090   5.916   3.129   0.381  1.0327 -0.0123 -0.3366
   53MOL   H30718091   5.765   3.127   0.294  0.5363 -2.3235  0.7397
   53MOL   C30818092   5.890   3.311   0.273  0.2276 -0.4087  0.6156
   53MOL   C30918093   5.957   3.363   0.401 -0.3190 -0.4058 -0.1006
   53MOL   C31018094   6.087   3.420   0.399  0.3014 -0.3308  0.1785
   53MOL   C31118095   6.160   3.450   0.520  0.5192  0.7394 -0.4194
   53MOL   C31218096   6.107   3.410   0.643 -0.1619 -0.6346  0.4025
   53MOL   O31318097   6.187   3.416   0.752 -0.4349 -0.3336 -0.2978
   53MOL   C31418098   5.973   3.363   0.649 -0.7465 -0.2361 -0.4996
   53MOL   C31518099   5.901   3.344   0.530  0.2880 -0.2942  0.3260
   53MOL   C31618100   5.759   3.391   0.227 -0.1066 -0.3666  0.2710
   53MOL   H31718101   5.961   3.320   0.190  0.3457 -0.7840  0.6769
   53MOL   H31818102   6.128   3.433   0.300  0.3759 -0.6230  0.1697
   53MOL   H31918103   6.258   3.496   0.522  0.5482  0.6853 -0.5716
   53MOL   H32018104   6.159   3.366   0.827  1.2600 -3.5230 -1.6822
   53MOL   H32118105   5.935   3.344   0.749 -0.2726  0.9933 -0.0685
   53MOL   H32218106   5.796   3.318   0.530  0.1390  0.3150  0.3171
   53MOL   H32318107   5.788   3.495   0.217 -0.7769 -0.3773 -2.0461
   53MOL   H32418108   5.689   3.394   0.311  0.0660 -1.2464  0.4548
   53MOL   C32518109   5.682   3.353   0.096 -0.0687 -0.6024  0.3133
   53MOL   C32618110   5.772   3.353   8.012  0.2822  0.3798 -0.0878
   53MOL   C32718111   5.758   3.250   7.923 -0.7918  0.4038  0.6326
   53MOL   C32818112   5.848   3.243   7.812  0.2606  0.1406  0.5586
   53MOL   C32918113   5.954   3.337   7.795 -0.1915  0.0891 -0.1727
   53MOL   O33018114   6.053   3.327   7.705  0.0478 -0.8098 -0.6200
   53MOL   C33118115   5.954   3.443   7.882  1.0876 -0.4897 -0.3728
   53MOL   C33218116   5.854   3.461   7.979 -0.5203 -0.1971  0.3114
   53MOL   C33318117   5.553   3.436   0.067  0.0986  0.0475  0.3609
   53MOL   H33418118   5.657   3.247   0.103 -0.2792 -0.6978 -1.7018
   53MOL   H33518119   5.680   3.178   7.938 -2.3874  1.5766 -1.6746
   53MOL   H33618120   5.839   3.149   7.759 -3.6083  0.2119  1.0056
   53MOL   H33718121   6.128   3.383   7.720  0.1063 -0.9176 -0.5062
   53MOL   H33818122   6.024   3.523   7.863 -1.8460  2.0338 -0.8441
   53MOL   H33918123   5.853   3.546   0.007  0.0323 -0.4770  0.6888
   53MOL   H34018124   5.492   3.433   0.158 -1.0648 -0.1431 -0.4120
   53MOL   H34118125   5.488   3.406   8.022 -0.4368  0.9959  0.4252
   53MOL   H34218126   5.572   3.543   0.070 -1.7028  0.4028  5.2955
   54MOL     C118127   6.272   3.258   3.989 -0.0487  0.4659 -0.0288
   54MOL     C218128   6.324   3.239   4.130  0.4128  0.0641 -0.3011
   54MOL     C318129   6.290   3.127   4.202 -0.1074  0.5962 -0.0469
   54MOL     C418130   6.332   3.111   4.337 -0.7225 -0.4007 -0.1978
   54MOL     C518131   6.414   3.209   4.400 -0.3322  0.5466  0.4258
   54MOL     O618132   6.460   3.196   4.531 -0.2970 -0.4062  0.3459
   54MOL     C718133   6.455   3.323   4.324 -0.9991 -0.3653 -0.5827
   54MOL     C818134   6.401   3.338   4.194  0.6324 -0.1926 -0.7555
   54MOL     C918135   6.129   3.305   3.984 -0.0860 -0.4115  0.3139
   54MOL    H1018136   6.340   3.317   3.928  0.2608 -0.0482 -0.1867
   54MOL    H1118137   6.235   3.047   4.155 -1.2682  1.4079 -0.0855
   54MOL    H1218138   6.299   3.024   4.393 -0.8708 -1.0871 -1.3393
   54MOL    H1318139   6.437   3.123   4.587  1.5019 -0.4560  1.0418
   54MOL    H1418140   6.528   3.390   4.366  1.0401 -3.6938  1.4048
   54MOL    H1518141   6.434   3.431   4.150 -0.8214  1.5700  1.7686
   54MOL    H1618142   6.124   3.414   3.979  1.7263 -0.1777  2.6995
   54MOL    H1718143   6.087   3.280   4.081 -0.9214 -0.6839 -0.1143
   54MOL    H1818144   6.282   3.159   3.945 -1.6260 -0.0828  0.8056
   54MOL    C1918145   6.038   3.224   3.875  0.4113 -0.2654  0.0282
   54MOL    C2018146   5.932   3.317   3.812 -0.2356  0.6462  0.1954
   54MOL    C2118147   5.935   3.355   3.678 -0.8338 -0.4036 -0.2569
   54MOL    C2218148   5.820   3.409   3.616  0.5278 -0.4602 -0.2183
   54MOL    C2318149   5.706   3.453   3.693  0.3041 -0.5452  0.5346
   54MOL    O2418150   5.590   3.492   3.636  0.1857 -0.0342  0.2384
   54MOL    C2518151   5.713   3.425   3.829 -0.0288 -0.4316  0.0430
   54MOL    C2618152   5.822   3.356   3.886  0.4861 -0.1664 -0.0618
   54MOL    C2718153   5.977   3.099   3.931 -0.4041 -0.3820  0.0746
   54MOL    H2818154   6.096   3.193   3.788  0.7751 -0.9226  0.4982
   54MOL    H2918155   6.014   3.311   3.619  0.3494 -0.2751  1.2076
   54MOL    H3018156   5.818   3.425   3.510  3.1928  0.2039 -0.2045
   54MOL    H3118157   5.579   3.486   3.542  2.5323  1.7262 -0.1872
   54MOL    H3218158   5.622   3.434   3.885 -0.0188 -2.1051  0.3612
   54MOL    H3318159   5.813   3.330   3.991 -0.1718  1.8209  0.3795
   54MOL    H3418160   5.893   3.130   3.992 -1.0696  1.7656 -1.8861
   54MOL    H3518161   6.045   3.047   3.999 -0.5129 -1.9695 -1.0084
   54MOL    C3618162   5.937   2.988   3.830 -0.0290 -0.1581  0.1263
   54MOL    C3718163   5.850   3.038   3.716 -0.1297  0.0867 -0.1505
   54MOL    C3818164   5.910   3.041   3.594 -0.3508 -0.2160 -0.2780
   54MOL    C3918165   5.828   3.076   3.484 -0.1264 -0.8234 -0.8535
   54MOL    C4018166   5.699   3.103   3.502  0.1171 -0.3086 -0.7097
   54MOL    O4118167   5.626   3.135   3.396  0.6490 -0.1114  0.0719
   54MOL    C4218168   5.640   3.100   3.627 -0.8045  0.0287 -0.0212
   54MOL    C4318169   5.718   3.080   3.739 -0.2302 -0.3207 -0.0663
   54MOL    C4418170   5.856   2.869   3.897 -0.0978 -0.0384  0.1610
   54MOL    H4518171   6.028   2.943   3.789  0.5195  0.4798  0.6146
   54MOL    H4618172   6.015   3.021   3.580  0.6489  3.7964  1.0117
   54MOL    H4718173   5.869   3.089   3.385 -0.2672  4.0172 -0.3695
   54MOL    H4818174   5.534   3.120   3.405  0.3538  2.2442  1.5612
   54MOL    H4918175   5.533   3.114   3.634 -0.8714  0.0898 -1.0366
   54MOL    H5018176   5.674   3.065   3.837  2.6206 -2.0757  0.9903
   54MOL    H5118177   5.909   2.826   3.981  0.3648  0.2447  0.0135
   54MOL    H5218178   5.761   2.905   3.937  0.9645  0.7981  2.0153
   54MOL    C5318179   5.810   2.747   3.810 -0.5166 -0.8426 -0.0645
   54MOL    C5418180   5.930   2.688   3.745  0.3472 -0.2111  0.1245
   54MOL    C5518181   5.945   2.702   3.604 -0.6148  0.4925 -0.2309
   54MOL    C5618182   6.056   2.649   3.541  0.1831 -0.5248 -0.1071
   54MOL    C5718183   6.152   2.580   3.616  0.1865 -0.1556 -0.3693
   54MOL    O5818184   6.257   2.525   3.552  0.3538 -0.1290 -0.2384
   54MOL    C5918185   6.144   2.569   3.756  0.5561 -0.4092 -0.0505
   54MOL    C6018186   6.030   2.623   3.820 -0.4369  0.8074  0.8173
   54MOL    C6118187   5.720   2.636   3.876  0.2009 -0.6302 -0.4209
   54MOL    H6218188   5.752   2.795   3.731  1.0098 -1.3227 -1.5078
   54MOL    H6318189   5.885   2.760   3.535  1.5270  1.7208 -1.0861
   54MOL    H6418190   6.082   2.670   3.439  0.1825 -0.0108 -0.0018
   54MOL    H6518191   6.303   2.463   3.606 -0.3596  1.4684  2.2890
   54MOL    H6618192   6.233   2.541   3.812  1.9798  0.4364 -1.8334
   54MOL    H6718193   6.020   2.614   3.927 -3.1317  1.2612  0.6565
   54MOL    H6818194   5.640   2.685   3.932 -0.6668 -0.3272 -1.9123
   54MOL    H6918195   5.777   2.584   3.953 -0.5873  0.0208  0.6118
   54MOL    C7018196   5.665   2.534   3.775 -0.4170 -0.6276  0.4798
   54MOL    C7118197   5.560   2.591   3.678  0.1834 -0.2295  0.3584
   54MOL    C7218198   5.470   2.697   3.704  1.0274 -0.2192 -0.0385
   54MOL    C7318199   5.397   2.760   3.599  0.0864 -0.8600 -0.1940
   54MOL    C7418200   5.415   2.713   3.471  0.1086 -0.1424  0.4201
   54MOL    O7518201   5.342   2.766   3.366  0.0474 -0.2585 -0.3646
   54MOL    C7618202   5.500   2.606   3.444  0.9214  0.1472  0.1601
   54MOL    C7718203   5.573   2.544   3.550 -0.3024 -0.1281  0.1718
   54MOL    C7818204   5.611   2.410   3.848  0.7503  0.1073 -0.1029
   54MOL    H7918205   5.744   2.497   3.709 -1.6680  0.8321 -1.8811
   54MOL    H8018206   5.470   2.752   3.797 -0.7005 -2.0259  1.0596
   54MOL    H8118207   5.350   2.853   3.626  0.9987 -0.5864  0.4916
   54MOL    H8218208   5.281   2.830   3.399 -0.5608 -2.5028  3.1680
   54MOL    H8318209   5.511   2.564   3.345  0.8774 -1.5507  0.8612
   54MOL    H8418210   5.634   2.459   3.521 -0.6486  0.5735 -2.8662
   54MOL    H8518211   5.536   2.360   3.787  0.8289  0.0794 -0.1761
   54MOL    H8618212   5.556   2.436   3.938  0.2876 -1.4445  0.0743
   54MOL    C8718213   5.720   2.306   3.882  0.1368 -0.2701  0.5421
   54MOL    C8818214   5.753   2.225   3.753  0.0772  0.3861  1.1880
   54MOL    C8918215   5.655   2.184   3.653  0.7338  0.3122  0.4485
   54MOL    C9018216   5.698   2.109   3.542  0.4408  0.2572 -0.0805
   54MOL    C9118217   5.834   2.080   3.525 -0.0635 -0.7501  0.4193
   54MOL    O9218218   5.875   2.015   3.413  0.2625 -0.2465  0.3522
   54MOL    C9318219   5.924   2.122   3.617 -0.2888  0.0015  0.1719
   54MOL    C9418220   5.886   2.195   3.726  0.0421 -0.7230 -0.1244
   54MOL    C9518221   5.666   2.211   3.985  0.2823 -0.0254  0.3265
   54MOL    H9618222   5.815   2.350   3.914 -0.9643  1.7289  1.0907
   54MOL    H9718223   5.551   2.205   3.672  0.4058 -2.0671  1.5703
   54MOL    H9818224   5.630   2.069   3.468  3.0763 -1.2245 -1.8015
   54MOL    H9918225   5.967   2.003   3.395  0.4213 -4.0243  3.0939
   54MOL   H10018226   6.030   2.103   3.619 -0.5163 -1.5254 -1.0332
   54MOL   H10118227   5.966   2.238   3.784 -0.0873  1.6236 -1.6354
   54MOL   H10218228   5.572   2.176   3.943  0.8898 -1.4355  0.1041
   54MOL   H10318229   5.734   2.126   3.981  0.4266  0.1456 -2.3341
   54MOL   C10418230   5.656   2.261   4.130  0.1318 -0.0388 -0.1114
   54MOL   C10518231   5.774   2.344   4.181  0.1270 -0.3400  0.4776
   54MOL   C10618232   5.906   2.315   4.140  0.3731 -0.1834 -0.9699
   54MOL   C10718233   6.014   2.403   4.175  0.2927 -0.3578  0.1883
   54MOL   C10818234   5.984   2.517   4.257 -0.5795 -0.1792 -0.7143
   54MOL   O10918235   6.092   2.598   4.293  0.3867  0.2238 -0.2274
   54MOL   C11018236   5.853   2.541   4.303  0.0206  0.1611 -0.2164
   54MOL   C11118237   5.748   2.461   4.253  0.7678 -0.6736 -0.1106
   54MOL   C11218238   5.616   2.145   4.230 -0.3173  0.2356  0.7741
   54MOL   H11318239   5.564   2.320   4.124  0.1121 -0.1443 -0.9028
   54MOL   H11418240   5.923   2.229   4.078 -2.9289 -1.1968 -0.5270
   54MOL   H11518241   6.112   2.384   4.133  0.6306 -1.4701  1.4322
   54MOL   H11618242   6.070   2.674   4.344 -1.2573  0.3279 -1.0771
   54MOL   H11718243   5.838   2.619   4.377  1.1897 -1.5685  1.8913
   54MOL   H11818244   5.644   2.479   4.278  0.9800  2.3503 -1.1940
   54MOL   H11918245   5.546   2.083   4.173  1.0853 -0.3381 -0.3503
   54MOL   H12018246   5.548   2.181   4.308 -0.3571  2.1695 -0.1421
   54MOL   C12118247   5.731   2.050   4.272  0.3565 -0.7185 -0.1812
   54MOL   C12218248   5.814   2.114   4.385 -0.2895 -0.3202  0.4769
   54MOL   C12318249   5.751   2.198   4.481  0.3308  0.1557 -0.3554
   54MOL   C12418250   5.835   2.260   4.575  0.1324  0.1304  0.2317
   54MOL   C12518251   5.969   2.220   4.586  0.2867 -0.1594 -0.4479
   54MOL   O12618252   6.058   2.279   4.672 -0.4594  0.2229 -0.4090
   54MOL   C12718253   6.024   2.130   4.495 -0.4061 -0.3116 -0.2253
   54MOL   C12818254   5.947   2.083   4.392  0.2184 -0.3721  0.5837
   54MOL   C12918255   5.676   1.911   4.317 -0.2950  0.2248  0.9492
   54MOL   H13018256   5.801   2.045   4.189 -0.5702 -0.3376 -1.0017
   54MOL   H13118257   5.645   2.212   4.495 -0.0281 -2.6415  0.0987
   54MOL   H13218258   5.787   2.330   4.642 -0.7374 -0.2586  0.0199
   54MOL   H13318259   6.139   2.231   4.676 -1.6015 -1.7515 -0.3636
   54MOL   H13418260   6.129   2.102   4.501 -0.1393  0.7761  0.2483
   54MOL   H13518261   5.994   2.017   4.320  1.9244 -1.9537  3.0545
   54MOL   H13618262   5.572   1.926   4.347 -1.4301 -1.2148 -2.0266
   54MOL   H13718263   5.726   1.891   4.411 -1.9992 -0.2105  1.7778
   54MOL   C13818264   5.682   1.816   4.198 -0.3269  0.2507 -0.3011
   54MOL   C13918265   5.576   1.705   4.203 -0.1587  0.8435  0.4750
   54MOL   C14018266   5.451   1.727   4.136  0.4519 -0.2795  0.3758
   54MOL   C14118267   5.354   1.625   4.152  0.3968  0.0479  0.0247
   54MOL   C14218268   5.389   1.509   4.223  0.9013 -0.0287  0.1694
   54MOL   O14318269   5.297   1.415   4.214 -0.5012  0.0398  0.3031
   54MOL   C14418270   5.506   1.494   4.297  0.7811  0.0149  0.4047
   54MOL   C14518271   5.595   1.600   4.298 -0.3806 -0.0632 -0.2117
   54MOL   C14618272   5.830   1.765   4.188 -0.6340  1.1884  0.1750
   54MOL   H14718273   5.656   1.876   4.110 -2.3857 -1.4395 -0.8909
   54MOL   H14818274   5.433   1.820   4.083 -0.4998 -1.0363 -0.6414
   54MOL   H14918275   5.259   1.628   4.100 -0.4634  0.7023  1.6042
   54MOL   H15018276   5.342   1.332   4.217 -3.3224 -1.5283  0.4929
   54MOL   H15118277   5.513   1.408   4.361  0.0861  0.8617  1.6434
   54MOL   H15218278   5.678   1.605   4.367 -0.7201  0.6487  0.1518
   54MOL   H15318279   5.832   1.657   4.195  1.2668  1.1941 -0.0948
   54MOL   H15418280   5.893   1.800   4.269  0.4078  0.2214 -0.2152
   54MOL   C15518281   5.895   1.787   4.054  0.2999 -0.1753  0.6064
   54MOL   C15618282   5.806   1.750   3.934  1.2052  0.4279 -0.3637
   54MOL   C15718283   5.780   1.839   3.831  0.3987 -0.3847  0.5045
   54MOL   C15818284   5.710   1.801   3.712 -0.7402  0.7417  0.2013
   54MOL   C15918285   5.650   1.675   3.703 -0.2091 -0.2608  0.0233
   54MOL   O16018286   5.588   1.633   3.590 -0.3926 -0.5491  0.0831
   54MOL   C16118287   5.673   1.583   3.812  0.4218 -0.9040  0.0498
   54MOL   C16218288   5.749   1.619   3.926 -0.1746 -0.6306  0.4712
   54MOL   C16318289   6.032   1.724   4.027  0.0575  0.2606 -0.0099
   54MOL   H16418290   5.911   1.895   4.050 -1.4518  0.1074  0.5863
   54MOL   H16518291   5.828   1.935   3.842 -0.8057  0.1241  1.3754
   54MOL   H16618292   5.694   1.872   3.632  1.1336 -0.0579 -0.9165
   54MOL   H16718293   5.659   1.637   3.528 -0.7741  3.7178 -0.1842
   54MOL   H16818294   5.631   1.483   3.813 -1.0655 -0.3068 -0.9451
   54MOL   H16918295   5.760   1.536   3.994 -1.0824  1.3658  3.1360
   54MOL   H17018296   6.043   1.709   3.920 -3.5554 -1.2758 -0.2540
   54MOL   H17118297   6.027   1.626   4.074 -1.3499  0.4335  0.2256
   54MOL   C17218298   6.154   1.786   4.103  0.2752  0.2662 -0.3732
   54MOL   C17318299   6.191   1.929   4.053 -0.4819 -0.3709  0.6362
   54MOL   C17418300   6.252   2.014   4.148  0.0338 -0.2924 -0.3167
   54MOL   C17518301   6.295   2.143   4.106  0.8403  0.2419 -0.9939
   54MOL   C17618302   6.275   2.186   3.975  0.3061 -0.1236 -0.1121
   54MOL   O17718303   6.309   2.315   3.943  0.0223 -0.0110 -0.0574
   54MOL   C17818304   6.208   2.105   3.885 -0.7953  0.5386 -0.6654
   54MOL   C17918305   6.171   1.974   3.921 -0.1012 -0.2471 -0.0346
   54MOL   C18018306   6.281   1.696   4.097 -0.1027 -0.3148 -0.5693
   54MOL   H18118307   6.130   1.803   4.208  4.4640 -1.0610  0.9261
   54MOL   H18218308   6.260   1.986   4.252  0.0641  0.2291 -0.1729
   54MOL   H18318309   6.339   2.214   4.175 -2.4443  1.3624  0.0379
   54MOL   H18418310   6.340   2.376   4.007  0.8860 -0.4333 -0.0631
   54MOL   H18518311   6.192   2.143   3.785 -2.4057 -0.2755 -0.7366
   54MOL   H18618312   6.126   1.906   3.851 -2.0055  0.4572  0.4642
   54MOL   H18718313   6.344   1.715   4.185  0.1812 -0.2416 -0.7863
   54MOL   H18818314   6.344   1.738   4.018  0.3919  1.8741  0.9410
   54MOL   C18918315   6.268   1.545   4.072 -0.1486  0.5122 -0.2014
   54MOL   C19018316   6.394   1.482   4.023 -0.0258 -0.5849 -0.1899
   54MOL   C19118317   6.395   1.397   3.911 -0.1207 -0.4444  0.5216
   54MOL   C19218318   6.509   1.331   3.878  0.2736 -0.3079 -0.2714
   54MOL   C19318319   6.627   1.342   3.958  0.9622  1.2437  0.3278
   54MOL   O19418320   6.724   1.259   3.913 -0.2018  0.9623 -0.3002
   54MOL   C19518321   6.634   1.437   4.060  0.3370  0.1446 -0.1367
   54MOL   C19618322   6.517   1.505   4.097  0.2232 -0.4555  0.1394
   54MOL   C19718323   6.224   1.461   4.201  0.3573  0.8922 -0.6359
   54MOL   H19818324   6.193   1.532   3.994 -0.3779 -0.9768  0.2465
   54MOL   H19918325   6.310   1.379   3.847 -0.3300  1.9439  0.0753
   54MOL   H20018326   6.510   1.276   3.786  4.0801 -0.4028 -0.2461
   54MOL   H20118327   6.807   1.260   3.958 -0.8969  0.9789  0.9831
   54MOL   H20218328   6.721   1.451   4.122  0.4357  0.0135 -0.2435
   54MOL   H20318329   6.522   1.574   4.180  1.2564 -1.1802  0.6854
   54MOL   H20418330   6.134   1.500   4.249 -1.6148 -0.8541 -2.7886
   54MOL   H20518331   6.305   1.472   4.274  0.3570  0.5790 -0.5866
   54MOL   C20618332   6.201   1.308   4.183  0.7810  0.5546  0.4868
   54MOL   C20718333   6.066   1.277   4.113  0.6463  0.3301 -0.0067
   54MOL   C20818334   6.063   1.216   3.983 -0.0900  0.1652 -0.2008
   54MOL   C20918335   5.939   1.194   3.921  0.2493 -0.1955  0.2087
   54MOL   C21018336   5.816   1.219   3.982 -0.0415 -0.3560 -0.5733
   54MOL   O21118337   5.694   1.183   3.930 -0.1068  0.2524 -0.3195
   54MOL   C21218338   5.819   1.275   4.114 -0.1980 -0.0971 -0.1070
   54MOL   C21318339   5.946   1.318   4.169  0.0210 -0.1348 -0.9717
   54MOL   C21418340   6.200   1.227   4.314 -0.0712  0.0798 -0.1929
   54MOL   H21518341   6.272   1.255   4.120 -1.0055 -0.2097 -0.9491
   54MOL   H21618342   6.148   1.190   3.923  0.1276 -1.1428  0.6466
   54MOL   H21718343   5.939   1.159   3.819 -1.3967  2.3688 -0.7028
   54MOL   H21818344   5.695   1.168   3.837 -0.7514  1.0250 -0.4571
   54MOL   H21918345   5.730   1.304   4.166 -1.2667 -0.8882 -1.4690
   54MOL   H22018346   5.951   1.366   4.265 -1.9300 -0.8676 -0.4651
   54MOL   H22118347   6.155   1.128   4.314 -1.5519  0.7264  1.5969
   54MOL   H22218348   6.138   1.290   4.378 -0.8472 -1.7479  0.8816
   54MOL   C22318349   6.335   1.219   4.387 -0.0062  0.0509 -0.9498
   54MOL   C22418350   6.426   1.110   4.331  0.2007  0.4397  0.3967
   54MOL   C22518351   6.415   0.973   4.384 -0.6490 -0.6526  0.3344
   54MOL   C22618352   6.497   0.868   4.337  0.0906  0.5650 -0.1202
   54MOL   C22718353   6.584   0.890   4.232 -0.8913  0.3374  0.2845
   54MOL   O22818354   6.660   0.786   4.195 -0.8480 -0.4593 -0.2993
   54MOL   C22918355   6.599   1.019   4.179  0.3616 -0.0946 -0.0183
   54MOL   C23018356   6.519   1.121   4.229  0.2196 -0.5361 -0.6488
   54MOL   C23118357   6.336   1.224   4.547 -0.8120 -0.1040 -0.4710
   54MOL   H23218358   6.386   1.312   4.362 -1.2372  0.8560 -0.4595
   54MOL   H23318359   6.347   0.951   4.465 -0.7687 -1.1240  0.1095
   54MOL   H23418360   6.482   0.769   4.380 -1.7596  0.9807  0.2426
   54MOL   H23518361   6.721   0.795   4.123 -2.6098  1.2295 -1.6053
   54MOL   H23618362   6.674   1.042   4.104 -0.3977  0.3218 -0.6512
   54MOL   H23718363   6.524   1.219   4.183  0.6167 -0.7958 -1.1720
   54MOL   H23818364   6.239   1.193   4.586 -0.3512 -0.4526  0.4164
   54MOL   H23918365   6.413   1.153   4.578  1.8838  2.3887 -1.2038
   54MOL   C24018366   6.379   1.353   4.612  0.3682 -0.2402 -0.6458
   54MOL   C24118367   6.292   1.468   4.573  0.3130 -0.3668 -0.3517
   54MOL   C24218368   6.156   1.468   4.600  0.7682  0.2063 -0.1814
   54MOL   C24318369   6.079   1.584   4.574 -0.2318 -0.2284  0.5576
   54MOL   C24418370   6.139   1.689   4.500 -0.0477  0.6004 -0.4623
   54MOL   O24518371   6.056   1.787   4.454  0.1393  0.2210  0.1455
   54MOL   C24618372   6.275   1.696   4.487  0.2979 -0.1805  0.0407
   54MOL   C24718373   6.354   1.587   4.522 -0.1842  0.2421 -0.6221
   54MOL   C24818374   6.408   1.352   4.761 -0.0415  0.2694 -0.2171
   54MOL   H24918375   6.475   1.373   4.565 -0.7759 -0.4017 -3.1141
   54MOL   H25018376   6.105   1.383   4.643  1.8074 -0.3927 -0.1153
   54MOL   H25118377   5.974   1.581   4.598 -0.1418 -0.5072  0.9308
   54MOL   H25218378   5.973   1.803   4.497  0.8082  4.2729  0.1679
   54MOL   H25318379   6.322   1.782   4.443 -0.4031 -0.6676 -1.7054
   54MOL   H25418380   6.461   1.583   4.509 -0.2871 -2.8266 -0.8449
   54MOL   H25518381   6.498   1.299   4.792 -1.5223 -1.2358  1.6670
   54MOL   H25618382   6.439   1.454   4.785  0.2590 -0.2075  1.5084
   54MOL   C25718383   6.302   1.300   4.864  0.7055 -0.4440 -0.9834
   54MOL   C25818384   6.277   1.149   4.869 -0.2144 -0.5837  0.1480
   54MOL   C25918385   6.151   1.090   4.894 -0.2289 -0.6468 -0.5833
   54MOL   C26018386   6.130   0.952   4.864  0.1899 -0.0982  0.4606
   54MOL   C26118387   6.234   0.874   4.828 -0.0572  0.0160 -0.2082
   54MOL   O26218388   6.208   0.745   4.788  0.2256 -0.3580  0.2640
   54MOL   C26318389   6.362   0.929   4.817  0.3938 -0.3559 -0.1514
   54MOL   C26418390   6.384   1.061   4.841 -0.1877  0.1908 -0.7103
   54MOL   C26518391   6.339   1.344   5.004 -0.4492 -0.2864 -0.3806
   54MOL   H26618392   6.203   1.334   4.831  0.5098  0.7714  0.7880
   54MOL   H26718393   6.062   1.149   4.911  1.0227  1.4692 -1.1338
   54MOL   H26818394   6.029   0.914   4.857  0.5853 -1.2581  1.0956
   54MOL   H26918395   6.282   0.717   4.736  1.4056  1.3478  0.9854
   54MOL   H27018396   6.451   0.871   4.794  0.9710  1.2147 -2.1062
   54MOL   H27118397   6.486   1.093   4.829  0.0001  0.2814  1.0137
   54MOL   H27218398   6.442   1.317   5.027 -0.4573  0.5459  0.6756
   54MOL   H27318399   6.273   1.290   5.073  0.4756 -0.8939  0.0449
   54MOL   C27418400   6.306   1.499   5.041  0.0531  0.2012  0.2579
   54MOL   C27518401   6.398   1.601   4.975  0.0773 -0.2029  0.3724
   54MOL   C27618402   6.534   1.586   4.991 -0.3651  0.6989 -0.0356
   54MOL   C27718403   6.618   1.681   4.927 -0.2335 -1.2463 -0.6149
   54MOL   C27818404   6.562   1.790   4.852  0.4342  0.3180  0.3535
   54MOL   O27918405   6.635   1.888   4.791 -0.0590  0.0146  0.3456
   54MOL   C28018406   6.423   1.797   4.838 -0.5099  0.2400  0.2328
   54MOL   C28118407   6.343   1.712   4.910  0.5859  0.6412  0.1919
   54MOL   C28218408   6.319   1.521   5.199  0.8271  0.7268  0.8917
   54MOL   H28318409   6.207   1.519   5.000 -0.0751  0.0596  0.4981
   54MOL   H28418410   6.580   1.503   5.043  0.0970  0.6199 -0.5587
   54MOL   H28518411   6.724   1.667   4.941 -0.6094 -0.8476  3.0806
   54MOL   H28618412   6.587   1.956   4.748  1.3296  1.1148  0.4884
   54MOL   H28718413   6.378   1.876   4.779  1.3167  0.7793 -0.4900
   54MOL   H28818414   6.239   1.733   4.894  0.0209 -1.9324  0.1335
   54MOL   H28918415   6.407   1.466   5.232  1.4225  0.2172 -1.4319
   54MOL   H29018416   6.337   1.626   5.220 -1.4232  1.1575  0.8069
   54MOL   C29118417   6.181   1.487   5.276 -0.2174 -0.0862  0.2994
   54MOL   C29218418   6.063   1.569   5.226  0.3267 -0.3029  0.0595
   54MOL   C29318419   5.938   1.511   5.213 -0.0988  0.0714 -0.4017
   54MOL   C29418420   5.824   1.582   5.176  0.3108  0.1368  0.3167
   54MOL   C29518421   5.836   1.723   5.155  0.7340  0.2044 -0.7956
   54MOL   O29618422   5.731   1.793   5.107 -0.3107  0.4784 -0.1264
   54MOL   C29718423   5.957   1.784   5.164 -0.1220 -0.4431  0.5627
   54MOL   C29818424   6.068   1.711   5.213 -0.7660 -0.0610  0.5040
   54MOL   C29918425   6.196   1.509   5.427 -0.6775 -0.3822  0.2009
   54MOL   H30018426   6.144   1.386   5.257  0.7829 -0.0602 -1.9677
   54MOL   H30118427   5.933   1.404   5.226 -0.3233  0.4429  2.8414
   54MOL   H30218428   5.734   1.530   5.145  1.0297 -0.1315 -1.3690
   54MOL   H30318429   5.759   1.861   5.048  1.2950  1.5515  1.7889
   54MOL   H30418430   5.966   1.890   5.145 -1.4096 -0.4086  0.0486
   54MOL   H30518431   6.162   1.759   5.236  0.1961 -0.6663 -2.0549
   54MOL   H30618432   6.096   1.520   5.470 -0.5132  1.3699  0.1370
   54MOL   H30718433   6.248   1.602   5.446 -0.0437 -1.0145  1.6069
   54MOL   C30818434   6.280   1.400   5.507 -0.0765 -0.4485  0.7374
   54MOL   C30918435   6.202   1.272   5.536  0.2109  0.6937 -0.1799
   54MOL   C31018436   6.124   1.252   5.659 -0.2350 -0.2938  0.0067
   54MOL   C31118437   6.073   1.122   5.676 -0.2857  0.2679  0.2516
   54MOL   C31218438   6.065   1.023   5.575  0.4470 -0.9020  0.7128
   54MOL   O31318439   6.002   0.900   5.593  0.0910 -0.3795  0.6038
   54MOL   C31418440   6.116   1.052   5.448 -0.5327 -0.4603 -0.8360
   54MOL   C31518441   6.198   1.171   5.435  0.3067 -0.1404  0.3395
   54MOL   C31618442   6.348   1.465   5.631  0.4989 -0.2689 -0.4420
   54MOL   H31718443   6.363   1.376   5.440  1.2324 -0.0340  2.1795
   54MOL   H31818444   6.130   1.326   5.739 -0.6859 -0.7712  0.4868
   54MOL   H31918445   6.024   1.103   5.771  0.0123  1.6206  0.6806
   54MOL   H32018446   6.004   0.872   5.684  1.8726 -1.4321  0.2608
   54MOL   H32118447   6.103   0.974   5.374  0.8220 -0.4754 -1.0724
   54MOL   H32218448   6.254   1.184   5.344  0.3580  1.5782  0.5851
   54MOL   H32318449   6.269   1.480   5.704 -1.2810  1.5342 -2.6992
   54MOL   H32418450   6.386   1.567   5.625  1.5221 -0.5012  1.5387
   54MOL   C32518451   6.453   1.377   5.710  0.0576 -0.1565  0.0719
   54MOL   C32618452   6.469   1.418   5.856 -0.2239 -0.1641  0.0182
   54MOL   C32718453   6.524   1.541   5.898 -0.1498  0.0910 -0.0245
   54MOL   C32818454   6.526   1.566   6.032  0.3145 -0.1514 -0.0012
   54MOL   C32918455   6.459   1.484   6.125 -0.0119 -0.1207 -0.3334
   54MOL   O33018456   6.466   1.524   6.247  0.0737  0.7132  0.4481
   54MOL   C33118457   6.394   1.368   6.084  0.1179 -0.8108 -0.5721
   54MOL   C33218458   6.402   1.334   5.949  0.0453  0.2038  0.0378
   54MOL   C33318459   6.594   1.372   5.636 -0.2299  0.1357  0.0848
   54MOL   H33418460   6.414   1.276   5.707  0.2677 -0.1893 -1.7492
   54MOL   H33518461   6.561   1.622   5.836 -0.8031  0.5069  0.1195
   54MOL   H33618462   6.572   1.655   6.073  0.8932 -1.0113  1.2763
   54MOL   H33718463   6.436   1.470   6.319  2.5110 -1.4642 -0.1173
   54MOL   H33818464   6.335   1.319   6.160 -2.6945  1.2748 -1.3327
   54MOL   H33918465   6.339   1.251   5.920 -2.7913  2.7591 -1.3782
   54MOL   H34018466   6.584   1.326   5.537 -0.5577  0.3759  0.0082
   54MOL   H34118467   6.656   1.300   5.691  0.7256  0.4392 -0.5725
   54MOL   H34218468   6.659   1.460   5.636 -0.9024  0.6565 -2.3544
   55MOL     C118469   2.916   1.897   5.889  0.2486  0.3151 -0.3197
   55MOL     C218470   2.847   1.786   5.816  0.4916 -0.1628 -0.5289
   55MOL     C318471   2.732   1.807   5.731  0.4514 -0.9825  0.1963
   55MOL     C418472   2.655   1.693   5.689 -0.0330 -0.4061  0.6629
   55MOL     C518473   2.710   1.565   5.713  0.7073 -0.0429 -0.1719
   55MOL     O618474   2.655   1.459   5.653 -0.0580 -0.1590 -0.1396
   55MOL     C718475   2.826   1.543   5.793  0.0523 -0.2180 -0.1951
   55MOL     C818476   2.884   1.658   5.848 -0.3176  0.3451 -0.1996
   55MOL     C918477   2.923   1.904   6.043  0.2048 -0.4089  0.0057
   55MOL    H1018478   3.018   1.885   5.850  0.4155 -1.6172  0.6711
   55MOL    H1118479   2.681   1.901   5.719  0.6460 -0.7494  1.1840
   55MOL    H1218480   2.565   1.703   5.630  1.1517  1.4046 -0.8797
   55MOL    H1318481   2.618   1.471   5.567 -1.1027 -0.0935  0.3150
   55MOL    H1418482   2.864   1.445   5.819 -1.1772 -0.3628  1.1568
   55MOL    H1518483   2.973   1.648   5.907 -1.4682  1.0710  1.7096
   55MOL    H1618484   2.979   1.998   6.046  0.7822 -0.7805  1.6485
   55MOL    H1718485   3.001   1.832   6.069 -0.0403 -1.0096 -0.8863
   55MOL    H1818486   2.877   1.990   5.848  2.0482  1.5753  0.7042
   55MOL    C1918487   2.795   1.911   6.129 -0.5938 -0.1317 -0.1751
   55MOL    C2018488   2.685   1.986   6.057 -0.2652  0.2189 -0.0422
   55MOL    C2118489   2.690   2.129   6.035 -0.2952  0.1927  1.0957
   55MOL    C2218490   2.596   2.206   5.958 -0.3113 -0.1895 -0.4020
   55MOL    C2318491   2.507   2.125   5.894 -0.5805  0.2152 -0.0447
   55MOL    O2418492   2.420   2.185   5.809 -0.3425 -0.0909  0.0474
   55MOL    C2518493   2.491   1.986   5.911 -0.0398 -0.9681 -0.1875
   55MOL    C2618494   2.580   1.916   5.992  0.2302 -0.1429  0.0363
   55MOL    C2718495   2.831   1.959   6.270 -0.5529  0.3119 -0.7031
   55MOL    H2818496   2.755   1.812   6.150 -0.2105 -0.3720 -0.5675
   55MOL    H2918497   2.781   2.178   6.068  0.9875  0.1376 -2.1471
   55MOL    H3018498   2.618   2.310   5.937  1.6675 -0.9722 -2.3411
   55MOL    H3118499   2.462   2.266   5.784  3.1403 -1.1076  2.3160
   55MOL    H3218500   2.418   1.932   5.853  1.5069 -2.8580 -0.4119
   55MOL    H3318501   2.587   1.808   5.996  0.9540 -0.2243 -2.5498
   55MOL    H3418502   2.732   1.973   6.315 -0.4484 -2.4145  0.4428
   55MOL    H3518503   2.862   2.063   6.280  0.0698  0.0979 -0.3555
   55MOL    C3618504   2.907   1.861   6.358  0.2227  0.5143 -0.4741
   55MOL    C3718505   2.866   1.885   6.501  0.5321  0.1338 -0.0855
   55MOL    C3818506   2.860   2.011   6.563 -0.0158  0.7519  0.3809
   55MOL    C3918507   2.835   2.026   6.698 -0.0047  0.3250 -0.0637
   55MOL    C4018508   2.784   1.920   6.772  0.8237  0.1584 -0.4441
   55MOL    O4118509   2.753   1.941   6.899 -0.3094  0.0820  0.1812
   55MOL    C4218510   2.773   1.794   6.709  0.4744 -0.3251  0.0231
   55MOL    C4318511   2.817   1.776   6.577  1.1834 -0.1016  0.3991
   55MOL    C4418512   3.063   1.886   6.342  0.1797 -0.0939 -0.1484
   55MOL    H4518513   2.873   1.762   6.325 -0.7884  1.1087 -1.2365
   55MOL    H4618514   2.890   2.094   6.500 -0.3698  0.4345 -0.2071
   55MOL    H4718515   2.845   2.128   6.732  1.2027 -0.0184  0.6319
   55MOL    H4818516   2.737   2.034   6.911  2.7632  0.3916  2.2472
   55MOL    H4918517   2.733   1.715   6.771  2.9977 -0.0872  2.0296
   55MOL    H5018518   2.801   1.685   6.520  0.9739  1.2805 -1.8176
   55MOL    H5118519   3.097   1.900   6.239  0.5601  2.3081  0.2783
   55MOL    H5218520   3.077   1.973   6.406  1.0314 -0.8747  0.7532
   55MOL    C5318521   3.140   1.768   6.412 -0.0620  0.1117 -0.0372
   55MOL    C5418522   3.171   1.654   6.311 -0.8487  0.3087 -0.5681
   55MOL    C5518523   3.213   1.675   6.178 -0.2196  0.0582 -0.6315
   55MOL    C5618524   3.242   1.564   6.095 -0.1399 -0.4020 -0.1922
   55MOL    C5718525   3.219   1.433   6.140  0.3959 -0.2335 -0.3653
   55MOL    O5818526   3.229   1.331   6.054 -0.0326 -0.0251 -0.4849
   55MOL    C5918527   3.173   1.413   6.268 -0.0346 -0.1168 -0.2091
   55MOL    C6018528   3.156   1.520   6.358 -0.1433 -0.3352 -0.5370
   55MOL    C6118529   3.272   1.824   6.479  0.1308 -0.3653  0.1480
   55MOL    H6218530   3.069   1.723   6.481 -0.1545  0.2713 -0.0307
   55MOL    H6318531   3.212   1.770   6.128 -1.7903 -0.1480 -1.0146
   55MOL    H6418532   3.293   1.580   6.002  1.6592  1.4109  1.0700
   55MOL    H6518533   3.271   1.354   5.973 -1.9874  0.8981 -1.2762
   55MOL    H6618534   3.160   1.310   6.296 -1.8259  0.1081 -0.1498
   55MOL    H6718535   3.126   1.505   6.461 -0.3623  2.2715 -0.1707
   55MOL    H6818536   3.249   1.917   6.531  0.2259  1.0893 -2.3427
   55MOL    H6918537   3.343   1.858   6.404  2.6685 -0.0397  2.5780
   55MOL    C7018538   3.343   1.726   6.568 -0.3773 -0.0581  0.4315
   55MOL    C7118539   3.258   1.686   6.689 -0.1628 -0.1058 -0.3079
   55MOL    C7218540   3.219   1.790   6.777 -0.6647  0.1640  0.3793
   55MOL    C7318541   3.156   1.758   6.898  0.9536  0.2881  0.3772
   55MOL    C7418542   3.133   1.624   6.943  0.2937  0.6347  0.2258
   55MOL    O7518543   3.065   1.583   7.054 -0.2135 -0.3989 -0.2288
   55MOL    C7618544   3.188   1.529   6.851  0.1315  0.2619 -0.9374
   55MOL    C7718545   3.240   1.555   6.725 -0.3138 -0.9359 -0.5354
   55MOL    C7818546   3.484   1.780   6.611 -0.4122 -0.1315  0.7583
   55MOL    H7918547   3.358   1.639   6.504 -0.4667 -1.7927  2.6797
   55MOL    H8018548   3.245   1.893   6.756  0.7723 -0.2388  0.1607
   55MOL    H8118549   3.116   1.834   6.963  0.5850  0.7222 -0.3474
   55MOL    H8218550   2.976   1.615   7.066 -0.2746 -0.0507 -1.5772
   55MOL    H8318551   3.193   1.427   6.887  0.7005  0.9019  0.8699
   55MOL    H8418552   3.285   1.474   6.670  0.4251 -1.5271  0.9338
   55MOL    H8518553   3.477   1.885   6.639  1.1661  0.3945 -0.7281
   55MOL    H8618554   3.545   1.780   6.520 -1.3136  2.4847  0.1164
   55MOL    C8718555   3.567   1.700   6.714  0.5637 -0.5263 -0.2428
   55MOL    C8818556   3.549   1.745   6.855 -0.1736 -0.1704  0.3685
   55MOL    C8918557   3.502   1.658   6.951  0.3497  0.2003 -0.2167
   55MOL    C9018558   3.501   1.695   7.085  0.1446 -0.8902  0.7330
   55MOL    C9118559   3.552   1.820   7.129  0.0510  0.5625  0.4403
   55MOL    O9218560   3.564   1.844   7.262 -0.1086 -0.6947  0.8312
   55MOL    C9318561   3.593   1.913   7.034  0.6544  0.0285 -0.4850
   55MOL    C9418562   3.588   1.875   6.899 -0.6149  0.0905  0.4665
   55MOL    C9518563   3.714   1.671   6.685 -1.1085  0.7536 -0.6359
   55MOL    H9618564   3.530   1.598   6.700  0.1773 -0.2325 -1.4606
   55MOL    H9718565   3.473   1.559   6.919  1.0632  0.1763 -0.7812
   55MOL    H9818566   3.466   1.630   7.163  2.4782 -1.1353  1.5936
   55MOL    H9918567   3.509   1.792   7.319 -0.3557 -0.7985  0.5016
   55MOL   H10018568   3.639   2.007   7.057  1.2003 -0.7804  1.8914
   55MOL   H10118569   3.626   1.940   6.821 -0.5504 -1.1525 -0.5591
   55MOL   H10218570   3.755   1.772   6.690 -0.3443  0.3934  0.6083
   55MOL   H10318571   3.756   1.609   6.763  0.9997  2.0221 -0.7127
   55MOL   C10418572   3.759   1.595   6.555 -0.1640  0.0823 -0.1129
   55MOL   C10518573   3.680   1.471   6.540  0.7029 -0.3063  0.3563
   55MOL   C10618574   3.704   1.357   6.622  0.4248 -0.6636  0.0202
   55MOL   C10718575   3.633   1.236   6.604 -0.0396 -0.3085  0.1192
   55MOL   C10818576   3.531   1.225   6.503 -0.7756  0.3315  0.0083
   55MOL   O10918577   3.452   1.114   6.492 -0.0506 -1.0881  0.5394
   55MOL   C11018578   3.512   1.338   6.419 -0.3459  0.7597 -0.7659
   55MOL   C11118579   3.578   1.459   6.439  0.0366  0.2441  0.7076
   55MOL   C11218580   3.910   1.565   6.548  0.3183 -0.2696  0.1963
   55MOL   H11318581   3.754   1.658   6.466  0.2914 -2.7733 -2.2241
   55MOL   H11418582   3.787   1.362   6.691 -0.9645  1.6326  1.5658
   55MOL   H11518583   3.653   1.155   6.672 -4.1651 -2.4844 -1.1179
   55MOL   H11618584   3.434   1.096   6.401 -0.1440 -0.3337  0.4079
   55MOL   H11718585   3.444   1.318   6.337 -0.3885  1.0436 -0.8007
   55MOL   H11818586   3.560   1.535   6.365 -0.7635  0.0265  0.6667
   55MOL   H11918587   3.926   1.458   6.548 -0.7563 -0.6561  6.6752
   55MOL   H12018588   3.954   1.592   6.644 -1.3395 -1.0600  1.2065
   55MOL   C12118589   3.995   1.641   6.437 -0.2930  0.5211 -0.8795
   55MOL   C12218590   4.143   1.657   6.481 -0.2605  0.0749 -0.2525
   55MOL   C12318591   4.213   1.545   6.522  0.5340 -0.2295  0.5140
   55MOL   C12418592   4.356   1.554   6.540  0.6662  0.0594 -0.1981
   55MOL   C12518593   4.421   1.683   6.536  0.3192  0.5062 -0.2069
   55MOL   O12618594   4.552   1.693   6.558 -0.0003 -0.2738  0.2139
   55MOL   C12718595   4.348   1.794   6.507  0.2271 -0.1417  0.4613
   55MOL   C12818596   4.213   1.776   6.474  0.5951  0.0862 -0.9317
   55MOL   C12918597   3.971   1.567   6.302  0.3617 -0.2905 -0.5374
   55MOL   H13018598   3.960   1.744   6.434  0.3046  0.7524 -0.1606
   55MOL   H13118599   4.168   1.447   6.520  1.8311 -0.8482  0.8881
   55MOL   H13218600   4.405   1.463   6.570 -1.5393 -1.1979 -0.3810
   55MOL   H13318601   4.593   1.630   6.614  1.3648  1.7703  1.5705
   55MOL   H13418602   4.394   1.891   6.511 -0.6726  0.5490 -3.5431
   55MOL   H13518603   4.146   1.858   6.455  0.4915  0.4241  0.7476
   55MOL   H13618604   3.873   1.520   6.314 -0.0217  1.1223  1.9662
   55MOL   H13718605   4.035   1.479   6.297  2.6301  1.3373 -0.7239
   55MOL   C13818606   3.977   1.657   6.178  0.6473 -0.3621 -0.4701
   55MOL   C13918607   3.847   1.731   6.160 -0.2052 -0.1418 -0.3243
   55MOL   C14018608   3.737   1.662   6.109 -0.1414  0.0129  0.4819
   55MOL   C14118609   3.611   1.722   6.109 -0.2400 -0.2427 -0.2425
   55MOL   C14218610   3.590   1.855   6.150 -0.1651 -0.3854 -0.6124
   55MOL   O14318611   3.468   1.913   6.159 -0.1040  0.0899 -0.8819
   55MOL   C14418612   3.701   1.924   6.209  0.2219  0.1292  0.0407
   55MOL   C14518613   3.832   1.866   6.207  0.4486  0.3609  0.1757
   55MOL   C14618614   4.008   1.573   6.047 -0.2481  0.5173  0.2368
   55MOL   H14718615   4.058   1.730   6.185 -0.5729  1.0109 -0.3881
   55MOL   H14818616   3.743   1.559   6.077  2.5273  0.8989 -2.0977
   55MOL   H14918617   3.521   1.673   6.076 -0.6417  0.5252 -0.3084
   55MOL   H15018618   3.421   1.898   6.078  0.1042 -0.1944 -0.9504
   55MOL   H15118619   3.682   2.023   6.245  0.2973 -0.1546  0.8582
   55MOL   H15218620   3.914   1.921   6.251 -0.5356  2.5004 -0.6216
   55MOL   H15318621   3.997   1.628   5.954  0.0030 -1.1884 -0.8360
   55MOL   H15418622   3.952   1.479   6.042  1.4423 -0.5590  1.0403
   55MOL   C15518623   4.152   1.520   6.034 -0.7868  0.0722  0.3834
   55MOL   C15618624   4.266   1.630   6.034  0.6615 -0.1419 -0.0134
   55MOL   C15718625   4.359   1.632   6.139  0.2514 -0.4342 -0.0433
   55MOL   C15818626   4.477   1.709   6.131  0.0828 -0.1822  0.3038
   55MOL   C15918627   4.498   1.794   6.022 -0.7768  0.2337 -0.3482
   55MOL   O16018628   4.615   1.870   6.026  0.0810  0.2632 -0.8492
   55MOL   C16118629   4.413   1.789   5.910  1.1444 -0.2998 -0.0905
   55MOL   C16218630   4.300   1.702   5.921  0.1926  0.1126  0.3482
   55MOL   C16318631   4.165   1.424   5.914 -0.5491  0.1276 -0.5772
   55MOL   H16418632   4.176   1.459   6.122 -3.3787 -0.3037  0.8747
   55MOL   H16518633   4.340   1.583   6.233 -0.6234  0.0925  0.0612
   55MOL   H16618634   4.546   1.714   6.214  4.0715  3.2805 -2.9320
   55MOL   H16718635   4.612   1.943   5.966 -1.3906  0.5057 -0.5108
   55MOL   H16818636   4.411   1.848   5.820  1.8486  2.4509  1.6250
   55MOL   H16918637   4.239   1.697   5.832  1.3771 -0.9548 -0.4230
   55MOL   H17018638   4.145   1.492   5.831 -1.4504  1.2855  0.5559
   55MOL   H17118639   4.081   1.355   5.918 -1.4621  1.2746  0.9554
   55MOL   C17218640   4.301   1.368   5.881  0.2059 -0.4333 -0.2772
   55MOL   C17318641   4.286   1.288   5.744 -0.3657 -0.7356 -0.3614
   55MOL   C17418642   4.367   1.331   5.637 -0.5588  0.0998  0.7205
   55MOL   C17518643   4.347   1.270   5.509  0.3290  0.1117 -0.2042
   55MOL   C17618644   4.263   1.157   5.493  0.3458  0.1903  0.1214
   55MOL   O17718645   4.252   1.106   5.369  0.1965  0.2576  0.2858
   55MOL   C17818646   4.188   1.113   5.607  0.1400  0.4409 -0.3168
   55MOL   C17918647   4.201   1.178   5.730  0.1051  0.1888 -0.0541
   55MOL   C18018648   4.385   1.293   5.992 -0.1244 -0.3170 -0.2103
   55MOL   H18118649   4.367   1.451   5.855 -0.0652  0.5507  2.0920
   55MOL   H18218650   4.439   1.412   5.635 -1.3801  0.7901 -1.5862
   55MOL   H18318651   4.417   1.309   5.437  1.6015 -1.8310 -0.0323
   55MOL   H18418652   4.281   1.165   5.301  0.6745  0.5282  0.7157
   55MOL   H18518653   4.132   1.021   5.602  0.1645  0.4155 -0.1438
   55MOL   H18618654   4.144   1.148   5.816 -1.7649 -1.5920 -1.8503
   55MOL   H18718655   4.432   1.369   6.054  1.8737  1.8484 -4.1930
   55MOL   H18818656   4.463   1.240   5.936  0.3596 -1.5328  1.5868
   55MOL   C18918657   4.316   1.171   6.065 -0.4924 -0.8325 -0.8414
   55MOL   C19018658   4.421   1.073   6.110  0.5635  0.3992  0.2562
   55MOL   C19118659   4.434   0.944   6.056  0.3103  0.9687 -0.3872
   55MOL   C19218660   4.531   0.858   6.112 -0.3027  0.1296  0.1011
   55MOL   C19318661   4.614   0.899   6.224  0.0814 -0.0695  0.1352
   55MOL   O19418662   4.702   0.809   6.272 -0.5059 -0.2997 -0.1380
   55MOL   C19518663   4.603   1.034   6.269  0.7196  0.1180 -0.0683
   55MOL   C19618664   4.508   1.116   6.212  0.4452 -0.2155 -0.1716
   55MOL   C19718665   4.225   1.213   6.184  0.1771 -0.0040 -0.2075
   55MOL   H19818666   4.254   1.115   5.995  0.0222 -0.6614 -1.4386
   55MOL   H19918667   4.373   0.907   5.975  0.0152  1.7269 -0.5160
   55MOL   H20018668   4.542   0.760   6.069 -0.3029  0.6650 -1.1618
   55MOL   H20118669   4.689   0.730   6.222 -0.9453  0.7090 -1.6526
   55MOL   H20218670   4.671   1.070   6.345 -0.5182  2.6644 -0.1437
   55MOL   H20318671   4.503   1.216   6.252  0.7684 -0.7249  1.1580
   55MOL   H20418672   4.124   1.247   6.160  0.6954  1.8155  0.0848
   55MOL   H20518673   4.274   1.300   6.229 -0.4579  2.3486 -3.8429
   55MOL   C20618674   4.199   1.098   6.296  0.0851  0.7495  0.3427
   55MOL   C20718675   4.069   1.030   6.270  0.0441 -0.3530 -0.1947
   55MOL   C20818676   4.064   0.890   6.252  0.0828  0.3193  0.0877
   55MOL   C20918677   3.947   0.817   6.228 -0.0569 -0.2678  0.4078
   55MOL   C21018678   3.826   0.886   6.218  0.8363  0.6551 -0.3643
   55MOL   O21118679   3.705   0.826   6.205  0.3226  0.1470 -0.1459
   55MOL   C21218680   3.828   1.021   6.233  0.8435 -0.3183 -0.0509
   55MOL   C21318681   3.942   1.094   6.266 -0.0644  0.2275  0.6354
   55MOL   C21418682   4.202   1.148   6.436  0.0618  0.0638  0.6925
   55MOL   H21518683   4.273   1.020   6.277  0.1044  0.7664  0.3467
   55MOL   H21618684   4.153   0.831   6.266  0.3388  1.3471  3.0122
   55MOL   H21718685   3.952   0.711   6.206  1.3059 -0.6146  2.3135
   55MOL   H21818686   3.725   0.733   6.208 -0.6803 -0.0173  1.8358
   55MOL   H21918687   3.740   1.083   6.235  1.5476  0.8014 -1.8935
   55MOL   H22018688   3.938   1.201   6.281  1.0122  0.2076  1.1147
   55MOL   H22118689   4.111   1.200   6.464 -0.0050  0.3174  0.0081
   55MOL   H22218690   4.282   1.222   6.429  0.1698 -0.1023  0.1571
   55MOL   C22318691   4.226   1.038   6.541  0.3500 -0.2076  0.0354
   55MOL   C22418692   4.217   1.099   6.681 -0.4928  0.6344 -0.2476
   55MOL   C22518693   4.315   1.192   6.724 -0.6982  0.2777  0.1842
   55MOL   C22618694   4.327   1.230   6.861 -0.1639 -0.3079 -0.2457
   55MOL   C22718695   4.237   1.173   6.954  0.0658  0.2914 -0.0387
   55MOL   O22818696   4.251   1.194   7.087 -0.0610 -0.4906 -0.3632
   55MOL   C22918697   4.130   1.097   6.905  0.4375 -0.2575 -0.0950
   55MOL   C23018698   4.114   1.059   6.771 -0.2431 -1.1049 -0.1114
   55MOL   C23118699   4.369   0.977   6.527 -0.8872 -0.4006 -0.8447
   55MOL   H23218700   4.153   0.960   6.520 -0.7069  1.3153 -2.1318
   55MOL   H23318701   4.393   1.219   6.655 -1.3447 -0.0373 -0.6871
   55MOL   H23418702   4.414   1.286   6.891 -1.5486  1.9134 -0.2870
   55MOL   H23518703   4.199   1.146   7.150 -1.6879  1.7835  0.0777
   55MOL   H23618704   4.053   1.062   6.972 -0.8397  0.9454 -0.9185
   55MOL   H23718705   4.029   0.997   6.748 -0.0936 -1.1708 -0.4901
   55MOL   H23818706   4.399   0.953   6.426  2.7501  0.7369 -0.1019
   55MOL   H23918707   4.443   1.051   6.559 -0.0250 -1.6429  0.1025
   55MOL   C24018708   4.395   0.845   6.617  0.1553 -0.3536  0.1678
   55MOL   C24118709   4.300   0.739   6.571  0.0821  0.3074 -0.9956
   55MOL   C24218710   4.205   0.692   6.661 -0.2384 -0.2800 -0.1968
   55MOL   C24318711   4.105   0.599   6.627 -0.5516 -0.3457  0.4076
   55MOL   C24418712   4.105   0.556   6.495 -0.4747 -0.1910 -0.2586
   55MOL   O24518713   4.003   0.467   6.462  0.1430 -0.0690 -0.3222
   55MOL   C24618714   4.205   0.596   6.404  0.3002  0.6014  0.1044
   55MOL   C24718715   4.301   0.686   6.437  0.3234 -0.2391  0.2407
   55MOL   C24818716   4.541   0.793   6.604 -0.1082 -0.2517 -0.6020
   55MOL   H24918717   4.380   0.879   6.719  0.0769 -0.2765  0.1312
   55MOL   H25018718   4.193   0.741   6.757 -3.1089 -0.1615 -0.5479
   55MOL   H25118719   4.028   0.576   6.698 -2.2957  1.1993 -0.9441
   55MOL   H25218720   3.950   0.448   6.538 -0.3336  0.6733 -0.4681
   55MOL   H25318721   4.206   0.555   6.303 -1.0743  0.1597  0.2576
   55MOL   H25418722   4.384   0.715   6.374 -0.3824  2.4827  0.5160
   55MOL   H25518723   4.550   0.690   6.638  0.2531  0.1842  0.6333
   55MOL   H25618724   4.569   0.789   6.498  2.1964 -2.3227  0.0368
   55MOL   C25718725   4.638   0.890   6.686  0.2981  0.0149 -0.1509
   55MOL   C25818726   4.638   0.865   6.834 -0.2823 -0.0951 -0.2103
   55MOL   C25918727   4.585   0.963   6.921  0.0366 -0.1882  0.3144
   55MOL   C26018728   4.593   0.948   7.063  0.1263 -0.2844  0.3980
   55MOL   C26118729   4.659   0.842   7.116  0.8017  1.0819 -0.2066
   55MOL   O26218730   4.657   0.823   7.251 -1.3953 -0.2290  0.2003
   55MOL   C26318731   4.725   0.751   7.028 -0.7781 -0.0108  0.0234
   55MOL   C26418732   4.712   0.763   6.889  0.7765 -0.6258 -0.1766
   55MOL   C26518733   4.782   0.891   6.622 -0.3879  0.2753  0.5622
   55MOL   H26618734   4.603   0.991   6.667  1.3079  0.3748 -0.1235
   55MOL   H26718735   4.535   1.049   6.880  0.2947  0.2106  0.8338
   55MOL   H26818736   4.551   1.025   7.126 -1.4638  0.4348 -1.4921
   55MOL   H26918737   4.734   0.773   7.271 -0.7526  0.5511 -0.3009
   55MOL   H27018738   4.774   0.662   7.063  1.3344  1.7050  1.6459
   55MOL   H27118739   4.764   0.687   6.832  0.9984 -0.1285 -0.6483
   55MOL   H27218740   4.771   0.925   6.519 -0.6979  2.9476  1.4255
   55MOL   H27318741   4.816   0.789   6.604 -2.1730 -0.3402  0.5381
   55MOL   C27418742   4.899   0.983   6.682 -0.1277  0.3589 -0.0373
   55MOL   C27518743   4.856   1.131   6.681 -0.6879 -0.4352  0.2018
   55MOL   C27618744   4.831   1.204   6.563 -0.8473  0.5205 -0.0650
   55MOL   C27718745   4.775   1.326   6.564  0.0996  0.7389  0.0830
   55MOL   C27818746   4.737   1.380   6.686  0.0837 -0.1335  0.1845
   55MOL   O27918747   4.669   1.499   6.685  0.5923 -0.0787 -0.5953
   55MOL   C28018748   4.767   1.322   6.806  0.3689  0.6159 -0.0201
   55MOL   C28118749   4.834   1.199   6.802 -0.9412  0.0949 -0.1041
   55MOL   C28218750   5.037   0.969   6.615 -0.4839 -0.3336  0.0490
   55MOL   H28318751   4.912   0.956   6.787  0.0471  0.3392 -0.0652
   55MOL   H28418752   4.853   1.160   6.466 -1.6956  1.8582 -0.8748
   55MOL   H28518753   4.776   1.384   6.472  1.8424  0.2253 -0.2439
   55MOL   H28618754   4.647   1.545   6.765  0.5605 -0.3866 -0.4270
   55MOL   H28718755   4.737   1.369   6.898  3.0375 -0.9276  1.6825
   55MOL   H28818756   4.870   1.149   6.890 -1.3681 -1.8207 -0.9894
   55MOL   H28918757   5.023   0.997   6.511 -5.1473 -2.3069 -0.0000
   55MOL   H29018758   5.108   1.036   6.664 -0.6303 -1.7358  2.2808
   55MOL   C29118759   5.110   0.829   6.614 -0.2841 -0.1481  0.3807
   55MOL   C29218760   5.095   0.757   6.751  0.0805  0.1680  0.1741
   55MOL   C29318761   5.042   0.626   6.767  0.0709  0.5982  0.0565
   55MOL   C29418762   5.034   0.566   6.895  0.0588 -0.5816 -0.4385
   55MOL   C29518763   5.079   0.637   7.008  0.3626 -0.6569 -0.0524
   55MOL   O29618764   5.088   0.568   7.126 -0.3096 -0.1810  0.4753
   55MOL   C29718765   5.133   0.769   6.992  0.4721 -0.5330  0.4314
   55MOL   C29818766   5.136   0.829   6.867  0.0322 -0.1845 -0.7204
   55MOL   C29918767   5.265   0.839   6.582 -0.7183  0.0704  0.0840
   55MOL   H30018768   5.057   0.779   6.533  1.0560 -1.2131  0.1361
   55MOL   H30118769   5.010   0.565   6.684 -1.3241  0.0847  0.9480
   55MOL   H30218770   5.011   0.461   6.903  0.4499 -0.6553 -0.2543
   55MOL   H30318771   5.104   0.476   7.117 -1.1685 -0.2891 -0.0650
   55MOL   H30418772   5.173   0.822   7.076  0.3192  3.0376 -1.6522
   55MOL   H30518773   5.180   0.925   6.844 -0.3656  0.1589 -0.0551
   55MOL   H30618774   5.316   0.849   6.678  1.7728 -0.1804 -1.1492
   55MOL   H30718775   5.287   0.933   6.532 -2.5202  0.5207  0.0997
   55MOL   C30818776   5.327   0.701   6.532 -0.0781 -0.0020 -0.1078
   55MOL   C30918777   5.459   0.669   6.589  0.5312  0.5672 -0.4539
   55MOL   C31018778   5.489   0.548   6.660  0.5700  0.0496  0.4834
   55MOL   C31118779   5.621   0.519   6.696  0.2318 -0.3205  0.2125
   55MOL   C31218780   5.728   0.603   6.648  1.0648 -0.4927 -0.3492
   55MOL   O31318781   5.852   0.562   6.670 -0.0899  0.1693 -0.2291
   55MOL   C31418782   5.707   0.724   6.587  0.4492  0.2899  0.1070
   55MOL   C31518783   5.570   0.755   6.557 -0.4347 -0.5856  0.0107
   55MOL   C31618784   5.321   0.686   6.375 -0.6263 -0.6917 -0.6075
   55MOL   H31718785   5.264   0.627   6.581  0.0305  0.5883  0.9356
   55MOL   H31818786   5.409   0.480   6.687  0.0848  1.4112  2.6736
   55MOL   H31918787   5.638   0.417   6.727  0.7371 -0.7298 -1.3554
   55MOL   H32018788   5.857   0.497   6.738  1.1106  0.5248  0.0324
   55MOL   H32118789   5.797   0.782   6.573 -1.2116  2.7436 -0.8331
   55MOL   H32218790   5.549   0.847   6.505  2.5457  0.1824  0.0815
   55MOL   H32318791   5.378   0.597   6.349 -3.4486 -2.5527 -0.6101
   55MOL   H32418792   5.389   0.761   6.333 -0.6756 -0.4997 -0.3499
   55MOL   C32518793   5.185   0.663   6.302 -0.4155 -0.5616  0.3284
   55MOL   C32618794   5.103   0.545   6.358  0.6212 -0.3395  0.0768
   55MOL   C32718795   4.966   0.563   6.390  0.1921 -0.4299 -0.5263
   55MOL   C32818796   4.896   0.464   6.455  0.8892  0.4530 -0.3591
   55MOL   C32918797   4.958   0.343   6.494  0.4498 -0.1219  0.2009
   55MOL   O33018798   4.878   0.247   6.550  0.1784 -0.3813 -0.4108
   55MOL   C33118799   5.089   0.321   6.450 -0.2660 -0.0592  0.0838
   55MOL   C33218800   5.162   0.420   6.383  0.3775 -0.0835 -0.4984
   55MOL   C33318801   5.196   0.656   6.146  0.2200 -0.0909  0.1894
   55MOL   H33418802   5.121   0.752   6.310  0.8072  0.3675 -0.1020
   55MOL   H33518803   4.917   0.657   6.370  0.4849  0.3576  2.3194
   55MOL   H33618804   4.794   0.488   6.483 -0.0181 -2.9014 -0.5971
   55MOL   H33718805   4.789   0.271   6.530 -0.5473 -1.9727  0.8852
   55MOL   H33818806   5.128   0.222   6.466  0.4751  0.1328 -0.4820
   55MOL   H33918807   5.267   0.399   6.369 -0.2268 -1.8695 -2.5838
   55MOL   H34018808   5.240   0.560   6.119  0.6532  0.2227 -0.2376
   55MOL   H34118809   5.258   0.737   6.106  0.9888 -1.3115 -1.1170
   55MOL   H34218810   5.103   0.667   6.090  2.1619  2.4206 -2.7958
   56MOL     C118811   1.759   4.623   2.301 -0.8363 -0.1449 -0.4862
   56MOL     C218812   1.652   4.514   2.342  0.3350 -0.5043 -0.2452
   56MOL     C318813   1.527   4.499   2.274 -0.1828  0.3378  0.0480
   56MOL     C418814   1.431   4.417   2.331 -0.1434 -0.2580  0.1478
   56MOL     C518815   1.459   4.326   2.436 -0.0658 -0.4465 -0.1826
   56MOL     O618816   1.359   4.246   2.484  0.4144 -0.0733  0.0089
   56MOL     C718817   1.585   4.334   2.501  0.0499  0.1353  0.4926
   56MOL     C818818   1.684   4.425   2.449 -0.6348  0.7960  0.1288
   56MOL     C918819   1.759   4.741   2.398  0.1651  0.2230  0.0226
   56MOL    H1018820   1.855   4.570   2.298 -0.5770  0.2325  0.8104
   56MOL    H1118821   1.508   4.570   2.195 -1.5623  0.5681  0.5714
   56MOL    H1218822   1.332   4.424   2.290 -1.2733 -2.0528  2.4337
   56MOL    H1318823   1.295   4.220   2.419 -1.1611  2.9444  0.2266
   56MOL    H1418824   1.617   4.273   2.583  2.5072  0.8839  0.1180
   56MOL    H1518825   1.782   4.439   2.491  0.3775  0.2045 -2.0207
   56MOL    H1618826   1.855   4.793   2.387 -0.3330  1.2857  0.6046
   56MOL    H1718827   1.767   4.709   2.502 -0.6671 -1.6366 -0.4799
   56MOL    H1818828   1.744   4.654   2.197 -0.5945  0.8951 -0.2195
   56MOL    C1918829   1.649   4.844   2.391  0.2254 -0.6161  0.1199
   56MOL    C2018830   1.691   4.978   2.455  0.1501  0.2252  0.1483
   56MOL    C2118831   1.702   4.990   2.596 -0.3762 -0.3463  0.2457
   56MOL    C2218832   1.745   5.118   2.653 -0.5212 -0.1975 -0.2108
   56MOL    C2318833   1.789   5.226   2.572 -0.0877 -0.2640 -0.3713
   56MOL    O2418834   1.819   5.350   2.633 -0.0005  0.3066 -0.1228
   56MOL    C2518835   1.781   5.204   2.435 -0.5668  0.1177  0.2189
   56MOL    C2618836   1.732   5.082   2.381  0.3190  0.4260  0.1516
   56MOL    C2718837   1.518   4.796   2.465 -0.6721  0.2005 -0.3521
   56MOL    H2818838   1.640   4.851   2.283 -2.0687 -1.9410  0.1936
   56MOL    H2918839   1.696   4.902   2.658 -1.5844  0.5587  1.4466
   56MOL    H3018840   1.752   5.127   2.760 -0.0538 -2.9888  0.0512
   56MOL    H3118841   1.775   5.366   2.715  0.5634 -1.6376  0.5812
   56MOL    H3218842   1.807   5.290   2.374 -0.9539  0.3249  0.3466
   56MOL    H3318843   1.734   5.068   2.274  1.9887 -0.5670  0.2972
   56MOL    H3418844   1.548   4.772   2.568  0.3570  2.7376 -0.0146
   56MOL    H3518845   1.487   4.702   2.421  0.6094 -0.3131 -0.2077
   56MOL    C3618846   1.395   4.894   2.458  0.7149 -0.0709 -1.0381
   56MOL    C3718847   1.277   4.841   2.541 -0.0544 -0.4668  0.0068
   56MOL    C3818848   1.179   4.758   2.483  0.2131 -0.9403  0.0279
   56MOL    C3918849   1.071   4.723   2.563 -0.2244  0.4925 -0.2249
   56MOL    C4018850   1.046   4.776   2.692  0.0950 -0.2221  0.6987
   56MOL    O4118851   0.935   4.743   2.758  0.0497  0.3133  0.2316
   56MOL    C4218852   1.146   4.859   2.750 -0.5038 -0.1134  0.1087
   56MOL    C4318853   1.259   4.890   2.669  0.1842 -0.2408 -0.3284
   56MOL    C4418854   1.353   4.932   2.313 -0.2246 -0.1503 -0.3592
   56MOL    H4518855   1.433   4.983   2.509  1.5233 -1.5848  1.0649
   56MOL    H4618856   1.184   4.726   2.380 -1.4698  0.0460 -0.3733
   56MOL    H4718857   0.997   4.653   2.529  0.8326  0.3804 -2.3891
   56MOL    H4818858   0.867   4.720   2.696  0.6782  0.8609 -0.6685
   56MOL    H4918859   1.133   4.898   2.850  0.4018  0.8796 -0.1466
   56MOL    H5018860   1.333   4.957   2.711 -1.0603  1.1967 -0.4168
   56MOL    H5118861   1.440   4.985   2.275 -1.8093 -0.3931 -4.5884
   56MOL    H5218862   1.332   4.842   2.255 -1.2274 -0.1782  0.0360
   56MOL    C5318863   1.242   5.043   2.307  0.1836  0.0900  1.1549
   56MOL    C5418864   1.282   5.167   2.381  0.3988  0.6022  0.1447
   56MOL    C5518865   1.381   5.249   2.325 -0.0221  0.5698  0.2714
   56MOL    C5618866   1.435   5.354   2.404 -0.1908 -0.0562  0.0513
   56MOL    C5718867   1.380   5.396   2.522 -0.3852 -0.3695 -0.8381
   56MOL    O5818868   1.424   5.509   2.584 -0.1256 -0.3631 -0.0832
   56MOL    C5918869   1.281   5.322   2.576 -0.5193  0.0873 -1.1231
   56MOL    C6018870   1.228   5.206   2.504 -0.5606 -0.2513  0.5303
   56MOL    C6118871   1.210   5.074   2.159  0.1986 -0.9209  0.7443
   56MOL    H6218872   1.148   5.006   2.348  0.4475 -1.9977 -0.0686
   56MOL    H6318873   1.431   5.228   2.231 -2.0817  0.1845 -0.7809
   56MOL    H6418874   1.512   5.410   2.354  0.9099 -2.1556 -0.6498
   56MOL    H6518875   1.509   5.532   2.549  0.0214 -1.1946 -0.2910
   56MOL    H6618876   1.228   5.354   2.665  1.1835  1.9758 -0.7502
   56MOL    H6718877   1.147   5.148   2.544 -0.2946  0.6191  2.3703
   56MOL    H6818878   1.300   5.100   2.104 -1.9257  0.5394 -2.1999
   56MOL    H6918879   1.155   5.168   2.146  0.3316 -1.0700 -1.0369
   56MOL    C7018880   1.129   4.965   2.090 -0.7479  0.5650 -0.1256
   56MOL    C7118881   1.216   4.875   1.995 -0.1346 -0.1478 -0.1207
   56MOL    C7218882   1.221   4.731   2.009  0.3078 -0.2812 -0.1521
   56MOL    C7318883   1.309   4.657   1.923 -0.7893  0.0187 -0.7987
   56MOL    C7418884   1.379   4.723   1.818  0.4458 -0.3384 -0.1459
   56MOL    O7518885   1.464   4.661   1.729  0.5663  0.2246  0.6444
   56MOL    C7618886   1.371   4.859   1.805 -0.1781 -0.1407 -0.4962
   56MOL    C7718887   1.281   4.936   1.885 -0.0963 -0.3750  0.5459
   56MOL    C7818888   1.001   5.007   2.026 -0.1473 -0.3318 -0.0519
   56MOL    H7918889   1.104   4.902   2.175  0.2999  1.6777  1.0530
   56MOL    H8018890   1.171   4.694   2.097  1.0591 -0.7176  0.0919
   56MOL    H8118891   1.310   4.550   1.939  2.0584  0.0010 -0.9343
   56MOL    H8218892   1.535   4.720   1.706  1.4195 -1.5997 -1.5142
   56MOL    H8318893   1.425   4.923   1.736  1.3781  0.2923  1.0622
   56MOL    H8418894   1.278   5.042   1.864 -2.7095 -0.3428  0.9780
   56MOL    H8518895   0.960   4.925   1.967  3.0351 -0.5936 -2.0095
   56MOL    H8618896   1.028   5.091   1.964 -0.9188  0.0224  0.0904
   56MOL    C8718897   0.884   5.046   2.125  0.3258  0.5782  0.1982
   56MOL    C8818898   0.863   4.947   2.241 -0.4213 -0.1676 -0.7808
   56MOL    C8918899   0.838   4.811   2.212 -0.0172 -0.5465 -0.2967
   56MOL    C9018900   0.795   4.732   2.320 -0.1346 -0.1272 -0.0457
   56MOL    C9118901   0.772   4.786   2.447 -0.2905 -0.1326  0.3430
   56MOL    O9218902   0.728   4.712   2.548  0.7088 -0.0879  0.5232
   56MOL    C9318903   0.809   4.918   2.472 -0.0486 -0.3317  0.3967
   56MOL    C9418904   0.851   4.997   2.370 -0.2284 -0.9207 -0.4405
   56MOL    C9518905   0.746   5.073   2.053 -0.0442  0.3824 -0.5097
   56MOL    H9618906   0.907   5.144   2.167  1.0723  0.1315  0.8556
   56MOL    H9718907   0.843   4.777   2.110  0.3650 -0.4317 -0.3150
   56MOL    H9818908   0.793   4.625   2.305 -2.2995  0.1057 -1.6252
   56MOL    H9918909   0.775   4.631   2.533  0.6703  0.1349 -0.8311
   56MOL   H10018910   0.790   4.953   2.572 -1.0742 -0.5277  0.2666
   56MOL   H10118911   0.869   5.100   2.398 -2.7562 -0.2332 -1.1806
   56MOL   H10218912   0.701   4.987   2.002 -0.8569  0.6557 -0.2598
   56MOL   H10318913   0.671   5.094   2.129  1.0427 -0.1587  0.7280
   56MOL   C10418914   0.738   5.198   1.960 -0.4402  0.0928 -0.2687
   56MOL   C10518915   0.737   5.335   2.034  0.2425  0.8142 -0.1140
   56MOL   C10618916   0.608   5.382   2.074  0.4694  0.5363 -0.1767
   56MOL   C10718917   0.595   5.507   2.144 -0.1660 -0.8268  0.3596
   56MOL   C10818918   0.714   5.581   2.177 -0.6896  0.0465  0.4360
   56MOL   O10918919   0.698   5.696   2.245  0.7766  0.1837  0.1008
   56MOL   C11018920   0.843   5.535   2.136  0.6744 -0.4213  0.0710
   56MOL   C11118921   0.855   5.417   2.058  0.4419 -0.6415  0.9753
   56MOL   C11218922   0.619   5.177   1.863 -0.0753 -0.2815  0.2160
   56MOL   H11318923   0.826   5.205   1.895 -0.6072  1.4857 -0.3487
   56MOL   H11418924   0.515   5.346   2.033 -1.1713  1.7953  2.3256
   56MOL   H11518925   0.494   5.537   2.169 -0.3792 -0.1748 -1.1883
   56MOL   H11618926   0.778   5.742   2.265  1.2827 -0.8923  0.5563
   56MOL   H11718927   0.930   5.592   2.167  1.3418 -1.4832  0.1825
   56MOL   H11818928   0.955   5.401   2.020  0.3371 -0.8344  0.7770
   56MOL   H11918929   0.598   5.269   1.809  0.1527  1.7148  3.4036
   56MOL   H12018930   0.526   5.167   1.919 -0.3722  2.8298  0.3609
   56MOL   C12118931   0.629   5.068   1.754  0.1577 -0.2137 -0.7569
   56MOL   C12218932   0.494   5.071   1.683 -0.4660 -0.0958 -0.1956
   56MOL   C12318933   0.408   4.962   1.694 -0.2594  0.5634 -0.0187
   56MOL   C12418934   0.291   4.959   1.619 -0.5826 -0.5718  0.3322
   56MOL   C12518935   0.254   5.062   1.530 -0.5117 -0.1502  0.0310
   56MOL   O12618936   0.143   5.063   1.455  0.0437 -0.3045  0.3378
   56MOL   C12718937   0.343   5.163   1.514  0.1365 -0.0343 -0.0138
   56MOL   C12818938   0.467   5.164   1.586 -0.3669  0.4106 -0.3208
   56MOL   C12918939   0.753   5.084   1.662 -0.0407 -0.6283  0.1242
   56MOL   H13018940   0.638   4.967   1.795  0.0607  0.5181  1.1442
   56MOL   H13118941   0.428   4.892   1.774  1.3024 -0.2376 -1.0718
   56MOL   H13218942   0.225   4.874   1.622 -2.7638  0.7406 -4.3207
   56MOL   H13318943   0.099   4.981   1.470  1.9117 -1.2496  0.8939
   56MOL   H13418944   0.316   5.241   1.444  0.3879 -0.9598 -1.1624
   56MOL   H13518945   0.533   5.246   1.565  0.4639  0.0148  0.6941
   56MOL   H13618946   0.837   5.084   1.731  0.7812  0.6358 -0.8445
   56MOL   H13718947   0.757   5.183   1.615  0.6153 -0.4780  0.4812
   56MOL   C13818948   0.792   4.980   1.555  0.0558 -0.4895 -0.7107
   56MOL   C13918949   0.942   4.983   1.532 -0.0217 -0.0884 -0.6008
   56MOL   C14018950   0.999   5.103   1.493  0.0145  0.0942 -0.1523
   56MOL   C14118951   1.140   5.116   1.477 -0.4560 -0.0322 -0.4173
   56MOL   C14218952   1.221   5.005   1.492 -0.0151 -0.4410 -0.7653
   56MOL   O14318953   1.357   5.017   1.476 -0.0150  0.6167 -0.3238
   56MOL   C14418954   1.163   4.879   1.532  0.2316  0.7423  0.0750
   56MOL   C14518955   1.024   4.871   1.554  0.3402  0.1823 -0.7036
   56MOL   C14618956   0.700   4.989   1.432 -0.8968  0.5496  0.7277
   56MOL   H14718957   0.785   4.887   1.612  0.0279  0.0905  0.2343
   56MOL   H14818958   0.939   5.192   1.478 -0.5841  0.0685  1.8525
   56MOL   H14918959   1.179   5.210   1.438 -2.0457  1.5365  1.6732
   56MOL   H15018960   1.402   4.935   1.462 -0.6910  0.1842  0.0010
   56MOL   H15118961   1.212   4.784   1.530 -0.5133  0.2002  3.3594
   56MOL   H15218962   0.990   4.771   1.576  1.0638  0.1927  0.5588
   56MOL   H15318963   0.665   5.090   1.410  1.3328  0.8684 -1.6653
   56MOL   H15418964   0.612   4.929   1.456 -1.1732  1.0451  0.9588
   56MOL   C15518965   0.754   4.939   1.298  0.2505 -0.1476  0.1222
   56MOL   C15618966   0.658   4.997   1.198  0.2164 -0.6206  0.6635
   56MOL   C15718967   0.707   5.101   1.115  0.2611  0.0683 -0.0595
   56MOL   C15818968   0.621   5.151   1.012 -0.2803 -0.2955 -0.0635
   56MOL   C15918969   0.491   5.115   1.008  0.2019 -0.2848 -0.5829
   56MOL   O16018970   0.404   5.156   0.915 -0.3998 -0.0429 -0.2829
   56MOL   C16118971   0.443   5.021   1.101  0.4651 -0.1670 -0.0222
   56MOL   C16218972   0.525   4.950   1.187  0.0985  0.0891  0.3539
   56MOL   C16318973   0.770   4.786   1.285  0.2657  0.2179 -0.2066
   56MOL   H16418974   0.854   4.981   1.288  0.8434 -1.2679  1.1342
   56MOL   H16518975   0.807   5.138   1.126  0.0490  1.1342 -1.5327
   56MOL   H16618976   0.651   5.224   0.938 -1.0695 -1.1579 -1.2453
   56MOL   H16718977   0.338   5.216   0.948  0.8516  1.5189 -0.5446
   56MOL   H16818978   0.342   4.985   1.091 -0.0548  0.8581  1.3705
   56MOL   H16918979   0.490   4.864   1.244 -0.6389  1.2354  1.6846
   56MOL   H17018980   0.677   4.728   1.289  1.4668 -1.8985 -2.0000
   56MOL   H17118981   0.832   4.746   1.365 -2.3490 -4.6794 -0.4283
   56MOL   C17218982   0.854   4.747   1.162  0.1102  1.4456 -0.1677
   56MOL   C17318983   0.854   4.594   1.163 -0.3168  0.4807  0.0493
   56MOL   C17418984   0.917   4.516   1.265 -0.2347  0.1857  0.5986
   56MOL   C17518985   0.934   4.378   1.253 -0.1130 -0.0078  0.1302
   56MOL   C17618986   0.901   4.315   1.129 -0.0369 -0.7028 -0.5245
   56MOL   O17718987   0.936   4.187   1.101  0.0461  0.0155  0.4352
   56MOL   C17818988   0.838   4.387   1.029 -0.4592  0.1682 -0.2548
   56MOL   C17918989   0.821   4.525   1.044  0.3138 -0.5136 -0.1252
   56MOL   C18018990   0.997   4.803   1.158 -0.4076 -0.2336  0.0164
   56MOL   H18118991   0.794   4.786   1.080  1.2920 -0.7558 -2.1377
   56MOL   H18218992   0.959   4.572   1.347 -0.2358  0.3205  0.5067
   56MOL   H18318993   0.990   4.321   1.327  0.8802 -0.4355 -0.9302
   56MOL   H18418994   0.921   4.122   1.168 -0.3965 -2.5020 -2.0247
   56MOL   H18518995   0.809   4.337   0.938 -1.8233  0.5595 -0.0411
   56MOL   H18618996   0.787   4.585   0.961  1.2898 -0.9510 -0.8496
   56MOL   H18718997   1.067   4.722   1.139  0.3242  0.4196 -0.0962
   56MOL   H18818998   1.022   4.847   1.255 -1.8995 -0.8697  0.6924
   56MOL   C18918999   1.025   4.907   1.053  0.1828 -0.5202 -0.6141
   56MOL   C19019000   1.144   4.994   1.097 -0.8752  0.1604 -0.4107
   56MOL   C19119001   1.126   5.121   1.161  0.0702 -0.2186 -0.0476
   56MOL   C19219002   1.235   5.199   1.195  0.4304 -0.1845 -0.3368
   56MOL   C19319003   1.358   5.158   1.157 -0.0833  0.4139  0.4733
   56MOL   O19419004   1.466   5.239   1.194  0.5639 -0.3335 -0.2401
   56MOL   C19519005   1.388   5.029   1.110 -0.4712  0.3976  0.6867
   56MOL   C19619006   1.278   4.951   1.075 -0.0927  0.4181 -0.0821
   56MOL   C19719007   1.021   4.866   0.912 -0.3447  0.1350  0.7651
   56MOL   H19819008   0.939   4.974   1.058  0.6162 -0.1284  2.2600
   56MOL   H19919009   1.025   5.156   1.179 -0.7280 -2.5601  0.2363
   56MOL   H20019010   1.214   5.290   1.248  2.5852  0.7496 -1.0470
   56MOL   H20119011   1.452   5.299   1.265 -0.9938 -1.6835  0.6067
   56MOL   H20219012   1.489   4.999   1.087 -1.3244 -1.4868 -0.6984
   56MOL   H20319013   1.294   4.853   1.031 -0.0529  0.3060  0.1817
   56MOL   H20419014   0.918   4.838   0.889  0.3170 -1.7752  0.0537
   56MOL   H20519015   1.079   4.774   0.909 -0.8207 -0.1578  0.5140
   56MOL   C20619016   1.065   4.961   0.795  0.7601 -0.0514  0.5000
   56MOL   C20719017   0.971   5.076   0.791 -0.4554 -0.1614 -0.4436
   56MOL   C20819018   0.858   5.078   0.702 -0.3530 -0.3165 -0.2652
   56MOL   C20919019   0.795   5.204   0.689  0.0558  0.3494  0.2819
   56MOL   C21019020   0.834   5.312   0.759 -0.3808 -0.6019 -0.1226
   56MOL   O21119021   0.769   5.434   0.747 -0.2073 -0.3857  0.3347
   56MOL   C21219022   0.939   5.307   0.849 -0.1033  0.6327  0.0760
   56MOL   C21319023   1.012   5.194   0.858  0.0373  0.1245  0.8677
   56MOL   C21419024   1.095   4.901   0.656 -0.2443  0.3707  0.1624
   56MOL   H21519025   1.163   5.005   0.816 -0.2305  0.9511  3.3360
   56MOL   H21619026   0.819   4.992   0.650 -2.0691 -0.2281  0.8474
   56MOL   H21719027   0.727   5.210   0.606 -3.1271  2.2127  2.9017
   56MOL   H21819028   0.739   5.446   0.658  0.8092  0.7165  0.1337
   56MOL   H21919029   0.959   5.405   0.890 -2.5569  1.0562  0.3672
   56MOL   H22019030   1.100   5.188   0.920 -0.0192 -2.4990  0.7830
   56MOL   H22119031   1.134   4.985   0.598 -0.7397 -0.0127 -0.7319
   56MOL   H22219032   1.003   4.863   0.611 -0.3407  1.5506 -0.6693
   56MOL   C22319033   1.204   4.796   0.642  0.0704 -0.1265  0.3999
   56MOL   C22419034   1.292   4.829   0.525 -0.0418  0.4430 -0.1247
   56MOL   C22519035   1.237   4.826   0.392  0.1007 -0.1558 -0.6252
   56MOL   C22619036   1.316   4.863   0.282 -0.4433  0.4257  1.2696
   56MOL   C22719037   1.447   4.909   0.299  0.5306 -0.0706  0.4738
   56MOL   O22819038   1.508   4.951   0.192 -0.6858 -0.0013  0.1666
   56MOL   C22919039   1.502   4.906   0.428  0.3358 -0.1575  0.3524
   56MOL   C23019040   1.426   4.875   0.543  0.1411 -0.3441 -0.0066
   56MOL   C23119041   1.157   4.649   0.639  0.0194  0.2152 -0.0725
   56MOL   H23219042   1.259   4.800   0.736 -1.5481  2.5387  1.2564
   56MOL   H23319043   1.134   4.794   0.382 -0.2068  0.6689 -0.1070
   56MOL   H23419044   1.273   4.853   0.183  0.1438 -0.0291  1.0592
   56MOL   H23519045   1.602   4.945   0.204 -0.3791  0.0261 -1.9179
   56MOL   H23619046   1.605   4.937   0.437  1.0412 -2.2334 -0.2914
   56MOL   H23719047   1.476   4.881   0.638 -1.4862  2.2148  0.7515
   56MOL   H23819048   1.072   4.638   0.706  1.0968  1.0565  1.4618
   56MOL   H23919049   1.128   4.617   0.539  2.0551  0.2711 -0.7036
   56MOL   C24019050   1.257   4.545   0.694  0.0639 -1.0649 -0.0968
   56MOL   C24119051   1.299   4.559   0.845 -1.1529 -0.2299  0.0326
   56MOL   C24219052   1.210   4.510   0.943  0.4713 -0.3595 -0.0735
   56MOL   C24319053   1.250   4.508   1.083  0.4315 -0.4447  0.3281
   56MOL   C24419054   1.373   4.571   1.111 -0.5965  0.2543 -0.3789
   56MOL   O24519055   1.413   4.573   1.241  0.0234  0.2864 -0.2230
   56MOL   C24619056   1.459   4.616   1.013  0.0788  0.0871  0.4116
   56MOL   C24719057   1.422   4.611   0.881 -0.1873  0.2446  0.3965
   56MOL   C24819058   1.213   4.405   0.650  0.3243  1.1015  0.2315
   56MOL   H24919059   1.345   4.569   0.634  0.2545 -1.2994  0.0884
   56MOL   H25019060   1.112   4.475   0.917  0.7775 -2.6018  1.6309
   56MOL   H25119061   1.186   4.466   1.159  0.3607 -1.2098 -0.1455
   56MOL   H25219062   1.365   4.511   1.294  1.8162 -0.5535  0.4843
   56MOL   H25319063   1.557   4.646   1.046  0.6145 -1.3906  0.1892
   56MOL   H25419064   1.488   4.649   0.804  0.6448 -2.4535 -0.2720
   56MOL   H25519065   1.290   4.337   0.686 -0.7105  0.4933  1.3562
   56MOL   H25619066   1.139   4.367   0.720  0.3257 -1.0633 -0.8881
   56MOL   C25719067   1.188   4.366   0.502  0.2571  0.0647  0.5849
   56MOL   C25819068   1.290   4.423   0.402 -0.2864  0.2777 -0.7284
   56MOL   C25919069   1.238   4.498   0.294  0.4375 -0.0695  0.6966
   56MOL   C26019070   1.335   4.556   0.207  0.0407 -0.0089  0.4799
   56MOL   C26119071   1.471   4.537   0.224 -0.1495  0.0866  0.6046
   56MOL   O26219072   1.558   4.591   0.129 -0.3314  0.6078  0.1373
   56MOL   C26319073   1.519   4.471   0.337  0.4052 -0.6526 -0.6473
   56MOL   C26419074   1.429   4.416   0.426  0.1256 -0.1236  0.4895
   56MOL   C26519075   1.201   4.211   0.487  0.2531  0.4191  0.1386
   56MOL   H26619076   1.090   4.405   0.475  1.8578  3.5748 -0.4022
   56MOL   H26719077   1.133   4.501   0.271  0.7856 -1.2474 -1.1475
   56MOL   H26819078   1.301   4.602   0.115 -1.2194 -0.7554  0.5532
   56MOL   H26919079   1.640   4.546   0.122  0.0423  1.0494  1.4910
   56MOL   H27019080   1.625   4.458   0.355  0.8583  0.5312 -2.3917
   56MOL   H27119081   1.466   4.362   0.513 -1.9196 -2.2808  0.0826
   56MOL   H27219082   1.144   4.170   0.571 -0.4405  0.0176 -0.5154
   56MOL   H27319083   1.302   4.187   0.518 -0.2113  0.1618  1.5008
   56MOL   C27419084   1.163   4.151   0.355 -0.2759  0.4602 -0.6884
   56MOL   C27519085   1.013   4.152   0.331  0.4780  0.2307  0.0024
   56MOL   C27619086   0.953   4.210   0.221 -0.5247  0.6604 -0.7287
   56MOL   C27719087   0.813   4.191   0.197  0.6919  0.4319 -0.5690
   56MOL   C27819088   0.731   4.119   0.280 -0.2807  0.2005 -0.4004
   56MOL   O27919089   0.599   4.110   0.259  0.2396  0.1551  0.1499
   56MOL   C28019090   0.790   4.063   0.396  0.3029  0.0923 -0.4882
   56MOL   C28119091   0.929   4.080   0.421  0.0085 -0.4312  0.4617
   56MOL   C28219092   1.229   4.013   0.334  0.0667 -0.0111 -0.5107
   56MOL   H28319093   1.212   4.218   0.284  2.9262 -0.9349  0.1378
   56MOL   H28419094   1.015   4.270   0.155 -2.1787 -0.1932 -3.1301
   56MOL   H28519095   0.773   4.252   0.117  1.3397  2.3305  0.5380
   56MOL   H28619096   0.594   4.016   0.248  1.5643  0.3774 -2.9029
   56MOL   H28719097   0.720   4.002   0.451 -1.2081  2.4723  0.3203
   56MOL   H28819098   0.979   4.023   0.499  1.5790  1.7657  1.1267
   56MOL   H28919099   1.338   4.015   0.334  0.0756  0.3188  1.1795
   56MOL   H29019100   1.203   3.944   0.414 -0.6673  1.2309  0.3469
   56MOL   C29119101   1.196   3.944   0.209 -0.5721  0.1563 -0.4227
   56MOL   C29219102   1.249   3.802   0.214  0.8037  0.0684 -0.4074
   56MOL   C29319103   1.377   3.774   0.170  0.4384  0.6163 -0.8522
   56MOL   C29419104   1.433   3.654   0.210 -0.3171 -0.2274  0.1248
   56MOL   C29519105   1.369   3.556   0.289 -0.1914  0.0461 -0.4474
   56MOL   O29619106   1.423   3.440   0.330  0.3078  0.3390  0.3705
   56MOL   C29719107   1.238   3.582   0.321  0.5261 -0.0089  0.0861
   56MOL   C29819108   1.173   3.702   0.280  0.0808 -0.2037 -0.3746
   56MOL   C29919109   1.242   4.026   0.080  0.4619 -1.0389 -0.0967
   56MOL   H30019110   1.090   3.920   0.197 -0.9459  1.1867  0.7511
   56MOL   H30119111   1.436   3.841   0.110  1.2629  0.4255 -0.2534
   56MOL   H30219112   1.530   3.630   0.168 -0.7185 -2.3038  0.3230
   56MOL   H30319113   1.380   3.359   0.310  1.5758 -0.9504  2.6618
   56MOL   H30419114   1.176   3.506   0.368 -0.5485  1.6814  1.4825
   56MOL   H30519115   1.072   3.717   0.315  0.4088 -0.0426  0.5151
   56MOL   H30619116   1.348   4.051   0.084 -0.1213  1.7630 -1.3747
   56MOL   H30719117   1.192   4.123   0.084 -0.8203 -1.6320 -1.5706
   56MOL   C30819118   1.205   3.968   7.982  0.3151  0.3166  0.3495
   56MOL   C30919119   1.271   4.036   7.863 -0.2015  0.0424  0.2556
   56MOL   C31019120   1.244   4.177   7.834  0.8771  0.1919 -0.3304
   56MOL   C31119121   1.298   4.242   7.721  0.9955 -0.1870 -0.1556
   56MOL   C31219122   1.382   4.167   7.640 -0.2297  0.3498  0.0553
   56MOL   O31319123   1.448   4.234   7.543  0.1060 -0.1461  0.5545
   56MOL   C31419124   1.395   4.026   7.651  0.2963  0.5917 -0.0583
   56MOL   C31519125   1.352   3.969   7.770  0.0647 -0.3482  0.3520
   56MOL   C31619126   1.048   3.978   7.963  0.6666  0.1061 -0.0483
   56MOL   H31719127   1.239   3.865   7.986  0.8876  0.5941  3.8346
   56MOL   H31819128   1.178   4.231   7.901  0.8337 -2.3357  1.7441
   56MOL   H31919129   1.269   4.344   7.703  0.4360 -0.2296  0.5154
   56MOL   H32019130   1.428   4.326   7.533  0.8176 -0.0719 -0.2272
   56MOL   H32119131   1.454   3.962   7.586  1.7783 -1.3869  3.1105
   56MOL   H32219132   1.358   3.861   7.777  3.1742 -0.1640  1.5992
   56MOL   H32319133   1.031   4.081   7.993  1.5276 -0.2506  1.7182
   56MOL   H32419134   0.999   3.916   0.000 -0.9911 -0.0638 -1.2572
   56MOL   C32519135   0.980   3.945   7.828  0.1071  0.8126 -0.0469
   56MOL   C32619136   0.858   4.024   7.811  0.3127 -0.3247 -0.7120
   56MOL   C32719137   0.755   4.035   7.910 -0.4820  0.3502 -0.5962
   56MOL   C32819138   0.644   4.117   7.903 -0.4479  0.2518  0.4713
   56MOL   C32919139   0.630   4.191   7.786 -0.7641  0.3830  0.0052
   56MOL   O33019140   0.534   4.281   7.767 -0.4210 -0.2145  0.1367
   56MOL   C33119141   0.721   4.176   7.684 -0.3459  0.5485 -0.0032
   56MOL   C33219142   0.833   4.096   7.694  0.1539 -0.1782  0.2854
   56MOL   C33319143   0.943   3.795   7.828  0.3723  0.0129  0.5295
   56MOL   H33419144   1.054   3.971   7.753  0.5630  0.6938  0.3619
   56MOL   H33519145   0.761   3.983   8.005  0.5798  0.1830 -0.7541
   56MOL   H33619146   0.574   4.114   7.986 -1.1595 -1.4135 -0.1716
   56MOL   H33719147   0.492   4.300   7.850 -0.3713 -0.7449  0.2909
   56MOL   H33819148   0.714   4.239   7.597 -1.0593  1.7452  0.9109
   56MOL   H33919149   0.904   4.095   7.612  1.1321  1.4119  1.1022
   56MOL   H34019150   1.023   3.725   7.802 -1.0249 -1.2065 -0.5394
   56MOL   H34119151   0.866   3.770   7.755 -0.1988  4.2406 -0.4555
   56MOL   H34219152   0.891   3.766   7.919  2.9572 -2.4749  1.3071
   57MOL     C119153   3.329   7.450   6.446 -0.2503 -0.1087  0.3480
   57MOL     C219154   3.259   7.567   6.509 -0.0177  0.6904 -0.4165
   57MOL     C319155   3.169   7.646   6.437 -0.3859  0.2212  0.8720
   57MOL     C419156   3.109   7.762   6.487 -0.1243  0.4733  0.5752
   57MOL     C519157   3.154   7.802   6.617 -0.2523 -0.9470 -0.5315
   57MOL     O619158   3.103   7.917   6.666  0.6235 -0.6110 -0.1946
   57MOL     C719159   3.240   7.720   6.690 -0.0126 -0.1663  0.2757
   57MOL     C819160   3.300   7.601   6.638 -0.1925 -0.2947  0.0006
   57MOL     C919161   3.247   7.316   6.447 -0.1321  0.2819  0.1296
   57MOL    H1019162   3.348   7.489   6.346 -1.6527  0.9096  0.4615
   57MOL    H1119163   3.146   7.610   6.337  0.1709  2.3113 -0.0393
   57MOL    H1219164   3.032   7.814   6.432 -0.1665  0.6679  0.8151
   57MOL    H1319165   3.036   7.959   6.614 -0.6757 -1.1584  1.0210
   57MOL    H1419166   3.262   7.749   6.792 -0.7985 -0.7448  0.6051
   57MOL    H1519167   3.378   7.546   6.688 -1.1105 -0.9410  0.7341
   57MOL    H1619168   3.165   7.326   6.376  0.8746  0.7242 -0.9901
   57MOL    H1719169   3.204   7.302   6.546  0.4358  3.2991  0.8494
   57MOL    H1819170   3.429   7.437   6.488 -0.0110  0.2704 -0.0985
   57MOL    C1919171   3.330   7.186   6.411 -0.2799  0.9848 -0.3007
   57MOL    C2019172   3.428   7.217   6.303 -0.7798  0.5013  0.2919
   57MOL    C2119173   3.391   7.286   6.186  0.7050 -0.2042  0.5140
   57MOL    C2219174   3.486   7.313   6.085 -0.2401 -0.1216 -0.2617
   57MOL    C2319175   3.617   7.277   6.104  0.3931 -0.1206 -0.0555
   57MOL    O2419176   3.709   7.308   6.003 -0.2173  0.2697  0.2661
   57MOL    C2519177   3.661   7.213   6.220  0.0699 -0.0410 -0.0272
   57MOL    C2619178   3.564   7.182   6.321 -1.4731 -0.0677  0.4534
   57MOL    C2719179   3.235   7.070   6.382 -0.9648  0.1483  0.1377
   57MOL    H2819180   3.389   7.162   6.500  0.2685  1.1489 -0.6156
   57MOL    H2919181   3.290   7.322   6.183  0.7441  0.1681  2.7659
   57MOL    H3019182   3.467   7.366   5.992  1.5725  3.9114  1.5455
   57MOL    H3119183   3.724   7.236   5.943  2.2789 -0.8642  2.1526
   57MOL    H3219184   3.765   7.188   6.232 -0.1792 -0.4703  1.3521
   57MOL    H3319185   3.596   7.143   6.416  1.1309  0.4892 -0.1604
   57MOL    H3419186   3.290   6.985   6.343  0.7228  2.0666 -1.7775
   57MOL    H3519187   3.179   7.111   6.299 -0.6198  0.5980  0.1270
   57MOL    C3619188   3.144   7.022   6.504  0.2483 -0.2946 -0.3041
   57MOL    C3719189   3.215   7.004   6.637 -0.3377  0.3813  0.0746
   57MOL    C3819190   3.162   7.057   6.751 -0.1254  0.0224 -0.1200
   57MOL    C3919191   3.245   7.060   6.867 -0.3347 -0.7986 -0.8015
   57MOL    C4019192   3.366   6.995   6.873 -0.3525 -0.8216 -0.6107
   57MOL    O4119193   3.434   6.988   6.986  0.2712 -0.1667 -0.3502
   57MOL    C4219194   3.419   6.942   6.755  0.5007 -0.5156 -0.3151
   57MOL    C4319195   3.340   6.944   6.642  0.7538 -0.6302  0.5367
   57MOL    C4419196   3.065   6.891   6.465 -0.6040 -0.1887  0.1332
   57MOL    H4519197   3.069   7.100   6.517  1.5346  0.5440  2.4190
   57MOL    H4619198   3.067   7.109   6.755 -1.1303 -1.8451  0.8402
   57MOL    H4719199   3.204   7.107   6.955  0.2113  1.3809 -1.6856
   57MOL    H4819200   3.387   7.029   7.058  1.0794 -1.9848  1.2613
   57MOL    H4919201   3.518   6.899   6.753  0.1818 -1.3186  0.7169
   57MOL    H5019202   3.377   6.901   6.550 -2.1474 -0.8195 -0.5836
   57MOL    H5119203   3.134   6.808   6.448  0.3454  0.1217  2.3402
   57MOL    H5219204   2.999   6.871   6.549 -1.6482  0.1732 -0.5866
   57MOL    C5319205   2.976   6.899   6.336  0.3520  0.0167  0.4248
   57MOL    C5419206   2.944   6.761   6.281  0.7957  0.3892 -0.4271
   57MOL    C5519207   2.887   6.662   6.360 -0.4583 -0.3170 -0.6210
   57MOL    C5619208   2.849   6.540   6.307  0.1628 -0.3001 -0.1355
   57MOL    C5719209   2.872   6.512   6.172 -0.3347  0.1663  0.1633
   57MOL    O5819210   2.848   6.388   6.118 -0.1563 -0.2383 -0.8142
   57MOL    C5919211   2.930   6.613   6.089 -0.6675  0.3924 -0.3195
   57MOL    C6019212   2.972   6.735   6.145  0.7306  0.1115  0.7472
   57MOL    C6119213   2.851   6.985   6.360 -0.0180 -0.7035 -0.0766
   57MOL    H6219214   3.030   6.950   6.256  0.5280 -0.7124  0.0757
   57MOL    H6319215   2.868   6.672   6.466  0.8978 -2.3661 -0.1485
   57MOL    H6419216   2.793   6.470   6.368  0.9829 -0.8305  0.0190
   57MOL    H6519217   2.811   6.324   6.176  0.7034  0.0335  0.0385
   57MOL    H6619218   2.937   6.605   5.982 -1.3280 -0.1110 -0.3276
   57MOL    H6719219   3.012   6.808   6.076  0.0988  0.2454  0.5136
   57MOL    H6819220   2.878   7.079   6.408  0.1422 -1.0620  0.5380
   57MOL    H6919221   2.769   6.939   6.416 -0.6395  1.4292  0.8221
   57MOL    C7019222   2.799   7.037   6.224  0.8034  0.3949  0.0295
   57MOL    C7119223   2.871   7.160   6.175  0.1137  0.3246  0.5438
   57MOL    C7219224   2.981   7.152   6.084 -0.2251  0.0414 -0.1879
   57MOL    C7319225   3.048   7.272   6.057  0.5240  0.8728 -0.2889
   57MOL    C7419226   3.014   7.396   6.104  0.6278  0.0474  0.3290
   57MOL    O7519227   3.090   7.503   6.066 -0.3143 -0.0257 -0.1830
   57MOL    C7619228   2.904   7.408   6.188  0.4741  0.9584 -0.5903
   57MOL    C7719229   2.833   7.292   6.227  0.7892  0.1731  0.1431
   57MOL    C7819230   2.648   7.048   6.218 -0.2333  0.0235 -0.0349
   57MOL    H7919231   2.819   6.956   6.154  2.6364 -1.0488  2.1380
   57MOL    H8019232   3.015   7.057   6.046  1.0125  0.5260 -0.3171
   57MOL    H8119233   3.135   7.257   5.995  0.5017 -0.2896 -0.0469
   57MOL    H8219234   3.132   7.494   5.982  2.6964 -1.7543  1.4000
   57MOL    H8319235   2.871   7.504   6.226 -0.7576 -0.5602  2.2988
   57MOL    H8419236   2.750   7.313   6.293 -0.8028 -1.4382 -1.2874
   57MOL    H8519237   2.619   7.130   6.283  1.0187  0.2292  0.2813
   57MOL    H8619238   2.585   6.969   6.258  0.1614 -0.2865 -0.0192
   57MOL    C8719239   2.583   7.061   6.084 -0.1898 -0.8339 -0.2951
   57MOL    C8819240   2.440   7.114   6.107 -0.6534  0.8710 -0.3291
   57MOL    C8919241   2.341   7.012   6.127 -0.3336 -0.2939  0.3737
   57MOL    C9019242   2.218   7.046   6.175 -0.3467 -0.3034 -0.0327
   57MOL    C9119243   2.185   7.179   6.195  0.6060 -0.4188 -0.3817
   57MOL    O9219244   2.072   7.223   6.256  0.0289 -0.2699 -0.2874
   57MOL    C9319245   2.277   7.277   6.153 -0.4481 -0.6132 -0.4857
   57MOL    C9419246   2.404   7.246   6.108  0.9914 -0.3907  0.7066
   57MOL    C9519247   2.601   6.939   5.986  0.0516 -0.0328  0.6207
   57MOL    H9619248   2.636   7.138   6.027 -1.7240  0.5645  0.1214
   57MOL    H9719249   2.378   6.912   6.144  1.8060  0.6694  1.5557
   57MOL    H9819250   2.151   6.974   6.219 -0.6847 -0.1780 -0.3372
   57MOL    H9919251   2.073   7.317   6.265  1.3272 -0.0485 -2.2286
   57MOL   H10019252   2.244   7.380   6.155  3.2201  0.5900  2.1532
   57MOL   H10119253   2.475   7.323   6.082  0.2877  1.2882  3.5931
   57MOL   H10219254   2.706   6.924   5.964  0.4477  0.3859  2.1306
   57MOL   H10319255   2.565   6.859   6.050  3.4893 -1.0807  1.3659
   57MOL   C10419256   2.526   6.936   5.849 -0.5522 -0.2323 -0.4577
   57MOL   C10519257   2.514   6.794   5.803 -0.0762  0.4025  0.0728
   57MOL   C10619258   2.403   6.751   5.729 -0.1250  0.1580  0.2685
   57MOL   C10719259   2.393   6.620   5.677  0.2035  0.8514 -0.0927
   57MOL   C10819260   2.491   6.523   5.712 -0.3610  0.1098  0.1006
   57MOL   O10919261   2.486   6.397   5.670  0.6534  0.1132  0.2400
   57MOL   C11019262   2.602   6.564   5.797  0.3156 -0.3522 -0.3081
   57MOL   C11119263   2.617   6.697   5.833 -0.1567 -0.3253  0.7181
   57MOL   C11219264   2.591   7.029   5.743  0.1809  0.3652 -0.3402
   57MOL   H11319265   2.422   6.963   5.870 -1.0070 -1.8716 -0.4940
   57MOL   H11419266   2.325   6.822   5.708 -1.0134 -0.3663  1.6840
   57MOL   H11519267   2.304   6.598   5.622 -0.0625 -2.5569  1.6022
   57MOL   H11619268   2.401   6.373   5.637 -0.5513  0.2678  3.0260
   57MOL   H11719269   2.675   6.494   5.836 -0.1829  0.1376  1.5788
   57MOL   H11819270   2.698   6.730   5.895  1.1940 -1.0109 -0.6353
   57MOL   H11919271   2.675   6.972   5.703 -1.9296 -0.9111 -3.1532
   57MOL   H12019272   2.626   7.124   5.783 -1.0782  0.1275  1.4193
   57MOL   C12119273   2.503   7.062   5.616  0.1651  0.0700  0.5786
   57MOL   C12219274   2.368   7.138   5.646 -0.3164 -0.2254 -0.4136
   57MOL   C12319275   2.371   7.248   5.732  0.1795 -0.2702  0.2730
   57MOL   C12419276   2.253   7.317   5.771  0.5533  0.0885  0.1346
   57MOL   C12519277   2.130   7.274   5.724  1.1235  0.1152  0.3642
   57MOL   O12619278   2.016   7.336   5.761 -0.2799  0.4513  0.1014
   57MOL   C12719279   2.128   7.155   5.642  0.8529  0.4485  0.1699
   57MOL   C12819280   2.243   7.082   5.609  0.0011  0.4457 -0.7848
   57MOL   C12919281   2.580   7.109   5.493 -0.1482  0.3635  0.6318
   57MOL   H13019282   2.466   6.962   5.594  2.2067 -0.6794  0.4621
   57MOL   H13119283   2.468   7.281   5.768  0.6237  1.6919 -2.6009
   57MOL   H13219284   2.255   7.389   5.851  2.6521 -0.6559  0.7991
   57MOL   H13319285   2.030   7.429   5.773  0.7107  0.3750 -0.3925
   57MOL   H13419286   2.028   7.137   5.604  1.4179  1.6820 -2.0026
   57MOL   H13519287   2.244   6.996   5.543 -0.3242 -0.4018  0.3040
   57MOL   H13619288   2.505   7.136   5.419 -0.2914  1.2831  1.1079
   57MOL   H13719289   2.638   7.028   5.448  0.3289 -0.2054  2.2225
   57MOL   C13819290   2.678   7.228   5.519  0.5519 -0.2516  0.0680
   57MOL   C13919291   2.666   7.331   5.404  0.4199  0.1053  0.2777
   57MOL   C14019292   2.608   7.456   5.424 -0.4769  0.1684  0.2466
   57MOL   C14119293   2.623   7.557   5.327 -0.2047 -0.2393 -0.0700
   57MOL   C14219294   2.669   7.533   5.205  0.0241  0.4220  0.1074
   57MOL   O14319295   2.662   7.632   5.111  0.0072  0.7987  1.1437
   57MOL   C14419296   2.717   7.406   5.175 -0.0230  0.0695  0.3359
   57MOL   C14519297   2.724   7.312   5.276 -0.2576 -0.1051  0.0848
   57MOL   C14619298   2.826   7.184   5.546  0.2588  0.2848  0.5874
   57MOL   H14719299   2.639   7.269   5.612 -1.5249  2.2598 -1.8361
   57MOL   H14819300   2.569   7.482   5.521  1.3479 -1.8436  1.5737
   57MOL   H14919301   2.585   7.658   5.340 -0.2955  0.1041 -2.6722
   57MOL   H15019302   2.571   7.656   5.112 -1.0005 -2.4254 -2.4840
   57MOL   H15119303   2.754   7.385   5.076  2.6583  2.5951  0.7337
   57MOL   H15219304   2.777   7.220   5.256  2.8606  1.7075 -0.3262
   57MOL   H15319305   2.887   7.226   5.465 -0.9696  2.4920  0.7737
   57MOL   H15419306   2.827   7.075   5.543  1.4584  0.2808  0.8362
   57MOL   C15519307   2.892   7.236   5.676  0.1273 -0.5854  0.0873
   57MOL   C15619308   2.855   7.382   5.714 -0.4752  0.4737  0.1838
   57MOL   C15719309   2.791   7.419   5.833  0.3006  0.7857  0.2573
   57MOL   C15819310   2.771   7.553   5.854 -0.2927  0.3220 -0.8334
   57MOL   C15919311   2.816   7.654   5.772 -0.2909  0.3891 -0.4180
   57MOL   O16019312   2.784   7.783   5.796  0.1915  0.5714  0.0517
   57MOL   C16119313   2.860   7.622   5.646  0.2029 -0.4740  0.1743
   57MOL   C16219314   2.877   7.484   5.611 -0.9087 -0.3595  0.0201
   57MOL   C16319315   3.044   7.210   5.680 -0.9722  0.0894 -0.0339
   57MOL   H16419316   2.858   7.169   5.756 -0.0686 -0.5557  0.0296
   57MOL   H16519317   2.755   7.337   5.894  0.6874 -0.0448 -0.6222
   57MOL   H16619318   2.710   7.581   5.939 -0.3318 -0.2315 -0.6810
   57MOL   H16719319   2.761   7.798   5.887  1.3116 -0.5052  0.5205
   57MOL   H16819320   2.864   7.692   5.565  1.6545 -0.4854  0.2235
   57MOL   H16919321   2.898   7.457   5.509 -1.9456 -1.5090  0.0949
   57MOL   H17019322   3.089   7.257   5.767 -1.1875 -0.0865  0.1733
   57MOL   H17119323   3.083   7.271   5.598 -0.5218  0.0753  0.1695
   57MOL   C17219324   3.089   7.063   5.661 -0.3776 -0.6841 -0.3106
   57MOL   C17319325   3.189   7.022   5.770 -0.3196 -0.5633  0.0918
   57MOL   C17419326   3.162   6.912   5.853 -0.4632 -0.3570 -0.9564
   57MOL   C17519327   3.242   6.890   5.969  0.2574  0.4558  1.0807
   57MOL   C17619328   3.352   6.970   5.992 -0.2679  0.6085  0.2960
   57MOL   O17719329   3.420   6.955   6.104 -0.4699  0.1518 -0.4629
   57MOL   C17819330   3.398   7.065   5.898  0.3663 -0.1629  0.4708
   57MOL   C17919331   3.311   7.098   5.788  0.6316  0.9030 -0.0256
   57MOL   C18019332   3.147   7.040   5.513  0.2731 -0.1411  0.2894
   57MOL   H18119333   3.001   7.000   5.672 -0.0570 -0.7685  1.9032
   57MOL   H18219334   3.069   6.859   5.841 -0.1535 -1.1655  0.1331
   57MOL   H18319335   3.215   6.817   6.045  1.5206  0.0974  1.2023
   57MOL   H18419336   3.486   7.018   6.127 -0.6451  0.0307  0.3762
   57MOL   H18519337   3.484   7.125   5.923 -1.4652  2.4846  0.5940
   57MOL   H18619338   3.336   7.183   5.726  0.7250  2.0133  1.4969
   57MOL   H18719339   3.253   7.065   5.514  0.2897 -0.2304  0.7707
   57MOL   H18819340   3.101   7.105   5.439  0.7748 -1.9209 -1.6479
   57MOL   C18919341   3.138   6.892   5.466 -0.3944  0.4112 -0.2637
   57MOL   C19019342   2.994   6.844   5.459 -0.6776  0.2681  0.3030
   57MOL   C19119343   2.916   6.896   5.354  0.4539 -0.0860  0.6088
   57MOL   C19219344   2.793   6.839   5.319  0.1109 -0.2763  0.4095
   57MOL   C19319345   2.739   6.742   5.407 -0.1904  0.3326  0.0141
   57MOL   O19419346   2.614   6.693   5.382 -0.7423  0.4416  0.2916
   57MOL   C19519347   2.808   6.704   5.521  0.0170 -0.0932  0.4302
   57MOL   C19619348   2.935   6.754   5.543 -0.2363 -0.0949  0.4273
   57MOL   C19719349   3.230   6.866   5.346 -0.4967 -0.0971 -0.0695
   57MOL   H19819350   3.186   6.839   5.548 -1.4838  0.9141  0.7193
   57MOL   H19919351   2.964   6.962   5.283 -1.3093  0.8950  0.3073
   57MOL   H20019352   2.754   6.876   5.226 -0.6204  2.8418  1.8698
   57MOL   H20119353   2.593   6.618   5.436 -0.5478 -0.1572 -0.4612
   57MOL   H20219354   2.762   6.631   5.587 -2.3548 -1.1555 -2.3213
   57MOL   H20319355   2.975   6.721   5.638  1.5465 -0.8088 -0.5338
   57MOL   H20419356   3.324   6.921   5.350 -0.7102  0.2427  0.3571
   57MOL   H20519357   3.195   6.889   5.246  1.9566 -1.2205 -1.2217
   57MOL   C20619358   3.294   6.721   5.350 -0.6309  0.6671 -0.3806
   57MOL   C20719359   3.418   6.714   5.262 -0.3801 -0.3821  0.4028
   57MOL   C20819360   3.550   6.736   5.319  0.4875  0.5696 -0.3444
   57MOL   C20919361   3.660   6.712   5.240 -0.3848 -0.3358 -0.3915
   57MOL   C21019362   3.650   6.669   5.111  0.1261 -0.8478 -0.1275
   57MOL   O21119363   3.764   6.635   5.044 -0.9733 -0.3275 -0.2892
   57MOL   C21219364   3.524   6.657   5.049  0.1008 -0.0552  0.2687
   57MOL   C21319365   3.406   6.673   5.129 -0.1381  0.1460 -0.3357
   57MOL   C21419366   3.203   6.598   5.331  0.3988  0.0699 -0.7027
   57MOL   H21519367   3.332   6.718   5.452  0.7269 -0.7366 -0.9161
   57MOL   H21619368   3.560   6.766   5.422 -0.7881 -0.2438  0.0263
   57MOL   H21719369   3.757   6.724   5.286  0.6838 -0.7963 -2.4626
   57MOL   H21819370   3.735   6.605   4.959  0.5442  0.7465 -1.2048
   57MOL   H21919371   3.516   6.610   4.951 -0.0324 -1.1238  0.7854
   57MOL   H22019372   3.305   6.651   5.098  0.4273 -1.1928 -1.2555
   57MOL   H22119373   3.166   6.601   5.228 -0.8894 -0.8329 -0.2811
   57MOL   H22219374   3.116   6.602   5.396  0.0113 -1.9840 -1.0512
   57MOL   C22319375   3.265   6.460   5.365  0.5257 -0.6752  0.9861
   57MOL   C22419376   3.191   6.359   5.283 -0.6272 -0.3253 -0.3989
   57MOL   C22519377   3.048   6.351   5.278 -0.5207 -0.8292  0.1862
   57MOL   C22619378   2.982   6.250   5.198 -0.2001  0.3328  0.0092
   57MOL   C22719379   3.065   6.156   5.129 -0.4606 -0.3814 -0.3164
   57MOL   O22819380   3.005   6.047   5.064  0.3579  0.0816  0.1638
   57MOL   C22919381   3.202   6.162   5.141  0.2960  0.5988 -0.0846
   57MOL   C23019382   3.262   6.266   5.210 -0.0562  1.0171 -0.1569
   57MOL   C23119383   3.265   6.409   5.512  0.4374  0.5648 -0.0765
   57MOL   H23219384   3.364   6.452   5.319 -0.1876  0.9248 -0.9326
   57MOL   H23319385   2.992   6.419   5.341 -2.0451 -3.0616  1.3189
   57MOL   H23419386   2.874   6.249   5.196 -0.1933  0.5569 -2.1401
   57MOL   H23519387   2.917   6.015   5.081  0.3279  0.8225  1.4866
   57MOL   H23619388   3.257   6.081   5.096  0.5742  0.8769 -0.2475
   57MOL   H23719389   3.368   6.246   5.217 -0.2965 -0.5776 -0.8931
   57MOL   H23819390   3.167   6.416   5.560  0.4328 -0.7972  0.1339
   57MOL   H23919391   3.292   6.304   5.517  0.6507  0.5857 -0.7538
   57MOL   C24019392   3.347   6.485   5.621  0.2337 -0.1364  0.8431
   57MOL   C24119393   3.321   6.437   5.761 -0.3816  0.2615 -0.3956
   57MOL   C24219394   3.300   6.298   5.794 -0.0761 -0.3113  0.1584
   57MOL   C24319395   3.284   6.264   5.929  0.2794 -0.1154 -0.2089
   57MOL   C24419396   3.287   6.363   6.036 -0.7339 -0.0894  0.9054
   57MOL   O24519397   3.273   6.328   6.171 -0.1088  0.1520 -0.0271
   57MOL   C24619398   3.319   6.499   6.001  0.4565 -0.3556 -0.7822
   57MOL   C24719399   3.328   6.535   5.866 -0.0284  0.3554 -0.4137
   57MOL   C24819400   3.496   6.507   5.581  0.2379  0.2671 -0.6443
   57MOL   H24919401   3.310   6.588   5.621 -0.6822 -0.4643  0.9689
   57MOL   H25019402   3.290   6.224   5.716  0.2527  1.8056 -1.9424
   57MOL   H25119403   3.249   6.166   5.960 -0.9085  0.6512  0.9515
   57MOL   H25219404   3.312   6.242   6.180 -1.8484 -0.8709 -2.0138
   57MOL   H25319405   3.327   6.561   6.089  1.2850 -0.2896 -0.8945
   57MOL   H25419406   3.331   6.641   5.844 -4.6383  1.2359  2.5215
   57MOL   H25519407   3.486   6.534   5.476 -1.4462  2.4608  0.0552
   57MOL   H25619408   3.527   6.598   5.632 -3.4216  1.2593 -0.0271
   57MOL   C25719409   3.596   6.394   5.606  0.1076 -0.0099  0.2164
   57MOL   C25819410   3.578   6.283   5.504  0.0159  0.5060 -0.3094
   57MOL   C25919411   3.614   6.320   5.369 -0.2353  0.6506 -0.2405
   57MOL   C26019412   3.622   6.219   5.265  0.2444 -0.2679 -0.0394
   57MOL   C26119413   3.568   6.090   5.288  0.1235  0.0979 -1.0517
   57MOL   O26219414   3.578   5.996   5.185 -0.5713  0.0261  0.3027
   57MOL   C26319415   3.515   6.064   5.414 -0.6050  0.0457 -0.0877
   57MOL   C26419416   3.519   6.153   5.524  0.0434  0.1354  0.1619
   57MOL   C26519417   3.740   6.453   5.601 -0.4965  0.4360 -0.5211
   57MOL   H26619418   3.572   6.346   5.701 -2.7374 -0.8731 -0.8635
   57MOL   H26719419   3.652   6.418   5.348 -0.8993  0.2761 -3.4210
   57MOL   H26819420   3.668   6.248   5.172  3.3074 -1.2418  1.1169
   57MOL   H26919421   3.607   5.912   5.219  0.2722 -0.3057 -1.2127
   57MOL   H27019422   3.488   5.964   5.445  0.9848 -0.0585  1.0442
   57MOL   H27119423   3.485   6.131   5.624  2.8599 -1.7138  0.7810
   57MOL   H27219424   3.754   6.544   5.543  0.4163  2.2010  2.3538
   57MOL   H27319425   3.802   6.391   5.536 -0.7654 -0.9315  0.5034
   57MOL   C27419426   3.826   6.463   5.730  0.7615  0.8773 -0.5946
   57MOL   C27519427   3.755   6.539   5.847 -0.0090 -0.5702 -0.0149
   57MOL   C27619428   3.717   6.464   5.960 -0.2564  0.0516  0.6219
   57MOL   C27719429   3.641   6.523   6.066  0.4219  0.1160  0.3786
   57MOL   C27819430   3.608   6.663   6.049  0.2192  0.6427 -0.4203
   57MOL   O27919431   3.518   6.721   6.131 -0.3145 -0.2709  0.0414
   57MOL   C28019432   3.649   6.739   5.937  0.6551 -0.2901  0.4109
   57MOL   C28119433   3.720   6.677   5.837 -0.6225 -0.0316  0.7100
   57MOL   C28219434   3.962   6.525   5.703 -0.0184 -0.4701 -0.0633
   57MOL   H28319435   3.844   6.360   5.762 -2.7090  1.3039  3.2275
   57MOL   H28419436   3.735   6.358   5.974 -0.0306  0.0655  0.4262
   57MOL   H28519437   3.610   6.460   6.149 -0.2037  0.5750  0.4939
   57MOL   H28619438   3.471   6.798   6.101  0.3467  0.1733  0.1372
   57MOL   H28719439   3.600   6.835   5.924  1.4030  0.1975  1.1361
   57MOL   H28819440   3.733   6.740   5.750  2.2722 -1.4607  0.0537
   57MOL   H28919441   4.012   6.461   5.629  0.6110 -1.3373  1.0864
   57MOL   H29019442   3.936   6.618   5.654 -4.4798 -1.1359  0.8727
   57MOL   C29119443   4.066   6.552   5.820  0.6476 -0.2842  0.6506
   57MOL   C29219444   4.177   6.634   5.757  0.6216  0.4522  0.0652
   57MOL   C29319445   4.221   6.625   5.618 -0.1640 -0.4210 -0.7655
   57MOL   C29419446   4.325   6.709   5.574  0.5840 -0.4084 -0.5182
   57MOL   C29519447   4.369   6.810   5.659 -0.1804 -0.3708  0.1097
   57MOL   O29619448   4.464   6.896   5.613 -0.1405 -0.3811  0.1076
   57MOL   C29719449   4.333   6.824   5.796 -0.4871  0.5687 -0.0092
   57MOL   C29819450   4.240   6.734   5.845 -0.2893 -0.1860 -0.4416
   57MOL   C29919451   4.119   6.424   5.884  0.4011  0.3292  0.8576
   57MOL   H30019452   4.019   6.620   5.891  0.0893 -2.1104  2.0677
   57MOL   H30119453   4.167   6.574   5.539  0.7941 -2.3937 -0.1769
   57MOL   H30219454   4.342   6.705   5.467  0.7074 -0.0857 -0.5119
   57MOL   H30319455   4.508   6.939   5.685 -0.0872 -1.1295  0.5347
   57MOL   H30419456   4.385   6.890   5.864 -0.2592 -1.8733  2.2471
   57MOL   H30519457   4.209   6.743   5.948 -0.6155  1.8264 -0.7054
   57MOL   H30619458   4.180   6.380   5.806 -1.2094  0.7017 -0.6443
   57MOL   H30719459   4.043   6.346   5.891  0.8399 -0.1556  0.2376
   57MOL   C30819460   4.180   6.439   6.035 -0.3097 -0.1034 -0.0962
   57MOL   C30919461   4.322   6.496   6.040  0.5691  0.2225 -0.7165
   57MOL   C31019462   4.348   6.594   6.138  0.4331 -0.1595  0.1825
   57MOL   C31119463   4.483   6.633   6.153  0.2257 -0.2469 -0.0564
   57MOL   C31219464   4.590   6.580   6.080  0.2210 -0.3529 -0.6534
   57MOL   O31319465   4.723   6.624   6.085  0.4317 -0.6930  0.1458
   57MOL   C31419466   4.556   6.499   5.982  0.1916 -0.4575  0.4759
   57MOL   C31519467   4.428   6.450   5.959 -0.8588  0.0796  0.3412
   57MOL   C31619468   4.194   6.301   6.101 -0.2265 -0.2449  0.5986
   57MOL   H31719469   4.111   6.503   6.090  0.1290  0.7823 -0.5511
   57MOL   H31819470   4.269   6.629   6.203  1.2863 -2.3662  2.4594
   57MOL   H31919471   4.509   6.709   6.226  1.0250 -0.4140 -0.1581
   57MOL   H32019472   4.742   6.675   6.163 -0.6417  0.3573 -0.2558
   57MOL   H32119473   4.634   6.461   5.918  1.1400  2.5513 -0.2387
   57MOL   H32219474   4.421   6.374   5.883 -0.1223  0.7860 -0.4470
   57MOL   H32319475   4.267   6.295   6.181  1.6543 -1.7096 -1.1739
   57MOL   H32419476   4.246   6.232   6.035  0.3665 -0.5230  1.3567
   57MOL   C32519477   4.067   6.227   6.144 -0.3731 -0.1475  0.1815
   57MOL   C32619478   3.996   6.307   6.254 -0.0301  0.0676 -0.7352
   57MOL   C32719479   4.066   6.357   6.363 -0.3251  0.1977  0.0634
   57MOL   C32819480   4.001   6.427   6.468  0.3746 -0.1599  0.3271
   57MOL   C32919481   3.862   6.431   6.475  0.4156 -0.0085  0.3102
   57MOL   O33019482   3.802   6.501   6.580 -0.2971 -0.0738  0.2301
   57MOL   C33119483   3.788   6.379   6.363 -0.6443  0.4681 -0.1778
   57MOL   C33219484   3.862   6.324   6.256  0.4939  0.3849  0.2394
   57MOL   C33319485   4.091   6.085   6.192 -0.1023 -0.1246  0.7321
   57MOL   H33419486   3.998   6.226   6.060 -0.8866 -1.4482  0.6057
   57MOL   H33519487   4.174   6.346   6.356 -0.6595 -1.9359 -2.5888
   57MOL   H33619488   4.065   6.470   6.545  0.0463 -0.4471  0.7626
   57MOL   H33719489   3.715   6.477   6.610  0.4693 -2.8634  0.3913
   57MOL   H33819490   3.681   6.394   6.352 -0.4706  1.9503 -0.0172
   57MOL   H33919491   3.800   6.306   6.169 -1.0232 -2.1398  1.7654
   57MOL   H34019492   4.001   6.061   6.248 -1.4055 -0.3364 -1.4076
   57MOL   H34119493   4.169   6.102   6.267  2.8563 -1.5155 -1.9062
   57MOL   H34219494   4.117   6.010   6.117 -1.9331 -0.0963  0.0610
   58MOL     C119495   4.279   2.614   6.290 -0.2263  0.6078 -0.2348
   58MOL     C219496   4.424   2.665   6.312  0.7934  0.1368  0.1841
   58MOL     C319497   4.480   2.772   6.239 -0.4412 -0.1889  0.1472
   58MOL     C419498   4.616   2.807   6.265  0.8113 -0.3892 -0.3841
   58MOL     C519499   4.693   2.728   6.356 -0.0701  0.3632 -0.8980
   58MOL     O619500   4.816   2.777   6.400  0.2217  0.3593  0.4921
   58MOL     C719501   4.640   2.621   6.427  0.3394 -0.0809 -0.3209
   58MOL     C819502   4.503   2.589   6.404  0.1375  0.4202  0.6295
   58MOL     C919503   4.162   2.709   6.326  0.0261  0.1473  0.6415
   58MOL    H1019504   4.266   2.593   6.184  0.4572  0.9204 -0.3889
   58MOL    H1119505   4.420   2.827   6.168 -1.3616  0.2638  1.2564
   58MOL    H1219506   4.656   2.896   6.219 -1.8909  1.8759  1.5454
   58MOL    H1319507   4.842   2.728   6.476 -0.6276  2.7304  2.3907
   58MOL    H1419508   4.710   2.583   6.498  1.2089  3.5587  0.8999
   58MOL    H1519509   4.469   2.499   6.452 -0.1923  0.0856 -0.2257
   58MOL    H1619510   4.066   2.659   6.321  0.4699 -1.0365  3.2806
   58MOL    H1719511   4.159   2.783   6.246  1.6170 -0.4638 -0.0031
   58MOL    H1819512   4.277   2.522   6.349  3.8392  0.4657 -0.1714
   58MOL    C1919513   4.164   2.789   6.457 -0.3424 -0.0675  0.1325
   58MOL    C2019514   4.156   2.709   6.580 -0.8689 -0.8136 -0.4301
   58MOL    C2119515   4.258   2.724   6.681 -0.1652  0.1350  0.3419
   58MOL    C2219516   4.234   2.682   6.815  0.0056 -0.0481 -0.2115
   58MOL    C2319517   4.108   2.625   6.848  0.1717 -0.0828 -0.0866
   58MOL    O2419518   4.081   2.580   6.972  0.4682 -0.1412 -0.0570
   58MOL    C2519519   4.010   2.611   6.749  0.4391 -0.3769  0.3149
   58MOL    C2619520   4.042   2.637   6.616 -0.7724 -0.3812  0.3862
   58MOL    C2719521   4.060   2.905   6.463  0.5526 -0.2939  0.3497
   58MOL    H2819522   4.254   2.850   6.456 -0.6644  0.4327  0.9779
   58MOL    H2919523   4.345   2.780   6.651  1.3998 -1.7105  1.2958
   58MOL    H3019524   4.309   2.704   6.889  0.0420  1.5158 -0.6877
   58MOL    H3119525   4.126   2.638   7.031 -0.2050  2.0038 -1.5960
   58MOL    H3219526   3.912   2.574   6.774  0.4422  0.6257  1.9015
   58MOL    H3319527   3.963   2.617   6.546 -2.6400  0.6114  2.1640
   58MOL    H3419528   3.956   2.876   6.479  0.9675 -2.0596  0.0133
   58MOL    H3519529   4.051   2.953   6.366 -2.1439  0.8022  1.1057
   58MOL    C3619530   4.087   3.016   6.574  0.0420 -0.4701 -0.5423
   58MOL    C3719531   3.949   3.068   6.622  0.4646  0.1429 -0.8798
   58MOL    C3819532   3.849   3.103   6.530  0.2168  0.4349 -0.8558
   58MOL    C3919533   3.716   3.130   6.568  0.4446 -0.6608 -0.1944
   58MOL    C4019534   3.682   3.120   6.702 -0.3026  0.7194 -0.1168
   58MOL    O4119535   3.548   3.130   6.734  0.0375  0.1229 -0.2775
   58MOL    C4219536   3.776   3.077   6.801  0.7685  0.5492 -0.5004
   58MOL    C4319537   3.907   3.049   6.757 -0.2959 -0.6007  1.0524
   58MOL    C4419538   4.169   3.138   6.516 -0.0822  0.3060 -0.2504
   58MOL    H4519539   4.135   2.974   6.663  0.3267  0.1580 -0.3973
   58MOL    H4619540   3.869   3.096   6.424  0.5471  0.8085 -0.8181
   58MOL    H4719541   3.640   3.151   6.494 -0.3091  1.7659  1.2012
   58MOL    H4819542   3.536   3.089   6.818  0.7739  1.8328  0.7023
   58MOL    H4919543   3.750   3.079   6.906  1.0972  2.3858 -0.4529
   58MOL    H5019544   3.982   3.022   6.830 -0.3221  1.1577  1.7567
   58MOL    H5119545   4.174   3.137   6.407 -0.3887  2.5183 -0.3140
   58MOL    H5219546   4.124   3.236   6.535 -1.3267  0.1115 -1.9918
   58MOL    C5319547   4.318   3.144   6.550 -0.1430 -0.1993  0.2711
   58MOL    C5419548   4.404   3.210   6.443 -0.3094  0.4514  0.3191
   58MOL    C5519549   4.421   3.351   6.431 -0.5970  0.4800  0.2002
   58MOL    C5619550   4.484   3.405   6.319 -0.4278  0.0515  0.3173
   58MOL    C5719551   4.532   3.321   6.218  0.6162 -0.0869 -0.4019
   58MOL    O5819552   4.581   3.380   6.108  0.0135  0.3219 -0.0795
   58MOL    C5919553   4.523   3.178   6.226  0.3082  0.3594  0.3560
   58MOL    C6019554   4.460   3.124   6.345 -0.1239  0.4051 -0.3805
   58MOL    C6119555   4.359   3.211   6.679 -0.4922  0.1702  0.4203
   58MOL    H6219556   4.351   3.042   6.567  0.5967 -0.3178 -1.7073
   58MOL    H6319557   4.392   3.417   6.511  0.8089  0.1705  0.9818
   58MOL    H6419558   4.492   3.512   6.311  0.6037 -0.0642 -0.2699
   58MOL    H6519559   4.657   3.328   6.090  0.5947  1.1806 -0.1377
   58MOL    H6619560   4.550   3.115   6.143  0.2978  2.3698 -1.2157
   58MOL    H6719561   4.449   3.019   6.367 -2.5281  0.9602  1.3148
   58MOL    H6819562   4.313   3.169   6.769  1.4563  0.3195  1.5107
   58MOL    H6919563   4.315   3.311   6.680  2.6839  1.6012  1.4884
   58MOL    C7019564   4.512   3.209   6.714 -0.0826 -0.2799 -0.4425
   58MOL    C7119565   4.585   3.071   6.705  0.6182 -0.1414  0.5513
   58MOL    C7219566   4.710   3.065   6.636 -1.1442 -0.2620  0.2880
   58MOL    C7319567   4.789   2.949   6.646  0.3863 -0.0090  0.1680
   58MOL    C7419568   4.741   2.830   6.702 -0.0550 -0.3923  0.0585
   58MOL    O7519569   4.809   2.712   6.696 -0.2760  0.4083  0.2492
   58MOL    C7619570   4.615   2.839   6.767  0.6327 -0.1703 -0.6957
   58MOL    C7719571   4.539   2.958   6.769  0.0705  0.0105 -0.4664
   58MOL    C7819572   4.530   3.274   6.853  0.7690 -0.4947 -0.4495
   58MOL    H7919573   4.560   3.276   6.643 -0.6244  1.6084  0.9434
   58MOL    H8019574   4.756   3.154   6.595 -2.6812 -0.0305 -0.9874
   58MOL    H8119575   4.888   2.953   6.603  0.8600 -0.9509  1.1705
   58MOL    H8219576   4.776   2.653   6.763  2.4519 -1.8585 -0.3171
   58MOL    H8319577   4.575   2.755   6.822  0.4785 -0.5131 -1.3302
   58MOL    H8419578   4.456   2.967   6.838  0.4632  1.8582 -0.2081
   58MOL    H8519579   4.474   3.214   6.925  0.5557  0.0632 -0.1483
   58MOL    H8619580   4.486   3.373   6.852 -3.2190 -2.1862 -2.7526
   58MOL    C8719581   4.662   3.300   6.911 -1.0094 -0.8774  0.2455
   58MOL    C8819582   4.654   3.317   7.064  0.6432  0.1939  0.4810
   58MOL    C8919583   4.705   3.216   7.137 -1.2107 -0.4456  0.8189
   58MOL    C9019584   4.712   3.223   7.276  0.4583 -0.3826  0.2610
   58MOL    C9119585   4.661   3.340   7.344  0.1684  0.6226 -0.6239
   58MOL    O9219586   4.651   3.349   7.481  0.0583 -0.1771  0.7138
   58MOL    C9319587   4.596   3.437   7.268  0.1198 -0.0655  1.4733
   58MOL    C9419588   4.600   3.432   7.127  0.3379  0.3509  0.6659
   58MOL    C9519589   4.745   3.413   6.832 -0.9899 -0.0956  0.1215
   58MOL    H9619590   4.718   3.208   6.894 -1.5231 -1.1215 -0.1315
   58MOL    H9719591   4.751   3.131   7.088  0.6444  0.8659  0.2297
   58MOL    H9819592   4.762   3.155   7.343  1.8455  0.9735  0.6211
   58MOL    H9919593   4.640   3.442   7.491 -1.4803  0.0053 -2.0767
   58MOL   H10019594   4.540   3.516   7.316  1.8614  2.2121 -0.1303
   58MOL   H10119595   4.550   3.500   7.059  0.3592 -1.3817 -1.1152
   58MOL   H10219596   4.760   3.363   6.736  2.2354  0.9474  0.0520
   58MOL   H10319597   4.675   3.490   6.798 -0.7170 -0.6177 -1.7307
   58MOL   C10419598   4.888   3.444   6.876 -0.1471 -0.3931 -0.3286
   58MOL   C10519599   4.892   3.541   6.993  0.4827  0.3406 -0.0089
   58MOL   C10619600   4.926   3.493   7.123  0.0920  0.0660  0.6241
   58MOL   C10719601   4.941   3.589   7.225  0.1162 -0.1529 -0.0809
   58MOL   C10819602   4.930   3.721   7.202 -0.4160 -0.0072 -0.1242
   58MOL   O10919603   4.953   3.816   7.294  0.6134  0.3937 -0.0765
   58MOL   C11019604   4.896   3.774   7.078  0.4745  0.1705 -0.2120
   58MOL   C11119605   4.879   3.680   6.974  0.5580  0.2402  0.1980
   58MOL   C11219606   4.979   3.490   6.759 -0.0490 -0.3520  0.2882
   58MOL   H11319607   4.927   3.349   6.913 -1.4457 -1.1594 -0.8702
   58MOL   H11419608   4.934   3.390   7.156 -0.3184 -1.0086 -2.4752
   58MOL   H11519609   4.970   3.554   7.323  0.2165  2.5391  0.8884
   58MOL   H11619610   4.911   3.796   7.376 -0.4264  2.2854 -0.1061
   58MOL   H11719611   4.891   3.880   7.062 -0.0793  0.2539  0.4502
   58MOL   H11819612   4.859   3.717   6.874 -2.3602  1.9273  1.3478
   58MOL   H11919613   4.944   3.588   6.726  1.5953 -0.3137 -1.4371
   58MOL   H12019614   4.976   3.410   6.685 -1.2396 -0.5120  0.4945
   58MOL   C12119615   5.123   3.528   6.801 -0.3963  0.2645  0.6490
   58MOL   C12219616   5.193   3.424   6.889  0.1420 -0.1054 -0.1863
   58MOL   C12319617   5.215   3.453   7.027 -0.1742 -0.6601  0.2737
   58MOL   C12419618   5.281   3.352   7.107  0.0012  0.8027  0.1286
   58MOL   C12519619   5.315   3.229   7.060 -0.1033  0.0023  0.3380
   58MOL   O12619620   5.374   3.132   7.141 -0.3854 -0.2217  0.0273
   58MOL   C12719621   5.286   3.203   6.923 -0.5913  0.5991  0.1284
   58MOL   C12819622   5.236   3.303   6.839 -0.2087 -0.7474  0.2843
   58MOL   C12919623   5.209   3.575   6.684  0.7312 -0.2509  0.1828
   58MOL   H13019624   5.115   3.611   6.871  1.4496  0.8643  0.1732
   58MOL   H13119625   5.197   3.546   7.078  2.9834 -0.1805  0.6522
   58MOL   H13219626   5.310   3.373   7.210  0.6079 -2.6115  0.7033
   58MOL   H13319627   5.422   3.171   7.212  0.6408  1.8061 -1.7139
   58MOL   H13419628   5.311   3.109   6.876 -1.4106  0.2299  0.4258
   58MOL   H13519629   5.220   3.266   6.739  1.9906 -1.4103  0.1411
   58MOL   H13619630   5.157   3.634   6.609  1.8122  2.2859  1.3764
   58MOL   H13719631   5.244   3.493   6.620 -1.3422 -0.7117 -0.3792
   58MOL   C13819632   5.327   3.652   6.740 -0.5993 -0.5026  0.0479
   58MOL   C13919633   5.285   3.797   6.781 -0.5735  0.1849  0.0006
   58MOL   C14019634   5.234   3.889   6.684  0.0951  0.2816  0.3710
   58MOL   C14119635   5.174   4.012   6.723 -0.2919  0.0238  0.5759
   58MOL   C14219636   5.164   4.041   6.859 -1.1019  0.7868  0.6043
   58MOL   O14319637   5.117   4.162   6.892 -0.2196 -0.5256 -0.3120
   58MOL   C14419638   5.211   3.950   6.955 -0.0598  0.0304  0.5224
   58MOL   C14519639   5.273   3.827   6.919 -0.1022  0.2133  0.1534
   58MOL   C14619640   5.437   3.658   6.637 -0.6500 -0.3802  0.2310
   58MOL   H14719641   5.373   3.610   6.829 -0.5525 -0.3456  0.0984
   58MOL   H14819642   5.227   3.867   6.579 -0.1689  1.3532  0.1579
   58MOL   H14919643   5.141   4.078   6.643 -1.8380 -1.4357 -0.0055
   58MOL   H15019644   5.104   4.165   6.985 -1.1610 -3.3206 -0.3137
   58MOL   H15119645   5.209   3.969   7.062  1.6623  2.0767  0.2345
   58MOL   H15219646   5.302   3.752   6.991  0.4423 -0.1909 -0.4911
   58MOL   H15319647   5.507   3.728   6.683  0.4610 -1.4977  0.2503
   58MOL   H15419648   5.406   3.689   6.538  2.1619 -0.5432 -0.7198
   58MOL   C15519649   5.517   3.527   6.622  0.1075  0.3042  1.2780
   58MOL   C15619650   5.586   3.470   6.749 -0.3593 -0.4881  0.0369
   58MOL   C15719651   5.571   3.336   6.774 -0.5206  0.3170 -0.4616
   58MOL   C15819652   5.626   3.286   6.899  0.0743 -0.2247  0.3945
   58MOL   C15919653   5.691   3.368   6.984  0.2905  0.1093  0.1353
   58MOL   O16019654   5.748   3.312   7.090 -0.3289  0.3414  0.3099
   58MOL   C16119655   5.709   3.504   6.957  0.4926 -0.3991  0.0090
   58MOL   C16219656   5.664   3.557   6.830  0.3799  0.0652  0.6495
   58MOL   C16319657   5.622   3.548   6.510 -0.5326 -0.2476  0.5306
   58MOL   H16419658   5.447   3.457   6.578  0.2370 -0.3035  2.0366
   58MOL   H16519659   5.506   3.266   6.722  0.0667 -0.1044 -0.6356
   58MOL   H16619660   5.607   3.183   6.925  0.6272 -0.2392  0.7316
   58MOL   H16719661   5.822   3.369   7.107  1.6766 -2.5795  1.8538
   58MOL   H16819662   5.753   3.580   7.020  0.5244  0.2151 -0.7425
   58MOL   H16919663   5.682   3.657   6.795 -0.1314  0.0419  0.3149
   58MOL   H17019664   5.690   3.633   6.522 -0.1393 -0.2617 -1.4411
   58MOL   H17119665   5.552   3.563   6.428 -0.3144  0.4349  0.4641
   58MOL   C17219666   5.715   3.428   6.479  0.1890 -0.2491 -0.2165
   58MOL   C17319667   5.855   3.456   6.530 -0.2332 -0.4354  0.5302
   58MOL   C17419668   5.896   3.390   6.644  0.0776 -0.2212 -0.6938
   58MOL   C17519669   6.017   3.425   6.707 -0.3572 -1.1905 -0.0771
   58MOL   C17619670   6.101   3.528   6.653 -0.1400  0.2374 -0.0980
   58MOL   O17719671   6.211   3.559   6.724 -0.4988 -0.2954 -0.4988
   58MOL   C17819672   6.057   3.594   6.539 -0.3691  0.5375  0.2720
   58MOL   C17919673   5.941   3.551   6.472 -0.1865  0.1235 -0.8413
   58MOL   C18019674   5.706   3.396   6.330 -0.5245  0.3773 -0.3143
   58MOL   H18119675   5.677   3.340   6.530  0.2437 -0.1654 -0.0280
   58MOL   H18219676   5.829   3.314   6.683  0.2764  0.3981  0.8862
   58MOL   H18319677   6.057   3.378   6.796  1.8094  0.8555  0.0809
   58MOL   H18419678   6.217   3.511   6.805 -2.0482 -1.3100 -0.9681
   58MOL   H18519679   6.115   3.673   6.493 -0.1479  0.0822 -0.2252
   58MOL   H18619680   5.910   3.598   6.380 -0.2521 -0.2994 -1.0395
   58MOL   H18719681   5.745   3.483   6.278 -0.8551 -0.1072 -1.3837
   58MOL   H18819682   5.607   3.407   6.284 -0.5605  0.6980 -0.1691
   58MOL   C18919683   5.790   3.276   6.288  0.4584  0.5626 -0.0748
   58MOL   C19019684   5.704   3.174   6.214  0.2084  0.2720 -0.6459
   58MOL   C19119685   5.702   3.151   6.073  0.0444 -0.6781 -0.4997
   58MOL   C19219686   5.632   3.050   6.012  0.0402  0.4319  0.1642
   58MOL   C19319687   5.548   2.978   6.099 -0.0916 -0.3098 -0.6279
   58MOL   O19419688   5.464   2.889   6.044  0.2971  0.7685  0.0120
   58MOL   C19519689   5.544   3.001   6.242 -0.9090  0.4252 -0.5843
   58MOL   C19619690   5.622   3.097   6.296  0.2189  0.8487  0.5605
   58MOL   C19719691   5.917   3.320   6.209  0.0766  0.3776  0.4849
   58MOL   H19819692   5.825   3.224   6.377  1.2214 -1.9326 -1.7673
   58MOL   H19919693   5.755   3.210   6.000 -2.9641  2.2009 -0.4638
   58MOL   H20019694   5.634   3.047   5.904  3.3555  1.2096  0.1460
   58MOL   H20119695   5.417   2.852   6.116 -2.4263 -0.6768 -2.4035
   58MOL   H20219696   5.471   2.946   6.298  0.1377  0.7517  1.1474
   58MOL   H20319697   5.607   3.119   6.401  0.2251  0.1109  0.7207
   58MOL   H20419698   5.941   3.422   6.239 -1.2210  1.1499 -0.9933
   58MOL   H20519699   5.885   3.337   6.106 -2.6286 -1.0063  1.0569
   58MOL   C20619700   6.038   3.228   6.227 -0.2948 -0.0864 -0.2431
   58MOL   C20719701   6.165   3.297   6.182  0.6399 -0.1413 -0.3545
   58MOL   C20819702   6.231   3.387   6.272 -0.0618  0.0321 -0.4508
   58MOL   C20919703   6.346   3.462   6.226 -0.2419 -0.3620  0.8806
   58MOL   C21019704   6.382   3.456   6.091 -0.8026  0.5851  0.0702
   58MOL   O21119705   6.488   3.525   6.035  0.2117  0.0211  0.4155
   58MOL   C21219706   6.312   3.371   6.004  0.6424 -0.6738  0.0312
   58MOL   C21319707   6.207   3.288   6.048 -0.1684  0.0492 -0.6581
   58MOL   C21419708   6.023   3.087   6.165 -1.2279 -0.2453 -0.2190
   58MOL   H21519709   6.043   3.218   6.336 -2.9202 -0.4290 -0.1256
   58MOL   H21619710   6.190   3.399   6.371 -2.6762  0.2871 -1.5285
   58MOL   H21719711   6.415   3.512   6.292 -1.9518  2.0524  0.9027
   58MOL   H21819712   6.558   3.551   6.092  2.1449 -1.7634 -1.0675
   58MOL   H21919713   6.329   3.376   5.898  0.7586 -0.6737  0.0499
   58MOL   H22019714   6.151   3.231   5.975 -1.3377  1.0403 -0.5544
   58MOL   H22119715   6.015   3.093   6.056 -0.2227  0.4632 -0.2581
   58MOL   H22219716   5.924   3.044   6.178 -1.8300  1.4992  1.1396
   58MOL   C22319717   6.135   2.986   6.198 -0.2656 -0.1926 -0.2036
   58MOL   C22419718   6.136   2.875   6.085  0.5009  0.0180  0.3962
   58MOL   C22519719   6.054   2.769   6.082 -0.4074 -0.3373  0.2884
   58MOL   C22619720   6.061   2.669   5.982  1.0799 -0.4752 -0.7260
   58MOL   C22719721   6.170   2.671   5.889  0.1031  0.3353 -0.1174
   58MOL   O22819722   6.182   2.573   5.796 -0.2033 -0.2080 -0.0834
   58MOL   C22919723   6.255   2.776   5.889  0.3141  1.0279 -0.3113
   58MOL   C23019724   6.238   2.874   5.987 -0.2891  0.2259 -0.0288
   58MOL   C23119725   6.148   2.939   6.336  0.4614  0.1514 -0.0226
   58MOL   H23219726   6.228   3.041   6.179 -0.4560 -0.1210 -0.9352
   58MOL   H23319727   5.970   2.760   6.149 -0.9377 -2.5514 -0.6005
   58MOL   H23419728   5.987   2.590   5.981  2.8290 -2.1868  0.8099
   58MOL   H23519729   6.251   2.599   5.737  0.8940 -1.8961  0.4211
   58MOL   H23619730   6.338   2.790   5.822  3.0222 -1.0351  2.4549
   58MOL   H23719731   6.301   2.961   5.988  2.1203 -1.4831  0.3687
   58MOL   H23819732   6.140   3.022   6.406 -1.5235  0.5633 -0.7110
   58MOL   H23919733   6.054   2.886   6.355 -0.2574  1.0210 -1.0972
   58MOL   C24019734   6.274   2.861   6.381  0.2735 -0.3414  0.1684
   58MOL   C24119735   6.267   2.710   6.350 -0.0392  0.4943  0.3257
   58MOL   C24219736   6.359   2.654   6.266 -0.1406  1.4834  0.2920
   58MOL   C24319737   6.343   2.518   6.226  0.0758  0.1319  0.6698
   58MOL   C24419738   6.227   2.447   6.258  0.0903  0.5276  0.1205
   58MOL   O24519739   6.200   2.317   6.209 -0.0301 -0.2902  0.2607
   58MOL   C24619740   6.140   2.506   6.348  0.2649  0.2845 -0.5340
   58MOL   C24719741   6.162   2.630   6.404  0.4061 -0.6220  0.0683
   58MOL   C24819742   6.415   2.923   6.356  0.5110 -0.6677 -0.3494
   58MOL   H24919743   6.275   2.861   6.490 -2.3351 -0.8248  0.2340
   58MOL   H25019744   6.440   2.710   6.222  1.0411  0.7688  1.4797
   58MOL   H25119745   6.417   2.467   6.165 -1.3130  2.1759 -2.8456
   58MOL   H25219746   6.221   2.308   6.117  0.1505 -1.8082  0.4430
   58MOL   H25319747   6.055   2.443   6.373  0.5668 -1.1589 -2.9161
   58MOL   H25419748   6.101   2.683   6.476  0.9425  0.2256 -0.0913
   58MOL   H25519749   6.499   2.861   6.387  0.0576  0.1212  2.5848
   58MOL   H25619750   6.427   2.924   6.248 -0.3900 -0.7876 -0.4487
   58MOL   C25719751   6.442   3.065   6.415  0.1314 -0.0236 -0.5419
   58MOL   C25819752   6.397   3.075   6.553 -0.5887  0.3957  0.3390
   58MOL   C25919753   6.454   2.989   6.651 -0.9338  0.0953  0.3735
   58MOL   C26019754   6.431   3.010   6.794  0.0210 -0.2645  0.1281
   58MOL   C26119755   6.359   3.126   6.828 -0.0070  0.3439 -0.3834
   58MOL   O26219756   6.357   3.165   6.958  0.8048 -0.0271 -0.2527
   58MOL   C26319757   6.279   3.191   6.733 -0.5613 -0.2410  0.4869
   58MOL   C26419758   6.307   3.175   6.596  0.7659  0.0768 -0.1227
   58MOL   C26519759   6.588   3.094   6.415 -0.7040 -0.0038  0.1540
   58MOL   H26619760   6.388   3.138   6.356 -0.9545  0.4124  0.9867
   58MOL   H26719761   6.512   2.905   6.615  0.2434  0.3308  1.6402
   58MOL   H26819762   6.464   2.942   6.872  0.6965 -0.1517 -0.0567
   58MOL   H26919763   6.381   3.091   7.011  0.9246  1.4157  1.7345
   58MOL   H27019764   6.222   3.277   6.766  0.2694 -0.4063  2.4493
   58MOL   H27119765   6.260   3.241   6.524  1.7871  0.0709 -0.8087
   58MOL   H27219766   6.645   3.001   6.423  0.6386  0.5246 -2.4281
   58MOL   H27319767   6.617   3.158   6.498  1.5616 -0.2962 -0.3518
   58MOL   C27419768   6.651   3.159   6.287  0.4167  0.7429 -0.5351
   58MOL   C27519769   6.637   3.070   6.159 -0.1150 -0.2139  0.5313
   58MOL   C27619770   6.571   3.107   6.039 -0.0347  1.0024  0.0443
   58MOL   C27719771   6.568   3.022   5.923  0.3957  0.5583 -0.0975
   58MOL   C27819772   6.620   2.888   5.929  0.1875  0.1015 -0.4339
   58MOL   O27919773   6.602   2.799   5.829  0.3842  0.1992  0.3076
   58MOL   C28019774   6.676   2.848   6.054 -0.3376  0.2826  0.0512
   58MOL   C28119775   6.685   2.939   6.162  0.7871  0.6915  0.2142
   58MOL   C28219776   6.796   3.213   6.304 -0.2971  0.2799 -0.6862
   58MOL   H28319777   6.594   3.248   6.259 -0.7170  0.5265  0.9994
   58MOL   H28419778   6.510   3.195   6.027 -2.5490 -0.7310 -0.3046
   58MOL   H28519779   6.529   3.052   5.826 -0.4389 -1.0246 -0.2705
   58MOL   H28619780   6.661   2.727   5.846 -0.7109 -0.4724  1.3677
   58MOL   H28719781   6.718   2.749   6.065 -0.9058 -0.1759 -1.6220
   58MOL   H28819782   6.725   2.891   6.250 -0.5735 -2.2293 -0.6908
   58MOL   H28919783   6.861   3.152   6.367 -1.7725  1.6995  2.3615
   58MOL   H29019784   6.839   3.200   6.205  0.4574  0.0065 -0.3280
   58MOL   C29119785   6.808   3.355   6.366  0.0101 -0.7805 -0.2858
   58MOL   C29219786   6.775   3.466   6.272  0.0220  0.4738  0.5348
   58MOL   C29319787   6.689   3.570   6.312  0.7661  0.5151  0.3342
   58MOL   C29419788   6.674   3.679   6.223 -0.0350  0.2180 -0.3228
   58MOL   C29519789   6.742   3.678   6.102 -0.0353  0.2830 -0.3833
   58MOL   O29619790   6.724   3.785   6.024 -0.0352  0.7633  0.4072
   58MOL   C29719791   6.819   3.573   6.059  0.5306 -0.0691 -0.1958
   58MOL   C29819792   6.837   3.464   6.142 -0.0651 -0.4179  0.5439
   58MOL   C29919793   6.949   3.383   6.432 -0.1364  0.0267  0.7030
   58MOL   H30019794   6.727   3.359   6.439  0.4068 -0.4652  0.1356
   58MOL   H30119795   6.645   3.576   6.410  0.8624 -1.0837  0.4903
   58MOL   H30219796   6.622   3.769   6.252 -0.8545 -0.1255 -0.7234
   58MOL   H30319797   6.638   3.821   6.040  0.2153  2.0478 -0.9587
   58MOL   H30419798   6.860   3.581   5.960  0.4271  0.5741 -0.1917
   58MOL   H30519799   6.917   3.395   6.120  1.1944  0.8082  1.2038
   58MOL   H30619800   6.968   3.488   6.410 -1.0941  0.2032  0.6814
   58MOL   H30719801   7.020   3.315   6.386 -1.7398 -1.8903  0.9909
   58MOL   C30819802   6.945   3.382   6.582 -0.2101 -0.6113 -0.3044
   58MOL   C30919803   7.069   3.445   6.650 -0.1072  0.0477  0.0776
   58MOL   C31019804   7.202   3.397   6.624 -0.2709  0.9279 -0.6395
   58MOL   C31119805   7.307   3.455   6.695  0.0205  0.2309  0.3732
   58MOL   C31219806   7.287   3.566   6.776  0.2472 -0.7554  0.0071
   58MOL   O31319807   7.388   3.612   6.852  0.1696  0.3838 -0.1479
   58MOL   C31419808   7.162   3.622   6.793  0.5746 -0.8223 -0.6842
   58MOL   C31519809   7.048   3.561   6.731 -0.3678  0.6415 -0.0794
   58MOL   C31619810   6.908   3.243   6.639 -0.5033  0.1650 -0.0091
   58MOL   H31719811   6.861   3.444   6.613 -1.1986 -0.4086 -3.1967
   58MOL   H31819812   7.213   3.308   6.563  1.7269  2.1048 -2.0477
   58MOL   H31919813   7.406   3.412   6.688  0.2309  0.6284  0.8858
   58MOL   H32019814   7.470   3.565   6.855 -0.6392 -1.0011  1.0072
   58MOL   H32119815   7.146   3.712   6.850  0.9294 -0.5445 -1.0199
   58MOL   H32219816   6.949   3.604   6.740 -0.7413 -0.2739  0.2448
   58MOL   H32319817   6.988   3.179   6.602 -0.8573 -1.2935  1.6488
   58MOL   H32419818   6.816   3.217   6.586 -1.2850 -3.2172  2.7982
   58MOL   C32519819   6.886   3.220   6.785 -0.1638 -0.4397 -0.2158
   58MOL   C32619820   6.895   3.073   6.831 -0.4368  0.4280 -0.4677
   58MOL   C32719821   6.799   2.975   6.798 -0.0730  0.3107  0.2317
   58MOL   C32819822   6.798   2.842   6.855 -0.2166 -0.2197  0.1128
   58MOL   C32919823   6.910   2.813   6.943 -0.1349  0.2478  0.3226
   58MOL   O33019824   6.924   2.681   6.975 -0.1542 -0.2656 -0.5169
   58MOL   C33119825   7.003   2.914   6.985 -0.3075  0.3956  0.1132
   58MOL   C33219826   7.001   3.041   6.925  0.1963 -0.1984  0.1623
   58MOL   C33319827   6.751   3.270   6.833  0.1470 -0.2558 -0.6705
   58MOL   H33419828   6.968   3.272   6.836  0.3358 -1.7155  0.2912
   58MOL   H33519829   6.731   2.989   6.715 -0.1819 -1.2187  0.0568
   58MOL   H33619830   6.734   2.768   6.809  3.3254 -3.5218  0.1910
   58MOL   H33719831   7.002   2.654   7.021 -1.5258 -0.9196  1.5392
   58MOL   H33819832   7.081   2.893   7.056 -0.8063  2.4456  1.3003
   58MOL   H33919833   7.070   3.115   6.960 -2.7862  1.4263  2.8957
   58MOL   H34019834   6.750   3.379   6.842  0.3479 -0.1833 -1.4705
   58MOL   H34119835   6.720   3.248   6.935  0.7755  2.9609  0.2746
   58MOL   H34219836   6.666   3.237   6.772 -0.8506 -1.3249  1.2621
   59MOL     C119837   1.131   1.880   2.226 -0.9973 -0.7508 -0.7564
   59MOL     C219838   1.252   1.865   2.318  0.0074 -0.5704 -0.1861
   59MOL     C319839   1.382   1.871   2.268 -0.8240 -0.1459 -0.0707
   59MOL     C419840   1.494   1.888   2.356 -0.1397  0.3410  0.0578
   59MOL     C519841   1.470   1.908   2.495  0.2398  0.0998  0.2577
   59MOL     O619842   1.577   1.937   2.583  0.6301 -0.4024 -0.0263
   59MOL     C719843   1.338   1.892   2.542  0.8579  0.2522 -0.3944
   59MOL     C819844   1.226   1.869   2.458  0.3010 -0.7304  0.9335
   59MOL     C919845   1.111   1.757   2.139 -0.3793  0.4304 -0.4621
   59MOL    H1019846   1.044   1.891   2.291 -1.4323 -1.5187 -1.2018
   59MOL    H1119847   1.396   1.864   2.161 -2.4865  3.2345 -0.5788
   59MOL    H1219848   1.596   1.891   2.320  0.1347  2.7695  0.9334
   59MOL    H1319849   1.659   1.935   2.537 -0.4701  0.7842 -2.1158
   59MOL    H1419850   1.318   1.921   2.644 -2.5104 -2.6348 -0.1407
   59MOL    H1519851   1.122   1.874   2.489 -0.4907 -0.8671 -1.6055
   59MOL    H1619852   1.124   1.667   2.198  1.8425  1.7301  1.1006
   59MOL    H1719853   1.195   1.758   2.070 -0.5719  2.3241 -0.7110
   59MOL    H1819854   1.147   1.975   2.174  1.4802  0.7901  2.6210
   59MOL    C1919855   0.975   1.747   2.069 -0.9982  0.1307 -0.4246
   59MOL    C2019856   0.926   1.601   2.068  0.0220  0.3367  0.2669
   59MOL    C2119857   1.010   1.492   2.025  0.7857  0.0578 -0.2757
   59MOL    C2219858   0.955   1.364   2.015  0.1786  0.2546 -0.2564
   59MOL    C2319859   0.823   1.336   2.039 -0.0302  0.4731 -0.1335
   59MOL    O2419860   0.773   1.209   2.014  0.8835  0.4056 -0.0769
   59MOL    C2519861   0.742   1.438   2.090 -0.0067  0.6602  0.2668
   59MOL    C2619862   0.796   1.570   2.113 -0.5954 -0.5460 -0.0818
   59MOL    C2719863   0.990   1.806   1.929 -0.8585 -0.4971 -0.0487
   59MOL    H2819864   0.900   1.801   2.126  0.6431  1.2336  0.7503
   59MOL    H2919865   1.116   1.504   2.006  1.2213 -0.1393  1.9803
   59MOL    H3019866   1.027   1.287   1.989  0.8620  0.1103  1.9606
   59MOL    H3119867   0.820   1.137   2.052 -0.0973 -0.9657 -1.4084
   59MOL    H3219868   0.639   1.424   2.122 -0.1420  1.0034 -0.0163
   59MOL    H3319869   0.729   1.646   2.149  0.9885  0.6615  0.3338
   59MOL    H3419870   0.894   1.783   1.882 -0.8361 -2.2537  0.7191
   59MOL    H3519871   1.066   1.750   1.875  0.6203  1.5102 -0.1021
   59MOL    C3619872   1.029   1.956   1.913 -0.0206  0.1753  0.3986
   59MOL    C3719873   0.945   2.053   1.990  0.0640  0.5221  0.0399
   59MOL    C3819874   0.810   2.026   2.021  0.8404 -0.0443 -0.2779
   59MOL    C3919875   0.740   2.117   2.096  0.3278 -0.1442 -0.0310
   59MOL    C4019876   0.795   2.230   2.152 -0.0332  0.2072 -0.6398
   59MOL    O4119877   0.726   2.306   2.240  0.1743 -0.4091  0.4568
   59MOL    C4219878   0.926   2.262   2.117  0.1990  0.4754 -0.0594
   59MOL    C4319879   0.998   2.178   2.031 -0.1375 -0.8012  0.0608
   59MOL    C4419880   1.040   1.990   1.766 -0.3078  0.3043  0.8503
   59MOL    H4519881   1.127   1.964   1.961 -0.4958  1.2022  1.2037
   59MOL    H4619882   0.757   1.936   1.992 -2.0758  1.4850  0.0206
   59MOL    H4719883   0.635   2.107   2.117  1.0733 -3.5896  2.5499
   59MOL    H4819884   0.636   2.278   2.252 -0.2151  0.6075 -0.0126
   59MOL    H4919885   0.965   2.358   2.147  0.8616  0.2778 -0.2764
   59MOL    H5019886   1.100   2.206   2.008 -0.2748 -0.9464 -0.7403
   59MOL    H5119887   0.938   1.980   1.730 -1.8977  1.7622  4.6928
   59MOL    H5219888   1.065   2.094   1.745  1.7246 -0.3416 -0.0613
   59MOL    C5319889   1.124   1.899   1.675  0.0426  0.0629 -0.2069
   59MOL    C5419890   1.119   1.943   1.527  0.2669  0.8865 -0.5005
   59MOL    C5519891   1.171   2.069   1.479  1.2263 -0.5373 -0.3336
   59MOL    C5619892   1.163   2.098   1.343 -0.3218 -0.0927  0.1266
   59MOL    C5719893   1.101   2.012   1.252  0.2537 -0.3014  0.4829
   59MOL    O5819894   1.074   2.057   1.126  0.1001 -0.8397 -0.5163
   59MOL    C5919895   1.070   1.879   1.295 -0.1460  0.4249 -0.1319
   59MOL    C6019896   1.078   1.846   1.434 -0.4101  0.3585 -0.5497
   59MOL    C6119897   1.268   1.876   1.722  1.2843  0.0974 -0.5255
   59MOL    H6219898   1.075   1.802   1.674  1.9125 -0.9081 -1.0283
   59MOL    H6319899   1.217   2.143   1.543 -2.0902  1.8060 -0.4899
   59MOL    H6419900   1.202   2.197   1.323  0.2865  0.2190  2.6295
   59MOL    H6519901   1.023   2.009   1.062 -2.5187 -0.9557  1.5786
   59MOL    H6619902   1.035   1.800   1.231 -1.1905 -0.2560  1.2450
   59MOL    H6719903   1.050   1.750   1.474  0.7454 -0.1254 -0.9002
   59MOL    H6819904   1.273   1.846   1.827 -1.0680 -0.7660 -0.6335
   59MOL    H6919905   1.321   1.971   1.718  1.9786 -0.2378  0.5606
   59MOL    C7019906   1.350   1.772   1.641 -0.6845  0.0133 -0.8139
   59MOL    C7119907   1.288   1.641   1.616 -0.3535 -0.0754  0.2877
   59MOL    C7219908   1.282   1.591   1.484 -0.0856 -0.3145 -1.0308
   59MOL    C7319909   1.231   1.471   1.452 -0.0132  0.1719  0.1893
   59MOL    C7419910   1.174   1.390   1.552  0.0995  0.0197 -0.0111
   59MOL    O7519911   1.129   1.265   1.524  0.0698  0.2669  0.3568
   59MOL    C7619912   1.191   1.430   1.688  0.4018  0.3412  0.2921
   59MOL    C7719913   1.245   1.556   1.724  0.3998 -0.0640  0.2876
   59MOL    C7819914   1.497   1.767   1.682 -0.9332 -0.3658  0.7347
   59MOL    H7919915   1.370   1.802   1.538  3.8892 -0.3873 -0.1521
   59MOL    H8019916   1.326   1.647   1.403  0.0900  2.3605  0.8589
   59MOL    H8119917   1.222   1.449   1.347  1.0447 -0.6758  0.2660
   59MOL    H8219918   1.194   1.212   1.480 -0.7880 -2.6670  2.4881
   59MOL    H8319919   1.162   1.367   1.771  1.1993  0.6676  0.8221
   59MOL    H8419920   1.251   1.594   1.825  1.9766 -1.3003  0.6818
   59MOL    H8519921   1.533   1.665   1.666 -0.0981  0.1596 -0.7781
   59MOL    H8619922   1.515   1.793   1.787  1.5614 -2.2000  0.7878
   59MOL    C8719923   1.589   1.873   1.606 -0.7461  0.0505 -0.3188
   59MOL    C8819924   1.628   1.819   1.468  0.3556  0.3272  0.4077
   59MOL    C8919925   1.595   1.893   1.351 -0.3228 -0.1072 -0.6445
   59MOL    C9019926   1.625   1.840   1.225 -0.1827 -0.4703 -0.3777
   59MOL    C9119927   1.662   1.705   1.216  0.6446  0.5199 -0.2453
   59MOL    O9219928   1.652   1.644   1.092 -0.3231  0.3076 -0.3335
   59MOL    C9319929   1.705   1.626   1.325  0.3288 -0.2125  0.2926
   59MOL    C9419930   1.688   1.691   1.449 -0.4161 -0.2664 -0.0757
   59MOL    C9519931   1.722   1.904   1.677 -0.2449  0.1904  0.3099
   59MOL    H9619932   1.540   1.970   1.593 -0.2658  0.5393  1.3770
   59MOL    H9719933   1.556   1.994   1.355  0.2428  0.1385 -1.2278
   59MOL    H9819934   1.601   1.900   1.138 -2.7810 -0.8153  0.0596
   59MOL    H9919935   1.639   1.703   1.019  1.1262 -0.8874 -1.5816
   59MOL   H10019936   1.752   1.529   1.319  0.1903 -0.2247 -0.7449
   59MOL   H10119937   1.727   1.638   1.535 -2.3279 -1.3244  0.1728
   59MOL   H10219938   1.772   1.810   1.702  1.0447  1.7603  4.0171
   59MOL   H10319939   1.789   1.953   1.607 -0.2136  0.0093  0.2135
   59MOL   C10419940   1.715   1.996   1.802  0.1776 -0.5095  0.3834
   59MOL   C10519941   1.589   2.085   1.809 -0.0659  0.0498  0.8835
   59MOL   C10619942   1.569   2.194   1.724 -0.4056  0.0037 -0.3712
   59MOL   C10719943   1.461   2.283   1.736 -0.3041 -0.6715  0.6938
   59MOL   C10819944   1.368   2.264   1.840 -0.9191  0.1199  0.7945
   59MOL   O10919945   1.268   2.357   1.876 -0.0514  0.2660  0.3688
   59MOL   C11019946   1.378   2.154   1.918 -0.3286 -0.1296 -0.1448
   59MOL   C11119947   1.488   2.067   1.910 -0.2061 -0.4651  0.1553
   59MOL   C11219948   1.843   2.081   1.825  0.0917  0.2214  0.6965
   59MOL   H11319949   1.692   1.930   1.886 -1.0251  0.1084  0.5484
   59MOL   H11419950   1.640   2.207   1.644  1.9247 -1.8621  1.3333
   59MOL   H11519951   1.451   2.363   1.663  1.6576 -1.3249 -0.3318
   59MOL   H11619952   1.313   2.441   1.870  1.4048 -0.5795 -1.3051
   59MOL   H11719953   1.308   2.138   1.999 -1.3863 -0.3335 -1.0804
   59MOL   H11819954   1.495   1.989   1.984 -2.5378  1.4865  2.5275
   59MOL   H11919955   1.861   2.138   1.734  1.1104 -0.5491  0.4135
   59MOL   H12019956   1.926   2.015   1.848  2.9405  3.3710 -0.0864
   59MOL   C12119957   1.839   2.184   1.942  0.1516 -0.6186 -0.3822
   59MOL   C12219958   1.837   2.121   2.082  0.6102 -0.4339 -0.2538
   59MOL   C12319959   1.732   2.151   2.177 -0.1717  0.2752  0.4837
   59MOL   C12419960   1.729   2.104   2.311  0.6316 -0.5567 -0.3917
   59MOL   C12519961   1.823   2.009   2.342 -0.3918 -0.3865  0.0565
   59MOL   O12619962   1.833   1.947   2.462  0.0124 -0.5108  0.1772
   59MOL   C12719963   1.912   1.956   2.247  0.1297  0.3132 -0.1642
   59MOL   C12819964   1.925   2.019   2.124 -0.1398 -0.5501 -0.4264
   59MOL   C12919965   1.942   2.299   1.931 -0.4357 -0.2800  0.1199
   59MOL   H13019966   1.744   2.236   1.932  2.2527  3.3770 -0.9372
   59MOL   H13119967   1.661   2.226   2.146  1.2750  2.0053  1.3174
   59MOL   H13219968   1.658   2.142   2.382 -0.0901 -0.8158 -0.9700
   59MOL   H13319969   1.919   1.941   2.499  0.2786  0.3559 -0.2896
   59MOL   H13419970   1.977   1.874   2.272  1.5112  1.3148 -0.3772
   59MOL   H13519971   1.991   1.987   2.045 -0.4274  0.5442 -1.1236
   59MOL   H13619972   1.947   2.314   1.823  0.1763  0.0162  0.1810
   59MOL   H13719973   2.041   2.262   1.958 -0.5562 -1.5628 -1.1272
   59MOL   C13819974   1.903   2.435   2.002  0.2985 -0.0993  0.0108
   59MOL   C13919975   1.762   2.476   1.978 -0.0828  0.4232  0.4975
   59MOL   C14019976   1.669   2.469   2.082  0.9456  0.1512  0.2027
   59MOL   C14119977   1.535   2.516   2.060 -1.0557 -0.6254  0.2892
   59MOL   C14219978   1.497   2.569   1.938  0.0690 -0.0109  0.2676
   59MOL   O14319979   1.370   2.609   1.921 -0.2894  0.5669  0.3323
   59MOL   C14419980   1.588   2.579   1.832 -0.2602  0.7936 -0.0977
   59MOL   C14519981   1.718   2.527   1.853 -0.4514 -0.2417 -1.0864
   59MOL   C14619982   2.000   2.559   1.969 -0.0645 -0.3519  0.0807
   59MOL   H14719983   1.915   2.413   2.108  0.7860  0.9421  0.1782
   59MOL   H14819984   1.708   2.429   2.174  1.3960  0.6103  0.2164
   59MOL   H14919985   1.464   2.518   2.141 -0.0225  3.3747  1.2024
   59MOL   H15019986   1.348   2.678   1.982 -0.5293  1.5519 -0.8536
   59MOL   H15119987   1.553   2.613   1.736 -3.4482 -2.0621 -0.0250
   59MOL   H15219988   1.791   2.545   1.775 -1.4558  0.1024 -1.9644
   59MOL   H15319989   1.996   2.561   1.860  0.3461  0.5083  0.0746
   59MOL   H15419990   2.104   2.537   1.992  0.0903 -1.2659 -1.4929
   59MOL   C15519991   1.968   2.706   2.008 -0.2312 -0.1405 -0.0029
   59MOL   C15619992   1.953   2.798   1.892 -0.1193 -0.0723  0.3079
   59MOL   C15719993   2.060   2.821   1.804  0.0875 -0.4834  0.5840
   59MOL   C15819994   2.050   2.913   1.701  0.1716 -0.0355 -0.9193
   59MOL   C15919995   1.930   2.980   1.670  0.6137  0.0405 -0.0780
   59MOL   O16019996   1.933   3.074   1.575  0.2930 -0.3206  0.2467
   59MOL   C16119997   1.812   2.951   1.750 -0.2418 -0.0981  0.0819
   59MOL   C16219998   1.828   2.856   1.855 -0.2512 -0.0580 -0.0535
   59MOL   C16319999   2.071   2.769   2.115 -0.8539 -0.4963  0.8897
   59MOL   H16420000   1.873   2.709   2.062  0.0760 -2.8110  0.7153
   59MOL   H16520001   2.158   2.775   1.815 -0.7793 -2.5427 -0.0183
   59MOL   H16620002   2.137   2.933   1.640  0.5985  1.0718  0.0402
   59MOL   H16720003   2.022   3.075   1.542 -0.1444  1.0779 -0.9745
   59MOL   H16820004   1.711   2.988   1.743 -1.2461 -2.4852  1.2037
   59MOL   H16920005   1.745   2.845   1.923 -0.5655  0.4833 -0.3521
   59MOL   H17020006   2.175   2.781   2.082 -1.1722 -0.1378 -0.0126
   59MOL   H17120007   2.083   2.692   2.191 -0.8074 -2.1571 -0.7379
   59MOL   C17220008   2.041   2.910   2.173 -0.4369 -0.1106 -0.5038
   59MOL   C17320009   2.062   3.029   2.073 -0.3095 -0.1484  0.9498
   59MOL   C17420010   1.958   3.111   2.030 -0.2093  0.0500  0.6768
   59MOL   C17520011   1.970   3.205   1.920  0.4264  0.1329 -0.1523
   59MOL   C17620012   2.093   3.226   1.858  0.4077  0.4513 -0.0015
   59MOL   O17720013   2.105   3.308   1.748  0.1270 -0.3679 -0.3047
   59MOL   C17820014   2.202   3.148   1.909  0.3319 -0.4681  0.3220
   59MOL   C17920015   2.188   3.055   2.011 -0.3768  0.5264 -0.2106
   59MOL   C18020016   2.121   2.946   2.300 -0.8112 -0.3700  0.1874
   59MOL   H18120017   1.938   2.904   2.209 -0.3676 -1.1921 -0.4683
   59MOL   H18220018   1.856   3.090   2.060 -0.6941  1.4397  0.0740
   59MOL   H18320019   1.884   3.258   1.883 -0.3916  1.1295  2.9990
   59MOL   H18420020   2.020   3.322   1.711  0.2915 -1.1160 -0.9710
   59MOL   H18520021   2.304   3.152   1.873 -0.2091  0.0788 -1.1845
   59MOL   H18620022   2.275   3.000   2.043 -0.9668  0.2016  0.8614
   59MOL   H18720023   2.227   2.961   2.279 -1.3202  1.0616 -1.4440
   59MOL   H18820024   2.110   2.867   2.374  1.4088  0.4184  1.4142
   59MOL   C18920025   2.076   3.073   2.373 -0.1768 -0.5555  0.4988
   59MOL   C19020026   1.932   3.052   2.421  0.3423  0.2014  0.2798
   59MOL   C19120027   1.825   3.144   2.388 -0.0821 -0.4753 -0.7686
   59MOL   C19220028   1.699   3.140   2.443 -0.2756  0.3976  0.0834
   59MOL   C19320029   1.674   3.040   2.542 -0.1362  0.4202 -0.8306
   59MOL   O19420030   1.556   3.025   2.602 -0.0733  0.1572  0.8535
   59MOL   C19520031   1.773   2.943   2.573  0.4311  0.6990  0.0631
   59MOL   C19620032   1.899   2.951   2.515  0.1513 -0.3279  0.3754
   59MOL   C19720033   2.172   3.114   2.488  0.0305  1.1023 -0.2589
   59MOL   H19820034   2.066   3.153   2.299  1.2853 -1.6782 -0.9487
   59MOL   H19920035   1.850   3.225   2.321  0.3514  0.0555  0.0289
   59MOL   H20020036   1.624   3.215   2.421  0.9419  1.9356  1.0892
   59MOL   H20120037   1.503   3.103   2.600 -0.7740 -0.3074  0.9160
   59MOL   H20220038   1.754   2.861   2.640  1.9449 -0.0431 -0.3975
   59MOL   H20320039   1.974   2.880   2.544 -0.1052  0.1725  2.3287
   59MOL   H20420040   2.275   3.123   2.454  0.6387  1.9212  1.7308
   59MOL   H20520041   2.167   3.032   2.560 -0.7334  2.4899  1.2991
   59MOL   C20620042   2.131   3.252   2.545 -0.1276 -0.2836  0.9763
   59MOL   C20720043   2.255   3.342   2.568  0.7806 -0.1859  0.5099
   59MOL   C20820044   2.324   3.330   2.692 -0.9040  0.9116 -0.4757
   59MOL   C20920045   2.434   3.409   2.719 -0.0967 -0.2902 -0.1893
   59MOL   C21020046   2.473   3.508   2.622  0.6044  0.4230 -0.3579
   59MOL   O21120047   2.581   3.583   2.648 -0.3247 -0.7761 -0.0177
   59MOL   C21220048   2.390   3.533   2.502 -0.3201  0.2976 -0.2245
   59MOL   C21320049   2.284   3.447   2.484  0.5686 -0.0316  0.4605
   59MOL   C21420050   2.028   3.240   2.663 -0.3677 -0.6164 -0.5429
   59MOL   H21520051   2.073   3.296   2.464  1.5429  0.5121  0.1814
   59MOL   H21620052   2.301   3.258   2.769 -1.9673 -0.2719 -1.8584
   59MOL   H21720053   2.486   3.406   2.814 -0.2388 -1.4712 -0.1475
   59MOL   H21820054   2.610   3.570   2.737  2.7197 -0.6998 -0.9376
   59MOL   H21920055   2.414   3.600   2.421  1.1596  0.6747  0.5108
   59MOL   H22020056   2.233   3.453   2.389 -0.5869 -1.8373  0.9279
   59MOL   H22120057   2.075   3.181   2.742 -2.8087 -0.2134  1.2872
   59MOL   H22220058   1.945   3.172   2.642 -0.1435 -1.4409  1.1340
   59MOL   C22320059   1.974   3.372   2.730 -0.1722 -0.3062 -0.1955
   59MOL   C22420060   1.975   3.499   2.648  0.4900  0.4989  0.3539
   59MOL   C22520061   2.051   3.612   2.686 -0.3274 -0.3508 -0.7189
   59MOL   C22620062   2.034   3.734   2.619 -0.0740 -0.9487  0.1023
   59MOL   C22720063   1.950   3.744   2.506  0.5737 -0.2547 -0.1982
   59MOL   O22820064   1.938   3.856   2.429 -0.1488  0.6569  0.3318
   59MOL   C22920065   1.888   3.624   2.463  0.9947 -0.4393 -0.3664
   59MOL   C23020066   1.889   3.512   2.537  0.7236  1.0239  0.1551
   59MOL   C23120067   2.018   3.388   2.875  0.0930 -0.1410 -0.1459
   59MOL   H23220068   1.868   3.352   2.745 -0.1679 -0.6617 -0.6370
   59MOL   H23320069   2.121   3.609   2.768 -1.4122  1.1988  0.2848
   59MOL   H23420070   2.098   3.817   2.646 -1.3598 -0.4818  1.7867
   59MOL   H23520071   2.028   3.884   2.412 -0.5618  1.4652 -0.6325
   59MOL   H23620072   1.832   3.625   2.371 -1.7809  0.4566  1.2909
   59MOL   H23720073   1.825   3.433   2.501  1.4973  0.5949 -0.2948
   59MOL   H23820074   2.023   3.289   2.920 -0.3573  0.4607  1.2448
   59MOL   H23920075   2.117   3.435   2.876  0.0527 -0.0863  1.0075
   59MOL   C24020076   1.932   3.476   2.971  0.7506  0.6280  0.4389
   59MOL   C24120077   1.783   3.435   2.991 -0.8610 -0.0817  0.1182
   59MOL   C24220078   1.753   3.314   3.068 -0.0040 -0.9648 -0.0030
   59MOL   C24320079   1.620   3.284   3.103 -0.5808  0.1955  0.7230
   59MOL   C24420080   1.517   3.372   3.061  0.1591 -0.0121  0.2375
   59MOL   O24520081   1.388   3.334   3.088 -0.1607 -0.6913 -0.1308
   59MOL   C24620082   1.546   3.483   2.972 -0.3114  0.0136  0.3368
   59MOL   C24720083   1.677   3.510   2.932 -0.4432  0.2635  0.4025
   59MOL   C24820084   1.995   3.519   3.109  0.2960 -0.0280  0.2300
   59MOL   H24920085   1.910   3.576   2.934  0.3293  0.2759 -0.2661
   59MOL   H25020086   1.833   3.256   3.110  0.1250 -0.2218  0.7779
   59MOL   H25120087   1.605   3.192   3.159  1.6719 -2.3399 -2.6035
   59MOL   H25220088   1.387   3.245   3.117  0.4211 -0.9430 -0.8718
   59MOL   H25320089   1.460   3.538   2.939 -1.1328 -1.8088 -0.6709
   59MOL   H25420090   1.684   3.587   2.858  0.9391  1.1352  1.4093
   59MOL   H25520091   1.992   3.435   3.178 -0.3380  2.2848  3.1133
   59MOL   H25620092   2.099   3.545   3.093  0.1847 -0.1858 -0.7893
   59MOL   C25720093   1.926   3.648   3.169  0.4236  0.5476 -0.7928
   59MOL   C25820094   1.939   3.653   3.318 -0.6940  0.6015 -0.6174
   59MOL   C25920095   1.832   3.691   3.396 -0.0147  0.8433  0.3411
   59MOL   C26020096   1.838   3.695   3.537  0.3325 -0.4912 -0.0455
   59MOL   C26120097   1.956   3.657   3.602  0.1297 -0.7564 -0.0481
   59MOL   O26220098   1.968   3.679   3.734  0.0435  0.2356  0.5517
   59MOL   C26320099   2.065   3.615   3.526 -0.5502 -0.3424  0.5334
   59MOL   C26420100   2.058   3.607   3.385 -0.4916 -1.2188  0.2168
   59MOL   C26520101   1.978   3.789   3.111 -0.1246  0.5206  0.3650
   59MOL   H26620102   1.819   3.639   3.148  0.6417 -1.0428 -1.3171
   59MOL   H26720103   1.749   3.744   3.353 -0.4391  1.0142  1.3464
   59MOL   H26820104   1.757   3.741   3.592  1.6713  2.1475 -0.2230
   59MOL   H26920105   1.889   3.682   3.786  0.4913 -1.3577  1.3607
   59MOL   H27020106   2.161   3.602   3.574  0.4594  2.3345 -0.6082
   59MOL   H27120107   2.146   3.581   3.328  0.6272  1.5122  0.5903
   59MOL   H27220108   2.013   3.762   3.011  1.9691 -0.1627  1.2606
   59MOL   H27320109   2.066   3.819   3.168 -0.3231  2.0088 -0.0817
   59MOL   C27420110   1.882   3.903   3.109 -0.6887  0.7974  0.4840
   59MOL   C27520111   1.778   3.880   2.995 -0.0424  1.3696 -0.8776
   59MOL   C27620112   1.817   3.886   2.856 -0.0594 -0.6887 -0.3795
   59MOL   C27720113   1.717   3.885   2.760 -0.6042  0.1580 -0.2560
   59MOL   C27820114   1.586   3.854   2.796 -0.3350  0.3463 -0.2204
   59MOL   O27920115   1.493   3.848   2.694 -0.0229  0.2365  0.2161
   59MOL   C28020116   1.554   3.836   2.928  0.9610  0.0023 -0.1631
   59MOL   C28120117   1.645   3.844   3.031  0.0232  0.0908  0.3075
   59MOL   C28220118   1.966   4.030   3.076 -0.6191 -0.3706  0.0626
   59MOL   H28320119   1.840   3.902   3.210  1.8981 -2.3127  1.6028
   59MOL   H28420120   1.920   3.899   2.826 -0.9773  2.7338 -2.2537
   59MOL   H28520121   1.748   3.896   2.658 -1.4786  2.6666 -0.2882
   59MOL   H28620122   1.512   3.890   2.612  1.8365 -0.1818  0.3973
   59MOL   H28720123   1.456   3.793   2.943  0.1538  1.5398 -0.9731
   59MOL   H28820124   1.615   3.828   3.133 -0.7102  0.8789  0.2280
   59MOL   H28920125   2.032   4.058   3.158  0.3672  0.1044 -0.8754
   59MOL   H29020126   2.025   4.022   2.985 -1.2337  4.4305 -0.8546
   59MOL   C29120127   1.878   4.158   3.044 -0.1759 -0.2960  0.7535
   59MOL   C29220128   1.974   4.264   2.989  0.5527 -0.1427 -0.9683
   59MOL   C29320129   2.068   4.317   3.078  0.3753 -0.0434 -0.1445
   59MOL   C29420130   2.159   4.415   3.030 -0.7619  0.0434 -0.2151
   59MOL   C29520131   2.163   4.443   2.890 -0.1237  0.1995  0.3316
   59MOL   O29620132   2.250   4.542   2.846 -0.5685 -0.1518  0.0054
   59MOL   C29720133   2.076   4.379   2.801 -0.5301  0.5617  0.5381
   59MOL   C29820134   1.974   4.295   2.852 -0.0761  0.1227  0.0068
   59MOL   C29920135   1.795   4.207   3.167 -0.2112  0.0665  0.6493
   59MOL   H30020136   1.804   4.151   2.965  0.2947  0.8462  0.1950
   59MOL   H30120137   2.065   4.299   3.185  0.9632  0.7421  0.0095
   59MOL   H30220138   2.231   4.463   3.095 -1.4622 -1.7811  1.9917
   59MOL   H30320139   2.278   4.595   2.919  1.9318  0.3977 -1.3052
   59MOL   H30420140   2.093   4.398   2.696 -2.9643 -1.3936 -0.2257
   59MOL   H30520141   1.900   4.239   2.796  0.6232 -2.7132  1.8158
   59MOL   H30620142   1.848   4.216   3.262  1.4154  0.2252 -0.2527
   59MOL   H30720143   1.734   4.118   3.182  0.8824 -0.8583 -0.2233
   59MOL   C30820144   1.717   4.347   3.161 -0.4067  0.3835  0.6832
   59MOL   C30920145   1.804   4.470   3.191 -0.2328  0.1315  0.4817
   59MOL   C31020146   1.831   4.567   3.088  0.0114  0.3154 -0.5146
   59MOL   C31120147   1.902   4.687   3.120  0.5643  0.5328  0.1188
   59MOL   C31220148   1.974   4.698   3.246  0.5568 -0.5694  0.3916
   59MOL   O31320149   2.061   4.804   3.258  0.0873  0.2325 -0.1961
   59MOL   C31420150   1.943   4.606   3.352  0.1482  0.2889  0.5956
   59MOL   C31520151   1.857   4.502   3.325  0.1386  1.2346 -0.3278
   59MOL   C31620152   1.596   4.343   3.258 -0.0892 -0.2540  0.0592
   59MOL   H31720153   1.680   4.364   3.060  1.3572  0.7456  0.0739
   59MOL   H31820154   1.803   4.550   2.985  3.1025  0.0077 -1.3680
   59MOL   H31920155   1.921   4.756   3.040 -1.1428  1.9739  0.9287
   59MOL   H32020156   2.033   4.871   3.198 -0.7826  0.0316 -0.0176
   59MOL   H32120157   1.979   4.614   3.454 -0.8741  0.2214  0.9728
   59MOL   H32220158   1.834   4.431   3.403 -2.1235  1.1296 -1.0538
   59MOL   H32320159   1.552   4.440   3.279 -1.2162 -0.8456  0.4949
   59MOL   H32420160   1.628   4.308   3.357  1.9351  2.2942  0.3655
   59MOL   C32520161   1.481   4.252   3.213  0.0594 -0.5093 -0.3984
   59MOL   C32620162   1.427   4.287   3.078  0.3644 -0.0476  0.2011
   59MOL   C32720163   1.363   4.408   3.055 -0.6039 -0.6480  0.1936
   59MOL   C32820164   1.309   4.441   2.924  0.4597  0.0694 -0.7153
   59MOL   C32920165   1.321   4.343   2.826  0.3800  0.3788  0.5416
   59MOL   O33020166   1.277   4.377   2.699 -0.1515  0.7712 -0.0984
   59MOL   C33120167   1.381   4.210   2.860  0.3156 -0.2264 -0.0177
   59MOL   C33220168   1.439   4.187   2.978  0.7013  0.0220  0.0606
   59MOL   C33320169   1.365   4.254   3.320 -0.1617  0.2993 -0.0504
   59MOL   H33420170   1.514   4.148   3.216  1.5486 -0.0768 -1.4200
   59MOL   H33520171   1.368   4.487   3.129 -0.8872 -0.8927  0.4689
   59MOL   H33620172   1.248   4.524   2.891  0.6603  0.6846  0.4407
   59MOL   H33720173   1.323   4.326   2.634  0.6845  2.6772 -1.0411
   59MOL   H33820174   1.389   4.141   2.777 -1.0999  0.6109 -0.8527
   59MOL   H33920175   1.495   4.095   2.982 -0.3686 -0.7920 -2.6923
   59MOL   H34020176   1.287   4.329   3.303  0.4559  0.8048 -0.7014
   59MOL   H34120177   1.388   4.265   3.426  0.0007 -0.5513  0.0027
   59MOL   H34220178   1.301   4.166   3.316 -0.6631  0.6524  0.2143
   60MOL     C120179   5.596   3.464   4.310 -0.4315 -0.5318  0.6034
   60MOL     C220180   5.516   3.463   4.433 -0.0057 -0.1934 -0.4368
   60MOL     C320181   5.379   3.423   4.430 -0.1868 -0.3988  0.6166
   60MOL     C420182   5.304   3.409   4.548 -0.5946  1.0433 -0.3529
   60MOL     C520183   5.361   3.433   4.677  0.1474  0.3234 -0.5592
   60MOL     O620184   5.291   3.427   4.794  0.0379  0.3521 -0.4978
   60MOL     C720185   5.500   3.451   4.680 -0.2402 -0.1427  0.3199
   60MOL     C820186   5.577   3.465   4.561  0.9680 -0.2343  0.3879
   60MOL     C920187   5.705   3.356   4.304 -0.6808 -0.2120 -0.1314
   60MOL    H1020188   5.536   3.456   4.219 -0.5613 -0.7184  0.7050
   60MOL    H1120189   5.340   3.403   4.332  1.1519  0.9999 -0.2152
   60MOL    H1220190   5.200   3.383   4.536 -0.9790  1.3625  2.1558
   60MOL    H1320191   5.346   3.434   4.871 -0.5376  1.3361 -0.1693
   60MOL    H1420192   5.545   3.470   4.776 -1.9457  3.8822  0.4291
   60MOL    H1520193   5.680   3.496   4.565  0.4570  1.8241 -1.3651
   60MOL    H1620194   5.765   3.367   4.395 -0.7595 -0.1835 -0.0826
   60MOL    H1720195   5.771   3.372   4.219  0.0949  0.0401  0.5099
   60MOL    H1820196   5.632   3.567   4.308 -2.0840  0.0619  0.6530
   60MOL    C1920197   5.655   3.210   4.315  0.8453  0.5697  0.0764
   60MOL    C2020198   5.758   3.115   4.379 -0.1506  0.1159 -0.4821
   60MOL    C2120199   5.876   3.083   4.315 -0.1436  0.0209 -0.1769
   60MOL    C2220200   5.962   2.983   4.366 -0.3572  0.1897  0.0826
   60MOL    C2320201   5.927   2.911   4.485  0.6796  0.2806  0.2116
   60MOL    O2420202   6.007   2.816   4.536  0.1696 -0.6243  0.0078
   60MOL    C2520203   5.803   2.939   4.547 -0.0780 -0.0151 -0.5145
   60MOL    C2620204   5.722   3.044   4.496  0.2643 -1.1832 -0.1068
   60MOL    C2720205   5.606   3.159   4.173  1.3033  0.7165  0.3116
   60MOL    H2820206   5.568   3.209   4.381 -1.4477  2.1698 -2.8270
   60MOL    H2920207   5.906   3.138   4.227  0.3955 -0.2437 -0.1611
   60MOL    H3020208   6.051   2.944   4.319  0.2173  1.3423  0.1973
   60MOL    H3120209   6.000   2.795   4.628  1.2099 -2.8293 -0.3713
   60MOL    H3220210   5.782   2.886   4.639  1.3686 -0.0147 -0.1749
   60MOL    H3320211   5.626   3.061   4.542  0.5415 -4.2386  1.7404
   60MOL    H3420212   5.688   3.105   4.125  1.9997  1.1597  0.9921
   60MOL    H3520213   5.603   3.243   4.104  2.7365 -0.8438 -1.7245
   60MOL    C3620214   5.468   3.093   4.172  0.6858  0.7945  0.0309
   60MOL    C3720215   5.463   2.952   4.225  1.0358  0.2753  0.0499
   60MOL    C3820216   5.513   2.840   4.145 -0.1596  0.6156 -0.0279
   60MOL    C3920217   5.506   2.711   4.206  0.3612 -0.0942  0.0321
   60MOL    C4020218   5.440   2.690   4.327 -0.7798  0.7322  0.7635
   60MOL    O4120219   5.431   2.565   4.376 -0.1020  0.2824 -0.1210
   60MOL    C4220220   5.388   2.796   4.403 -0.4188  0.4101  0.0436
   60MOL    C4320221   5.403   2.929   4.355  0.0624 -0.3464 -0.1489
   60MOL    C4420222   5.414   3.085   4.024  0.1497 -0.2362 -0.3203
   60MOL    H4520223   5.400   3.159   4.226 -2.0468 -1.3892 -0.6236
   60MOL    H4620224   5.554   2.855   4.046 -1.8798 -0.3035 -0.8938
   60MOL    H4720225   5.538   2.621   4.154  1.8244  0.3907  0.0806
   60MOL    H4820226   5.363   2.557   4.441  0.0913 -0.7636 -0.0504
   60MOL    H4920227   5.338   2.766   4.494 -3.9236 -1.1881 -2.2979
   60MOL    H5020228   5.364   3.005   4.421 -0.2640  0.0469 -0.7860
   60MOL    H5120229   5.418   3.186   3.981 -0.0605  0.4487  1.2331
   60MOL    H5220230   5.478   3.032   3.954  1.5813 -0.3435  1.0412
   60MOL    C5320231   5.270   3.036   4.016 -0.3605  0.5670 -0.2954
   60MOL    C5420232   5.172   3.151   4.043  0.5561  0.4792 -0.0729
   60MOL    C5520233   5.113   3.157   4.169  0.9405 -0.7989 -0.4193
   60MOL    C5620234   5.022   3.259   4.194  0.0810 -0.1922 -0.5390
   60MOL    C5720235   4.989   3.353   4.099 -0.9422  1.0106 -0.2743
   60MOL    O5820236   4.885   3.435   4.121  0.6105  0.0922 -0.0564
   60MOL    C5920237   5.049   3.359   3.979 -0.5055  0.7645 -0.0553
   60MOL    C6020238   5.143   3.254   3.946  0.0211  0.4963 -0.5208
   60MOL    C6120239   5.237   2.950   3.898 -0.5427 -0.2583 -0.2608
   60MOL    H6220240   5.250   2.968   4.098 -0.2361  0.2675 -0.5135
   60MOL    H6320241   5.115   3.078   4.242  1.5928 -0.7602 -0.3912
   60MOL    H6420242   4.968   3.270   4.287 -1.7497  0.5281 -1.6691
   60MOL    H6520243   4.878   3.474   4.206  1.0280 -0.3991  0.2107
   60MOL    H6620244   5.034   3.430   3.898  0.3027  1.4213  0.3559
   60MOL    H6720245   5.186   3.250   3.846 -2.4023 -0.1520 -1.5662
   60MOL    H6820246   5.307   2.867   3.911 -1.1966 -0.5366  1.6667
   60MOL    H6920247   5.270   3.012   3.815 -1.4295 -0.6448 -0.9065
   60MOL    C7020248   5.089   2.903   3.901  0.7454 -0.1292  0.2738
   60MOL    C7120249   5.057   2.802   4.014 -0.0108 -0.3954 -0.1085
   60MOL    C7220250   4.955   2.823   4.105 -1.1319  0.2629  0.6482
   60MOL    C7320251   4.924   2.721   4.198 -0.5732 -0.1255  0.4902
   60MOL    C7420252   5.007   2.607   4.209 -0.5555  0.1013  0.7400
   60MOL    O7520253   4.978   2.505   4.299 -0.2362 -0.3423  0.3526
   60MOL    C7620254   5.128   2.601   4.134  0.0331  0.5319  0.3114
   60MOL    C7720255   5.153   2.700   4.040 -0.1162  0.3399 -0.2322
   60MOL    C7820256   5.050   2.847   3.763  1.0051 -0.6014  0.9248
   60MOL    H7920257   5.029   2.994   3.901  2.2225  0.8577  0.4469
   60MOL    H8020258   4.886   2.905   4.094  1.3809  2.1914 -1.3306
   60MOL    H8120259   4.825   2.722   4.239 -0.0325  2.0774  1.8082
   60MOL    H8220260   5.047   2.452   4.335  1.1417  0.7192 -0.6713
   60MOL    H8320261   5.203   2.523   4.141  1.0692  1.2675 -2.0526
   60MOL    H8420262   5.238   2.676   3.978  0.9077 -2.0225  1.9496
   60MOL    H8520263   5.083   2.743   3.763 -2.0475 -1.6319 -1.1445
   60MOL    H8620264   5.104   2.901   3.684 -2.0049 -1.3892 -1.7632
   60MOL    C8720265   4.897   2.844   3.726  0.5443  0.5706 -0.1665
   60MOL    C8820266   4.857   2.758   3.601 -0.0758 -0.1348  0.2360
   60MOL    C8920267   4.951   2.721   3.504 -0.5220  0.2737  0.1284
   60MOL    C9020268   4.908   2.661   3.388 -0.1861 -0.5653 -0.2951
   60MOL    C9120269   4.788   2.600   3.375 -0.2713 -0.7054 -0.7450
   60MOL    O9220270   4.758   2.514   3.273  0.6959  0.3517 -0.0659
   60MOL    C9320271   4.694   2.616   3.486  0.2868 -0.4974  0.3144
   60MOL    C9420272   4.730   2.696   3.592 -0.8796 -0.3849  0.5407
   60MOL    C9520273   4.832   2.985   3.719  0.3894  0.4562  0.4989
   60MOL    H9620274   4.841   2.798   3.808 -0.2075  0.5316 -0.6992
   60MOL    H9720275   5.054   2.753   3.506 -0.1332 -1.0307  1.0388
   60MOL    H9820276   4.986   2.637   3.317 -1.5292 -2.2298 -1.2485
   60MOL    H9920277   4.810   2.532   3.197  1.4239  0.6853  0.5010
   60MOL   H10020278   4.595   2.572   3.492 -0.5005  1.2338  0.2714
   60MOL   H10120279   4.659   2.721   3.670 -0.9578  0.2273  0.2768
   60MOL   H10220280   4.727   2.996   3.747  0.7340 -0.7752  2.3437
   60MOL   H10320281   4.876   3.052   3.793 -0.1451 -0.2435  1.4550
   60MOL   C10420282   4.832   3.055   3.584 -0.2661 -0.2004  0.2678
   60MOL   C10520283   4.975   3.074   3.528 -0.5269  0.7067  0.0426
   60MOL   C10620284   4.993   3.005   3.407 -0.4411 -0.5609 -0.3661
   60MOL   C10720285   5.123   3.007   3.354 -0.6110 -0.1082 -0.0807
   60MOL   C10820286   5.232   3.076   3.416  0.0583 -0.2476 -0.2362
   60MOL   O10920287   5.349   3.076   3.354 -0.2732 -0.3573 -0.3296
   60MOL   C11020288   5.206   3.144   3.534  0.1523  0.5878  0.0189
   60MOL   C11120289   5.075   3.150   3.589  0.0320 -0.2898  0.0486
   60MOL   C11220290   4.764   3.189   3.588 -0.0606 -0.1264 -0.4125
   60MOL   H11320291   4.780   2.982   3.522  1.5627 -1.6922  0.4697
   60MOL   H11420292   4.914   2.941   3.370 -0.3367 -1.9218  1.6871
   60MOL   H11520293   5.142   2.948   3.265 -0.3900  0.9677 -0.7593
   60MOL   H11620294   5.339   3.053   3.263  1.6132  1.6211 -1.0940
   60MOL   H11720295   5.288   3.204   3.571 -0.8031  2.3142 -0.6020
   60MOL   H11820296   5.047   3.214   3.672  1.1353  0.7655 -0.3670
   60MOL   H11920297   4.816   3.270   3.538 -0.4518  0.2674 -0.1844
   60MOL   H12020298   4.778   3.229   3.689 -0.1865  2.7504 -1.4962
   60MOL   C12120299   4.628   3.190   3.511  0.1092 -0.2369 -0.3681
   60MOL   C12220300   4.536   3.306   3.551 -0.2328 -0.5669 -0.0696
   60MOL   C12320301   4.411   3.279   3.613 -0.5632 -0.1842 -0.2052
   60MOL   C12420302   4.323   3.382   3.644  0.6309  0.1969 -0.1828
   60MOL   C12520303   4.368   3.516   3.620  0.2943  0.2957  0.3151
   60MOL   O12620304   4.289   3.620   3.654  0.2235 -1.1813  0.4600
   60MOL   C12720305   4.496   3.536   3.574 -0.2746 -0.0395  0.0246
   60MOL   C12820306   4.582   3.430   3.535 -0.4744  0.0336 -0.0618
   60MOL   C12920307   4.655   3.186   3.360 -0.4587 -0.2263 -0.0577
   60MOL   H13020308   4.584   3.097   3.549 -1.5567  1.0099  0.8246
   60MOL   H13120309   4.380   3.179   3.636 -0.9556 -0.2429 -1.0006
   60MOL   H13220310   4.227   3.368   3.689  0.6897  0.1099 -0.0840
   60MOL   H13320311   4.315   3.711   3.648 -0.3646 -1.1442 -1.8900
   60MOL   H13420312   4.533   3.637   3.568 -3.4115  1.0895 -1.5416
   60MOL   H13520313   4.683   3.451   3.504 -0.2997 -0.2542  0.3030
   60MOL   H13620314   4.723   3.104   3.338 -0.6278 -0.1825 -0.7541
   60MOL   H13720315   4.701   3.280   3.329  2.9272 -1.8051  0.0081
   60MOL   C13820316   4.521   3.163   3.280 -0.8303 -0.1910  0.8570
   60MOL   C13920317   4.445   3.048   3.335 -0.4151  0.0591 -0.7275
   60MOL   C14020318   4.302   3.070   3.360 -0.1436 -0.4294 -0.0023
   60MOL   C14120319   4.231   2.976   3.432  0.8147  0.2766  0.1838
   60MOL   C14220320   4.290   2.852   3.463  0.0429  0.0869 -0.4395
   60MOL   O14320321   4.218   2.753   3.531  0.5175  0.2851 -0.0614
   60MOL   C14420322   4.425   2.829   3.423 -0.3153  0.2699  0.4816
   60MOL   C14520323   4.503   2.925   3.360 -0.1095  0.3945  0.1441
   60MOL   C14620324   4.538   3.145   3.131  0.0709 -0.0784  0.2690
   60MOL   H14720325   4.465   3.255   3.296 -1.4901 -0.3213 -0.6449
   60MOL   H14820326   4.257   3.167   3.342  1.4598  0.7036  1.8925
   60MOL   H14920327   4.130   2.999   3.462  0.3061 -3.6390  1.7354
   60MOL   H15020328   4.155   2.800   3.583  1.4872  0.0649  1.3455
   60MOL   H15120329   4.472   2.734   3.445  0.1552  0.8965  2.2203
   60MOL   H15220330   4.608   2.904   3.344 -0.4754  0.1004 -2.0121
   60MOL   H15320331   4.441   3.120   3.088  0.5871  1.8097 -2.1270
   60MOL   H15420332   4.602   3.060   3.106 -1.5472 -1.2624  0.0479
   60MOL   C15520333   4.593   3.272   3.063 -0.2207  0.0406 -0.2166
   60MOL   C15620334   4.487   3.380   3.076  0.3332 -0.2793  0.2846
   60MOL   C15720335   4.518   3.496   3.145 -0.1288  0.3798 -0.0994
   60MOL   C15820336   4.421   3.590   3.186  0.0549  0.0803  0.4646
   60MOL   C15920337   4.287   3.580   3.153  0.0410 -1.0602  0.0459
   60MOL   O16020338   4.193   3.673   3.194  0.3397 -0.4831  0.9024
   60MOL   C16120339   4.255   3.461   3.081  0.5997 -0.3490  0.3207
   60MOL   C16220340   4.351   3.366   3.043  0.0954  0.5186  0.0403
   60MOL   C16320341   4.637   3.258   2.918 -0.4190  0.1352 -0.3904
   60MOL   H16420342   4.681   3.297   3.122 -1.5442  0.5808  1.5681
   60MOL   H16520343   4.616   3.515   3.187 -1.2537  1.8409  1.9603
   60MOL   H16620344   4.456   3.681   3.232  1.6424 -0.2303 -0.1167
   60MOL   H16720345   4.107   3.658   3.158 -1.4097  2.9049  3.4320
   60MOL   H16820346   4.156   3.432   3.052 -0.2751  1.8840  0.9636
   60MOL   H16920347   4.318   3.275   2.996  0.8461 -0.2651  1.0109
   60MOL   H17020348   4.553   3.230   2.855 -0.7407 -0.9643  0.5265
   60MOL   H17120349   4.710   3.178   2.915  0.0204  0.5346 -0.3944
   60MOL   C17220350   4.689   3.386   2.844  0.0489 -0.2402 -0.7679
   60MOL   C17320351   4.718   3.359   2.695  0.7129 -0.0695 -0.2917
   60MOL   C17420352   4.656   3.438   2.603 -0.0134  0.2626  0.2649
   60MOL   C17520353   4.685   3.427   2.466 -0.0209  1.0246 -0.1044
   60MOL   C17620354   4.764   3.322   2.421 -0.2212  0.9238  0.3324
   60MOL   O17720355   4.789   3.305   2.292 -0.1295 -0.0011 -0.5552
   60MOL   C17820356   4.813   3.224   2.511 -0.1434  0.2799 -0.0467
   60MOL   C17920357   4.793   3.248   2.650  0.5053  0.0377 -0.0680
   60MOL   C18020358   4.805   3.460   2.916 -0.1219  0.5674 -0.3244
   60MOL   H18120359   4.599   3.446   2.846  0.2188  0.0267 -1.0978
   60MOL   H18220360   4.586   3.512   2.638 -1.7543 -2.4494  2.7757
   60MOL   H18320361   4.652   3.495   2.390 -0.1782  0.6275 -0.3911
   60MOL   H18420362   4.756   3.222   2.264 -1.8575  0.6646 -0.5455
   60MOL   H18520363   4.866   3.135   2.484 -1.9166 -0.5378 -0.8959
   60MOL   H18620364   4.839   3.183   2.722 -0.1588  0.2709  0.5665
   60MOL   H18720365   4.898   3.409   2.894 -0.9050 -1.2337  0.4821
   60MOL   H18820366   4.781   3.469   3.022  2.6929  3.6221  0.1268
   60MOL   C18920367   4.824   3.601   2.858 -0.7413  0.0108  0.0678
   60MOL   C19020368   4.718   3.697   2.911 -0.4897  0.4940 -0.0479
   60MOL   C19120369   4.611   3.736   2.827 -0.7569  0.3487  0.1299
   60MOL   C19220370   4.516   3.823   2.867  0.0983 -0.0691 -0.5587
   60MOL   C19320371   4.521   3.879   2.997  0.5368 -0.6242 -0.0726
   60MOL   O19420372   4.420   3.956   3.044 -0.2817  0.1319  0.6585
   60MOL   C19520373   4.635   3.862   3.079  0.2670  0.4846  0.1726
   60MOL   C19620374   4.732   3.764   3.032 -0.1002 -0.0465  0.7265
   60MOL   C19720375   4.969   3.655   2.885  0.5229 -0.0560 -0.3068
   60MOL   H19820376   4.801   3.596   2.752  0.0693  0.8041 -0.1597
   60MOL   H19920377   4.607   3.712   2.721  0.1714  0.2112  0.1167
   60MOL   H20020378   4.436   3.844   2.798  2.3264  2.0041 -2.6055
   60MOL   H20120379   4.388   3.917   3.124  0.9202 -1.5113  0.3796
   60MOL   H20220380   4.646   3.912   3.173 -2.0384  1.1377  0.1131
   60MOL   H20320381   4.820   3.759   3.095  0.1742 -0.1223  0.3406
   60MOL   H20420382   5.037   3.580   2.844  2.0625  0.1066  1.8657
   60MOL   H20520383   4.996   3.673   2.989 -0.0112  0.9890 -0.3389
   60MOL   C20620384   5.003   3.781   2.804 -0.0380  0.2269  0.4794
   60MOL   C20720385   4.975   3.768   2.655  0.5152 -0.2081  0.3138
   60MOL   C20820386   4.896   3.864   2.584 -0.2147 -0.0864  1.0308
   60MOL   C20920387   4.857   3.846   2.453  0.1832 -0.2932 -0.3782
   60MOL   C21020388   4.894   3.731   2.386  0.0000 -0.2200  0.4840
   60MOL   O21120389   4.844   3.703   2.264  0.0892  0.5300  0.0326
   60MOL   C21220390   4.972   3.639   2.455 -0.3301  0.6004  0.5661
   60MOL   C21320391   5.013   3.653   2.589  0.4709 -0.3420 -0.3714
   60MOL   C21420392   5.151   3.823   2.808 -0.1190  0.2608 -0.0599
   60MOL   H21520393   4.931   3.854   2.842  0.9121 -0.1905  3.2053
   60MOL   H21620394   4.875   3.960   2.628  1.0570  0.2848  0.8418
   60MOL   H21720395   4.797   3.917   2.399 -0.2035 -2.5343 -2.9791
   60MOL   H21820396   4.877   3.621   2.229 -1.0962 -0.1565  0.5039
   60MOL   H21920397   4.999   3.550   2.398  2.5189  0.8872  1.3866
   60MOL   H22020398   5.055   3.566   2.637  1.5801  1.0343  1.2442
   60MOL   H22120399   5.177   3.885   2.723  0.4839  0.6002  0.3678
   60MOL   H22220400   5.208   3.732   2.791 -2.0229 -1.0800  0.5469
   60MOL   C22320401   5.196   3.901   2.938 -0.8220 -0.1445 -0.6619
   60MOL   C22420402   5.099   4.014   2.951  0.7476  0.8112 -0.7689
   60MOL   C22520403   5.091   4.115   2.853  0.8999  0.3293  0.2412
   60MOL   C22620404   4.986   4.211   2.853 -0.5563 -0.4359 -0.2798
   60MOL   C22720405   4.898   4.207   2.967 -0.4271 -0.1750  0.3621
   60MOL   O22820406   4.788   4.291   2.967  0.4666 -0.6460  0.2405
   60MOL   C22920407   4.906   4.112   3.065  0.1751 -0.1178 -0.3568
   60MOL   C23020408   5.014   4.020   3.064  0.0266  0.6753  0.0792
   60MOL   C23120409   5.345   3.946   2.940  1.2067  0.1175 -0.6484
   60MOL   H23220410   5.193   3.830   3.021 -0.0160  1.6431  0.9388
   60MOL   H23320411   5.164   4.110   2.774 -0.7146  0.6728 -1.2962
   60MOL   H23420412   4.976   4.281   2.772  0.9842  0.8052  0.5750
   60MOL   H23520413   4.752   4.289   3.055  0.4979  3.6500  0.4524
   60MOL   H23620414   4.824   4.111   3.136 -2.0908  0.7622 -2.8591
   60MOL   H23720415   5.024   3.948   3.144 -0.7210  0.6582  0.1550
   60MOL   H23820416   5.403   3.888   2.868 -1.5867 -2.0839 -1.2416
   60MOL   H23920417   5.338   4.046   2.897  2.6731  0.6994  0.4533
   60MOL   C24020418   5.406   3.974   3.081 -0.3804  1.1217 -0.7128
   60MOL   C24120419   5.461   3.847   3.145 -0.0331  0.1608  0.1545
   60MOL   C24220420   5.431   3.830   3.282 -0.4032  0.5532  0.5403
   60MOL   C24320421   5.469   3.711   3.340 -0.2685 -0.2828 -0.2926
   60MOL   C24420422   5.535   3.609   3.273  0.6188  0.2306  0.2585
   60MOL   O24520423   5.571   3.497   3.337  0.1091  0.0841  0.5142
   60MOL   C24620424   5.559   3.624   3.135  0.2552  0.3075 -0.1742
   60MOL   C24720425   5.532   3.746   3.074 -0.2533  0.0637  0.1699
   60MOL   C24820426   5.510   4.085   3.084 -0.3579  0.2001 -0.4604
   60MOL   H24920427   5.320   4.008   3.138 -0.8608  1.0750 -1.3952
   60MOL   H25020428   5.374   3.908   3.331  2.7775  2.6570  1.0587
   60MOL   H25120429   5.450   3.703   3.446  1.1756  1.4929  0.1241
   60MOL   H25220430   5.615   3.438   3.278 -1.0544  0.1766 -0.4642
   60MOL   H25320431   5.596   3.532   3.092  1.6630  0.1944  1.2169
   60MOL   H25420432   5.551   3.756   2.968 -1.3692  3.6535  0.2476
   60MOL   H25520433   5.570   4.081   3.175  0.0506  2.2798 -0.6232
   60MOL   H25620434   5.583   4.072   3.004  0.8987  1.3681  0.4776
   60MOL   C25720435   5.445   4.229   3.090 -0.2249 -0.6845  0.6935
   60MOL   C25820436   5.361   4.250   3.215  0.3227  0.4332 -0.0265
   60MOL   C25920437   5.225   4.277   3.199  0.8098  0.2182 -0.2443
   60MOL   C26020438   5.142   4.293   3.305  0.0461 -0.2727 -0.4755
   60MOL   C26120439   5.196   4.294   3.435  0.2377 -0.2298  0.3649
   60MOL   O26220440   5.116   4.308   3.543 -0.8741 -0.6996 -0.2636
   60MOL   C26320441   5.334   4.272   3.459 -0.3628 -0.5104 -0.2992
   60MOL   C26420442   5.415   4.252   3.348 -0.4049 -0.6818 -0.5438
   60MOL   C26520443   5.549   4.335   3.080  0.5239  0.0260  0.8693
   60MOL   H26620444   5.379   4.241   3.004  0.5184  0.3468  0.2598
   60MOL   H26720445   5.186   4.279   3.099 -1.1257 -1.0799  0.4442
   60MOL   H26820446   5.035   4.306   3.293 -0.0288  0.7171  1.0815
   60MOL   H26920447   5.153   4.271   3.622  1.5834 -0.9074 -1.4672
   60MOL   H27020448   5.368   4.255   3.560 -2.3906 -0.6383  0.3836
   60MOL   H27120449   5.517   4.228   3.374 -0.1112  1.1987  0.1699
   60MOL   H27220450   5.624   4.311   3.006  0.4288  0.0816  0.7557
   60MOL   H27320451   5.626   4.324   3.156  0.0951  0.4859  1.3831
   60MOL   C27420452   5.502   4.486   3.069 -0.5315 -0.5234 -0.1201
   60MOL   C27520453   5.403   4.507   2.960  0.1806  0.2423 -0.3168
   60MOL   C27620454   5.272   4.537   2.999 -0.6505  0.5481 -0.4941
   60MOL   C27720455   5.174   4.565   2.901  0.5851  1.1476 -1.3925
   60MOL   C27820456   5.209   4.566   2.764 -0.2996 -0.1752  0.4938
   60MOL   O27920457   5.126   4.607   2.663  0.3690 -0.3636 -0.7787
   60MOL   C28020458   5.338   4.529   2.729  0.3912 -0.1269  0.0390
   60MOL   C28120459   5.437   4.497   2.822 -0.4771 -0.0422 -0.2605
   60MOL   C28220460   5.614   4.595   3.080 -0.1344  0.2025  0.6261
   60MOL   H28320461   5.448   4.508   3.161 -1.0384  1.1363 -0.7972
   60MOL   H28420462   5.253   4.551   3.104 -1.7789 -1.2479 -0.4570
   60MOL   H28520463   5.068   4.576   2.918  0.5323  0.5070 -1.3228
   60MOL   H28620464   5.050   4.651   2.698 -1.0372 -2.7465 -0.7223
   60MOL   H28720465   5.373   4.536   2.628  0.3041  1.3812  0.1027
   60MOL   H28820466   5.543   4.494   2.802 -0.4202  3.7147 -0.9372
   60MOL   H28920467   5.667   4.584   3.175 -0.2004 -1.0818  0.5263
   60MOL   H29020468   5.684   4.553   3.008 -1.4802 -1.0740  0.0273
   60MOL   C29120469   5.594   4.745   3.034  0.1892  0.2175 -0.8341
   60MOL   C29220470   5.721   4.813   2.996  0.2585 -1.1820 -0.7330
   60MOL   C29320471   5.740   4.867   2.863 -0.1029 -0.1926  0.3671
   60MOL   C29420472   5.856   4.936   2.829  0.3685  0.0511  0.7891
   60MOL   C29520473   5.955   4.951   2.923 -0.0940  0.0462 -0.4392
   60MOL   O29620474   6.065   5.024   2.885 -0.0126  0.2109  0.3663
   60MOL   C29720475   5.943   4.900   3.053 -0.1211 -0.4692  0.0071
   60MOL   C29820476   5.832   4.823   3.087 -0.8244 -0.3811 -0.3638
   60MOL   C29920477   5.511   4.830   3.139 -0.2474 -0.0282 -0.5896
   60MOL   H30020478   5.538   4.745   2.941 -0.1175  3.6226 -0.6898
   60MOL   H30120479   5.658   4.862   2.794  0.6793  2.8035 -0.8623
   60MOL   H30220480   5.866   4.970   2.727 -1.4652  0.0158  0.5754
   60MOL   H30320481   6.065   5.074   2.805 -2.0436 -0.1161  0.1418
   60MOL   H30420482   6.016   4.921   3.130 -0.5226  1.1987 -0.0271
   60MOL   H30520483   5.836   4.783   3.187  4.2817  0.2120 -0.1735
   60MOL   H30620484   5.567   4.842   3.232 -0.1092 -2.2124 -0.3629
   60MOL   H30720485   5.435   4.764   3.180  0.9565  0.1067  2.0102
   60MOL   C30820486   5.446   4.955   3.074 -0.4045  1.1732 -0.4386
   60MOL   C30920487   5.438   5.068   3.176 -0.3482 -0.2090 -0.5725
   60MOL   C31020488   5.555   5.142   3.212 -0.5035 -0.6624  0.0324
   60MOL   C31120489   5.540   5.259   3.291 -0.2685 -0.5770  0.0245
   60MOL   C31220490   5.409   5.293   3.342 -0.0821  0.3607  0.6331
   60MOL   O31320491   5.390   5.399   3.423 -0.2706  0.0817 -0.1679
   60MOL   C31420492   5.297   5.222   3.304 -0.3069 -0.4462  0.0864
   60MOL   C31520493   5.311   5.105   3.230  0.5690  0.7353  0.4353
   60MOL   C31620494   5.317   4.930   2.995 -0.1369  0.2569 -0.0870
   60MOL   H31720495   5.526   4.988   3.008  1.8012 -0.9870  1.0608
   60MOL   H31820496   5.648   5.122   3.162 -0.6375 -0.7218 -0.1913
   60MOL   H31920497   5.630   5.314   3.315 -1.7985  2.4828 -1.0067
   60MOL   H32020498   5.326   5.453   3.379  2.8260  2.7331 -1.6774
   60MOL   H32120499   5.198   5.246   3.339 -0.6583  0.1255 -1.2579
   60MOL   H32220500   5.221   5.054   3.199  0.5395  0.1188  1.5054
   60MOL   H32320501   5.239   4.906   3.067 -1.1593  0.9728 -0.9417
   60MOL   H32420502   5.332   4.836   2.942 -0.8290  0.6334 -0.9611
   60MOL   C32520503   5.291   5.038   2.888 -1.0642 -0.1558 -0.0553
   60MOL   C32620504   5.158   5.102   2.918  0.2543  0.3885  0.7637
   60MOL   C32720505   5.149   5.232   2.879  0.4554 -0.2938  0.2808
   60MOL   C32820506   5.041   5.313   2.905 -0.2564  0.2920  0.2853
   60MOL   C32920507   4.939   5.255   2.976  0.2420 -0.0889 -0.4132
   60MOL   O33020508   4.820   5.329   3.002  0.4313  0.0783 -0.3799
   60MOL   C33120509   4.945   5.127   3.019  0.0491 -0.2880  0.8373
   60MOL   C33220510   5.051   5.040   2.987  0.1504 -0.0162  1.0729
   60MOL   C33320511   5.286   4.986   2.744 -0.2830  0.1351  0.0534
   60MOL   H33420512   5.359   5.123   2.890 -0.6451 -0.4716 -0.6417
   60MOL   H33520513   5.232   5.277   2.825 -0.3551  2.1136  0.9871
   60MOL   H33620514   5.031   5.413   2.867 -2.3392 -0.0595 -0.1746
   60MOL   H33720515   4.786   5.379   2.929  1.7430  2.3925  0.5571
   60MOL   H33820516   4.853   5.097   3.068  1.1636 -2.8729  1.4401
   60MOL   H33920517   5.056   4.938   3.023  1.0239 -0.5372 -0.4788
   60MOL   H34020518   5.210   4.909   2.732 -1.0194  0.7604  0.6703
   60MOL   H34120519   5.387   4.948   2.725 -0.4642 -0.1497 -0.3374
   60MOL   H34220520   5.273   5.072   2.677  0.2602  1.4829  1.6495
   61MOL     C120521   7.492   2.765   5.627  0.3811  0.1596 -0.1724
   61MOL     C220522   7.438   2.695   5.745  0.1144  0.0762  0.1127
   61MOL     C320523   7.453   2.557   5.753 -0.1649  0.9385  0.3303
   61MOL     C420524   7.422   2.491   5.877 -0.5945  0.9100 -1.2161
   61MOL     C520525   7.383   2.566   5.992 -0.5286  0.1801 -0.8927
   61MOL     O620526   7.393   2.514   6.120 -0.5283 -0.9869 -0.2359
   61MOL     C720527   7.356   2.703   5.976 -0.5944 -0.2769 -0.3312
   61MOL     C820528   7.391   2.768   5.854 -0.2076  0.5258 -0.1281
   61MOL     C920529   7.408   2.850   5.538  0.2524 -0.3106 -0.3087
   61MOL    H1020530   7.569   2.836   5.659  1.2580 -0.8111 -0.1176
   61MOL    H1120531   7.492   2.503   5.668  0.6533  0.0670  1.2366
   61MOL    H1220532   7.458   2.389   5.887 -1.1773  0.9833  2.0730
   61MOL    H1320533   7.373   2.421   6.118  0.1845 -1.1775  0.8549
   61MOL    H1420534   7.319   2.756   6.063 -0.2474  0.7269 -0.7791
   61MOL    H1520535   7.392   2.876   5.861 -0.4509  0.5689 -0.7299
   61MOL    H1620536   7.373   2.933   5.599  0.0229 -1.3830  1.0367
   61MOL    H1720537   7.314   2.801   5.517 -0.3646  0.7308 -0.0208
   61MOL    H1820538   7.542   2.692   5.563  3.0485  0.6035  1.3523
   61MOL    C1920539   7.485   2.899   5.409  0.4491 -0.4523  0.6727
   61MOL    C2020540   7.618   2.973   5.446  0.4021  0.4965  0.6087
   61MOL    C2120541   7.742   2.903   5.447 -0.6537 -0.0684  0.1471
   61MOL    C2220542   7.861   2.971   5.480  0.1151 -0.2580 -0.1249
   61MOL    C2320543   7.862   3.111   5.505  0.1870  0.2739 -0.5577
   61MOL    O2420544   7.976   3.176   5.536  0.1418  0.0711 -0.3604
   61MOL    C2520545   7.744   3.184   5.487  0.4604  0.3993 -0.8184
   61MOL    C2620546   7.621   3.114   5.459  0.3636  0.1210 -0.3537
   61MOL    C2720547   7.393   2.970   5.307 -0.5078  0.4969 -0.1785
   61MOL    H2820548   7.518   2.806   5.364  2.0956  0.2797  0.3290
   61MOL    H2920549   7.744   2.800   5.415  1.6587  0.0482 -0.1683
   61MOL    H3020550   7.952   2.912   5.484  0.7874  0.8037  0.4419
   61MOL    H3120551   7.961   3.263   5.570  1.2357 -0.1055  0.6286
   61MOL    H3220552   7.737   3.290   5.505  1.7485 -0.1299  3.4416
   61MOL    H3320553   7.532   3.176   5.460 -0.4520 -1.0300 -0.4195
   61MOL    H3420554   7.359   3.057   5.364 -1.2557  0.3808 -0.4474
   61MOL    H3520555   7.310   2.901   5.295  0.0263  0.0990 -1.7867
   61MOL    C3620556   7.448   3.016   5.172  0.1216 -0.4152  0.0664
   61MOL    C3720557   7.369   3.122   5.100  0.3202  0.1077 -0.0191
   61MOL    C3820558   7.436   3.234   5.057  0.4227 -0.2809  0.1925
   61MOL    C3920559   7.363   3.341   5.004 -0.2379 -0.5730  0.3888
   61MOL    C4020560   7.232   3.327   4.969  0.5362  0.6777  0.1185
   61MOL    O4120561   7.164   3.428   4.909  0.5171  0.5424  1.0939
   61MOL    C4220562   7.164   3.206   5.004  0.7785 -1.0393  0.1312
   61MOL    C4320563   7.232   3.102   5.073  0.0222  0.0141  0.5334
   61MOL    C4420564   7.476   2.892   5.076  0.2197  0.5467  0.2211
   61MOL    H4520565   7.549   3.045   5.200 -0.4339 -0.0589  1.7372
   61MOL    H4620566   7.541   3.251   5.078  0.2944 -0.3969  0.9625
   61MOL    H4720567   7.402   3.435   4.968 -0.7441 -0.7882 -0.7501
   61MOL    H4820568   7.216   3.503   4.886 -0.9132  1.0532 -0.5807
   61MOL    H4920569   7.059   3.196   4.980  0.5165  2.5599 -0.5031
   61MOL    H5020570   7.173   3.018   5.107  2.2059 -1.4071  0.8658
   61MOL    H5120571   7.514   2.816   5.144 -0.1971 -0.1903 -0.3746
   61MOL    H5220572   7.385   2.859   5.026  1.1287 -0.9880 -0.4266
   61MOL    C5320573   7.590   2.916   4.968  0.4871  0.3810 -0.1572
   61MOL    C5420574   7.725   2.945   5.032 -0.4327  0.4231 -0.1715
   61MOL    C5520575   7.772   3.077   5.041 -0.2129 -0.3011 -0.2835
   61MOL    C5620576   7.899   3.106   5.097  0.5962 -0.4718 -0.1464
   61MOL    C5720577   7.976   3.001   5.151  0.1796  0.3470  0.2801
   61MOL    O5820578   0.064   3.030   5.200  0.1362 -0.1840 -0.5339
   61MOL    C5920579   7.919   2.870   5.158  0.5432  0.4306 -0.2710
   61MOL    C6020580   7.804   2.843   5.085  0.1419  0.3797  0.3547
   61MOL    C6120581   7.591   2.799   4.869 -0.4605 -0.2313  0.1102
   61MOL    H6220582   7.570   3.004   4.906  1.9168  0.9544  0.1747
   61MOL    H6320583   7.726   3.158   4.986  0.5043  0.3411  0.0568
   61MOL    H6420584   7.947   3.203   5.091  0.2559 -0.3843 -1.6958
   61MOL    H6520585   0.073   2.977   5.277 -0.6542  0.6623  0.1608
   61MOL    H6620586   7.967   2.789   5.210 -0.9679 -0.5195 -0.3153
   61MOL    H6720587   7.784   2.737   5.083  0.7530  0.2847 -0.6784
   61MOL    H6820588   7.495   2.786   4.819  0.0636  2.8161 -1.7906
   61MOL    H6920589   7.603   2.707   4.927 -1.4338  0.5133  1.4992
   61MOL    C7020590   7.695   2.810   4.755 -0.1075 -0.0483  0.8131
   61MOL    C7120591   7.687   2.940   4.670  0.0399  1.0376  0.6081
   61MOL    C7220592   7.568   2.976   4.605  0.9055  0.2271 -0.1187
   61MOL    C7320593   7.548   3.111   4.564 -0.2912  0.2226  0.6191
   61MOL    C7420594   7.652   3.205   4.570  0.6416  0.5740 -0.1168
   61MOL    O7520595   7.649   3.332   4.514  0.4108  0.8190  0.0120
   61MOL    C7620596   7.774   3.168   4.638 -0.4842  0.0804 -0.0471
   61MOL    C7720597   7.791   3.035   4.692 -0.4914  0.7923  0.0090
   61MOL    C7820598   7.685   2.687   4.659  0.0114  0.4483  0.1440
   61MOL    H7920599   7.794   2.819   4.800 -1.3002  0.7459  3.3553
   61MOL    H8020600   7.491   2.902   4.590  0.0374  1.1484 -0.2451
   61MOL    H8120601   7.460   3.140   4.508  1.2742  2.7181 -0.6281
   61MOL    H8220602   7.652   3.401   4.578 -0.7411  1.3749 -0.5169
   61MOL    H8320603   7.854   3.240   4.651 -0.3332 -0.1733  0.4229
   61MOL    H8420604   7.877   3.002   4.749 -0.0228 -2.9948 -2.6957
   61MOL    H8520605   7.585   2.685   4.615  0.3998  1.6609 -0.8283
   61MOL    H8620606   7.699   2.593   4.712 -1.3335  1.4848  2.4560
   61MOL    C8720607   7.789   2.686   4.547  0.2498  0.1932  0.3827
   61MOL    C8820608   7.750   2.587   4.434  0.0423 -0.0380 -0.4427
   61MOL    C8920609   7.746   2.447   4.457  0.6175 -0.3138 -0.5443
   61MOL    C9020610   7.693   2.359   4.361  0.8461 -0.4947 -0.2772
   61MOL    C9120611   7.644   2.414   4.240 -0.4547  0.2363  0.0647
   61MOL    O9220612   7.586   2.333   4.144 -0.1241  0.1192 -0.1068
   61MOL    C9320613   7.652   2.552   4.217  0.9215 -0.1647 -0.5064
   61MOL    C9420614   7.705   2.641   4.312 -0.4079  0.4499  0.6252
   61MOL    C9520615   7.936   2.675   4.590 -0.3029  0.8842  0.5894
   61MOL    H9620616   7.786   2.782   4.496 -0.4760 -0.8128 -1.5313
   61MOL    H9720617   7.771   2.417   4.557  0.8906 -0.2200 -0.5844
   61MOL    H9820618   7.687   2.252   4.375  1.4560 -0.1340  3.1380
   61MOL    H9920619   7.547   2.397   4.087 -1.7659 -1.1260 -0.4195
   61MOL   H10020620   7.607   2.597   4.130  0.3698 -0.8790 -0.5920
   61MOL   H10120621   7.715   2.747   4.295 -1.1196  0.6702  1.5213
   61MOL   H10220622   7.955   2.754   4.662  0.1494  2.6594 -1.4391
   61MOL   H10320623   7.958   2.582   4.643  1.9788  0.1934 -1.5023
   61MOL   C10420624   8.037   2.695   4.479 -0.5517  0.1028 -0.4517
   61MOL   C10520625   0.134   2.695   4.547  0.7357 -0.5264 -0.6049
   61MOL   C10620626   0.182   2.574   4.599 -0.3263  0.6684 -0.6286
   61MOL   C10720627   0.303   2.569   4.666 -0.4780 -0.5091 -0.3319
   61MOL   C10820628   0.370   2.688   4.702 -0.4296 -0.3631 -0.0039
   61MOL   O10920629   0.481   2.681   4.778 -0.2637 -0.3883 -0.9161
   61MOL   C11020630   0.318   2.810   4.663  0.2512  0.4442 -0.2438
   61MOL   C11120631   0.206   2.817   4.577 -0.0324 -0.3049  0.8500
   61MOL   C11220632   8.022   2.818   4.382 -0.0745  0.5254 -0.2847
   61MOL   H11320633   8.027   2.611   4.412  1.1164  0.8050 -1.6185
   61MOL   H11420634   0.124   2.485   4.580  0.9031 -0.2725 -0.0752
   61MOL   H11520635   0.341   2.472   4.696 -1.2338  0.1215  2.8627
   61MOL   H11620636   0.561   2.683   4.728  1.5062 -2.9963  1.6474
   61MOL   H11720637   0.362   2.904   4.692  1.5986  0.1887 -1.3613
   61MOL   H11820638   0.163   2.909   4.542 -0.6977 -0.3601  1.5081
   61MOL   H11920639   8.026   2.907   4.444  0.4183  0.6052 -0.4303
   61MOL   H12020640   7.923   2.810   4.336 -0.5425  3.2878  0.1315
   61MOL   C12120641   0.083   2.819   4.261 -0.0235 -0.0426 -0.2256
   61MOL   C12220642   0.074   2.696   4.176 -0.2123  0.4786  0.7941
   61MOL   C12320643   8.001   2.680   4.092  1.5502 -0.0597  0.2698
   61MOL   C12420644   7.981   2.585   3.993 -0.1729  0.1946 -0.3717
   61MOL   C12520645   0.042   2.478   3.991  0.3779 -0.5288  0.0029
   61MOL   O12620646   0.028   2.370   3.913  0.0520 -0.2493  0.3267
   61MOL   C12720647   0.149   2.479   4.087 -0.1828  0.2611  0.7137
   61MOL   C12820648   0.168   2.587   4.173 -0.2618  0.9595 -0.2624
   61MOL   C12920649   0.074   2.951   4.174  0.3164 -0.3282 -0.2242
   61MOL   H13020650   0.183   2.812   4.304  0.3148  1.4936 -0.6976
   61MOL   H13120651   7.920   2.752   4.101  0.1629 -1.6429  0.7251
   61MOL   H13220652   7.894   2.578   3.929  0.3649 -0.8186 -1.0130
   61MOL   H13320653   8.000   2.382   3.846  3.4788  1.2898 -2.9019
   61MOL   H13420654   0.219   2.397   4.084 -0.8045 -0.3132  1.6894
   61MOL   H13520655   0.256   2.590   4.235  0.3695 -0.9278 -1.0294
   61MOL   H13620656   0.038   3.029   4.242  1.0014  0.7355 -1.0724
   61MOL   H13720657   0.001   2.934   4.095  0.7554  1.9547 -1.1631
   61MOL   C13820658   0.222   2.988   4.140 -0.1713  0.1105  0.3785
   61MOL   C13920659   0.300   3.032   4.266  0.2703  0.5821 -0.6839
   61MOL   C14020660   0.411   2.955   4.313  1.1992  0.2945  0.2446
   61MOL   C14120661   0.481   2.990   4.426  0.3074  0.2747  0.6318
   61MOL   C14220662   0.434   3.093   4.505  0.3075  0.1458 -0.1715
   61MOL   O14320663   0.491   3.119   4.624  0.1071 -0.1219  0.3072
   61MOL   C14420664   0.326   3.177   4.464 -0.1382 -0.0460 -0.0783
   61MOL   C14520665   0.258   3.142   4.345 -0.3297 -0.1660 -0.3623
   61MOL   C14620666   0.242   3.093   4.021  0.1953 -0.0027  0.1787
   61MOL   H14720667   0.273   2.899   4.104 -0.8263  0.1802 -0.7773
   61MOL   H14820668   0.436   2.863   4.264  0.8180 -0.8079  2.0548
   61MOL   H14920669   0.556   2.926   4.469  0.7181 -0.0064 -0.4716
   61MOL   H15020670   0.499   3.210   4.649  2.4797 -0.0555 -0.5255
   61MOL   H15120671   0.296   3.265   4.519  1.4793 -1.2500  2.8520
   61MOL   H15220672   0.180   3.209   4.311  0.5744  0.4142 -1.3465
   61MOL   H15320673   0.349   3.111   4.025  0.2765 -0.5002  0.2252
   61MOL   H15420674   0.192   3.188   4.043 -0.3209  0.7491 -3.7916
   61MOL   C15520675   0.209   3.035   3.885  0.2688  0.1959  0.3821
   61MOL   C15620676   0.274   2.903   3.851  0.4379 -0.0438  0.1749
   61MOL   C15720677   0.203   2.783   3.832 -0.9934 -0.0790  0.1152
   61MOL   C15820678   0.272   2.669   3.793 -0.1609  0.1539  0.0049
   61MOL   C15920679   0.417   2.664   3.797  0.0313  0.6299 -0.7725
   61MOL   O16020680   0.481   2.549   3.775 -0.5005 -0.2233 -0.2872
   61MOL   C16120681   0.482   2.779   3.832  0.6134  0.7632  0.0252
   61MOL   C16220682   0.413   2.900   3.850  0.4693 -0.1523 -0.3187
   61MOL   C16320683   0.213   3.133   3.770 -0.4065  0.6499 -0.4986
   61MOL   H16420684   0.106   3.005   3.903  0.6957 -2.3264 -1.0245
   61MOL   H16520685   0.095   2.783   3.838 -1.0440 -0.0983 -0.8006
   61MOL   H16620686   0.214   2.579   3.778 -0.2981  0.1723  0.4137
   61MOL   H16720687   0.429   2.473   3.798 -1.9765  0.5246 -1.1081
   61MOL   H16820688   0.590   2.772   3.842  0.4975 -1.4725  0.0484
   61MOL   H16920689   0.467   2.991   3.875  2.5380 -1.3363 -0.3637
   61MOL   H17020690   0.272   3.098   3.685 -1.1694 -1.2236 -0.2678
   61MOL   H17120691   0.276   3.212   3.812 -1.9367  1.8652 -0.4534
   61MOL   C17220692   0.073   3.171   3.710  0.1255 -0.0050  0.4536
   61MOL   C17320693   0.082   3.230   3.575 -0.0333  0.1337 -0.5770
   61MOL   C17420694   0.001   3.177   3.473 -0.6502 -0.1521  0.4557
   61MOL   C17520695   0.014   3.225   3.339  0.5304 -0.3296 -0.0130
   61MOL   C17620696   0.092   3.338   3.309 -0.4926 -0.1924  0.0617
   61MOL   O17720697   0.100   3.382   3.183  0.3578 -0.3622 -0.1464
   61MOL   C17820698   0.167   3.399   3.408 -0.4823  0.2432  0.0674
   61MOL   C17920699   0.162   3.341   3.543  0.3320 -0.2017  0.0013
   61MOL   C18020700   8.038   3.264   3.809 -0.4231  0.0237  0.2114
   61MOL   H18120701   0.016   3.078   3.707 -0.5485  0.4165  0.0897
   61MOL   H18220702   7.964   3.100   3.488 -0.0109 -1.1294 -1.1641
   61MOL   H18320703   7.994   3.172   3.264 -2.1158  0.1935  1.5717
   61MOL   H18420704   0.146   3.458   3.152 -2.1734  1.2421 -0.1302
   61MOL   H18520705   0.228   3.484   3.385  0.3490 -0.7743 -1.5581
   61MOL   H18620706   0.204   3.389   3.630  0.5764  0.5645 -0.5365
   61MOL   H18720707   0.026   3.366   3.781  1.1894  0.0869  1.8845
   61MOL   H18820708   0.052   3.251   3.903  0.3138 -1.2763 -0.3678
   61MOL   C18920709   7.886   3.236   3.822  0.6928  0.9541 -0.1742
   61MOL   C19020710   7.855   3.155   3.947  0.2397  0.4403  0.1309
   61MOL   C19120711   7.856   3.226   4.072 -0.4014 -0.4717  0.5607
   61MOL   C19220712   7.820   3.169   4.193  0.0967 -0.0647  0.0387
   61MOL   C19320713   7.762   3.040   4.185  0.5036 -0.1489 -0.4932
   61MOL   O19420714   7.689   2.996   4.289 -0.8738 -0.3758 -0.6735
   61MOL   C19520715   7.758   2.971   4.062 -0.3586 -0.0252 -1.0705
   61MOL   C19620716   7.804   3.026   3.945  0.3485  0.3071 -0.3858
   61MOL   C19720717   7.804   3.367   3.806 -0.5154 -0.2557 -0.8504
   61MOL   H19820718   7.864   3.169   3.739  1.1155 -0.2891  0.7008
   61MOL   H19920719   7.881   3.331   4.071 -2.9789  0.1784  0.7218
   61MOL   H20020720   7.838   3.220   4.287  0.3872 -0.0145 -0.0443
   61MOL   H20120721   7.681   3.055   4.363 -1.9577 -0.2529 -0.8786
   61MOL   H20220722   7.715   2.872   4.061  1.0461 -0.6551 -0.8790
   61MOL   H20320723   7.798   2.970   3.853 -0.0093  1.5952 -1.1426
   61MOL   H20420724   7.867   3.442   3.852 -0.9823 -0.2339 -0.2359
   61MOL   H20520725   7.714   3.364   3.867 -0.1391  0.4133 -0.2630
   61MOL   C20620726   7.780   3.404   3.655  0.3434 -0.3961  0.9171
   61MOL   C20720727   7.781   3.555   3.625 -0.6480  0.6826 -0.9747
   61MOL   C20820728   7.696   3.638   3.702  0.5089 -0.2411  0.0119
   61MOL   C20920729   7.703   3.775   3.693  0.3891  0.2942  0.7931
   61MOL   C21020730   7.785   3.830   3.586 -0.2379 -0.8930 -0.1193
   61MOL   O21120731   7.797   3.970   3.569  0.2885 -0.0418 -0.2101
   61MOL   C21220732   7.858   3.746   3.501 -0.2252  0.6897 -0.3631
   61MOL   C21320733   7.865   3.607   3.523 -0.8176 -0.5080 -0.2951
   61MOL   C21420734   7.646   3.334   3.615  0.0131  0.9685  0.3568
   61MOL   H21520735   7.862   3.364   3.595 -1.8798 -0.2370 -2.3919
   61MOL   H21620736   7.626   3.599   3.774  3.0014 -0.2390  2.5306
   61MOL   H21720737   7.645   3.839   3.758  0.6135  0.3735  0.9169
   61MOL   H21820738   7.854   3.980   3.495 -0.4596  0.3319 -0.7393
   61MOL   H21920739   7.918   3.788   3.421  1.7690 -0.2644  0.5968
   61MOL   H22020740   7.930   3.541   3.467  1.7743  0.3972  1.5783
   61MOL   H22120741   7.571   3.359   3.690  0.0247 -1.0042  1.0417
   61MOL   H22220742   7.654   3.226   3.622  5.0625  1.2070 -0.1944
   61MOL   C22320743   7.591   3.371   3.472  0.2650  0.0668  0.0932
   61MOL   C22420744   7.444   3.328   3.460  0.1208  0.0663  0.1920
   61MOL   C22520745   7.400   3.195   3.426 -0.1145 -0.3037 -0.0126
   61MOL   C22620746   7.261   3.165   3.423  0.4349 -0.2482  0.2512
   61MOL   C22720747   7.167   3.264   3.451 -0.2090  0.2714  1.1271
   61MOL   O22820748   7.036   3.245   3.428 -0.3682  0.2885  0.2308
   61MOL   C22920749   7.209   3.392   3.485  0.5058  0.2567  0.7497
   61MOL   C23020750   7.342   3.422   3.496 -0.2547 -0.5822 -0.3237
   61MOL   C23120751   7.673   3.301   3.364 -0.3601  0.1312 -0.1044
   61MOL   H23220752   7.582   3.479   3.458 -2.0518  0.1021  1.5809
   61MOL   H23320753   7.474   3.118   3.409  0.6920  0.2891  0.7000
   61MOL   H23420754   7.222   3.067   3.399 -1.6981  0.2599  1.4922
   61MOL   H23520755   7.008   3.162   3.391  0.2406  0.8327 -1.4672
   61MOL   H23620756   7.137   3.470   3.504  1.4632  1.4165 -0.3212
   61MOL   H23720757   7.367   3.522   3.530  1.0787 -1.7995  2.5000
   61MOL   H23820758   7.778   3.324   3.383 -0.2722 -0.9694  0.7704
   61MOL   H23920759   7.669   3.192   3.374  1.2095  0.1262  0.7099
   61MOL   C24020760   7.626   3.329   3.223  0.0736 -0.5092  0.3857
   61MOL   C24120761   7.677   3.469   3.185 -0.1053 -0.3820 -0.0100
   61MOL   C24220762   7.819   3.482   3.170 -0.1622 -0.4758  0.1404
   61MOL   C24320763   7.868   3.609   3.131  0.3732  0.6900  0.2310
   61MOL   C24420764   7.784   3.725   3.129  0.4000  0.1494  0.3452
   61MOL   O24520765   7.834   3.843   3.088 -0.4346  0.0889 -0.2347
   61MOL   C24620766   7.640   3.709   3.140 -0.1864  0.7136  0.3154
   61MOL   C24720767   7.590   3.580   3.167  0.1059  0.2292 -0.3827
   61MOL   C24820768   7.673   3.216   3.122  0.0328 -0.0410 -0.1729
   61MOL   H24920769   7.518   3.334   3.214 -0.2648 -1.6721  3.2381
   61MOL   H25020770   7.886   3.397   3.171 -0.0463 -0.3820  0.4980
   61MOL   H25120771   7.975   3.614   3.120  0.5775  0.0806  1.8360
   61MOL   H25220772   7.895   3.837   3.016  0.2499 -1.3911  0.4656
   61MOL   H25320773   7.575   3.792   3.118 -0.1865  1.1650  1.9453
   61MOL   H25420774   7.485   3.560   3.157  0.0688  0.2724 -0.0701
   61MOL   H25520775   7.775   3.200   3.155  0.9278  0.6999 -2.4883
   61MOL   H25620776   7.631   3.119   3.150 -0.5454  0.1604 -0.3418
   61MOL   C25720777   7.673   3.236   2.966  0.3584  0.1115 -0.7220
   61MOL   C25820778   7.769   3.140   2.902  0.2401  1.2524  0.6132
   61MOL   C25920779   7.825   3.169   2.775 -1.0622  0.1248  0.3619
   61MOL   C26020780   7.907   3.073   2.707 -0.0948 -0.1552 -0.0403
   61MOL   C26120781   7.934   2.953   2.772 -0.2917 -0.5619 -0.0794
   61MOL   O26220782   8.011   2.862   2.707  0.0598  0.0474 -0.4303
   61MOL   C26320783   7.880   2.923   2.897  0.5034  0.5882 -0.5828
   61MOL   C26420784   7.792   3.014   2.960  0.7246 -0.2956 -0.4841
   61MOL   C26520785   7.526   3.226   2.908 -0.2169  0.2830 -0.2998
   61MOL   H26620786   7.700   3.340   2.947  2.6218 -0.0594  1.3017
   61MOL   H26720787   7.817   3.260   2.717 -1.1878  0.0690  0.2901
   61MOL   H26820788   7.946   3.103   2.610 -1.7802  0.2596 -0.6065
   61MOL   H26920789   0.063   2.871   2.736 -0.2457 -0.5882  0.7598
   61MOL   H27020790   7.893   2.829   2.950 -2.1188  1.5660  1.9108
   61MOL   H27120791   7.746   2.974   3.049  1.4313 -0.4320 -0.1791
   61MOL   H27220792   7.462   3.302   2.953 -3.1444 -1.1086 -1.9515
   61MOL   H27320793   7.494   3.129   2.944  0.7977  1.4455  4.0380
   61MOL   C27420794   7.512   3.254   2.764 -0.6278 -0.3354  0.2849
   61MOL   C27520795   7.538   3.398   2.722  0.2648  0.3116 -0.5454
   61MOL   C27620796   7.499   3.509   2.797  0.2819  0.0652  0.6181
   61MOL   C27720797   7.520   3.644   2.749  0.0749  0.8611 -0.2319
   61MOL   C27820798   7.577   3.667   2.623  0.4545  0.0213  0.0564
   61MOL   O27920799   7.594   3.787   2.569  0.5356 -0.3455  0.2474
   61MOL   C28020800   7.608   3.553   2.548 -0.0037 -0.1213 -0.1518
   61MOL   C28120801   7.591   3.419   2.596 -0.2518  0.3492  0.2735
   61MOL   C28220802   7.385   3.195   2.698  0.2478 -0.2738 -0.0928
   61MOL   H28320803   7.585   3.192   2.712 -1.5805 -0.9247 -0.3604
   61MOL   H28420804   7.458   3.507   2.897 -1.2908 -1.5736 -0.0347
   61MOL   H28520805   7.488   3.725   2.811  2.0431  1.6061 -0.1532
   61MOL   H28620806   7.576   3.858   2.629  0.1549  0.2583 -0.5752
   61MOL   H28720807   7.644   3.567   2.448  0.4073 -0.9459 -0.1200
   61MOL   H28820808   7.621   3.336   2.533 -2.1751 -0.1652 -0.0288
   61MOL   H28920809   7.398   3.208   2.591  3.7014  1.2825  0.4717
   61MOL   H29020810   7.406   3.089   2.712  1.0682 -0.0016  0.7650
   61MOL   C29120811   7.247   3.238   2.746 -0.0567 -0.2378 -0.1954
   61MOL   C29220812   7.187   3.185   2.876  0.3949 -0.6293 -0.3168
   61MOL   C29320813   7.108   3.277   2.946  0.2426  0.1793 -0.7874
   61MOL   C29420814   7.045   3.236   3.062  0.1562 -0.9336 -0.7247
   61MOL   C29520815   7.059   3.103   3.111 -0.5501  0.2077 -0.3995
   61MOL   O29620816   6.984   3.060   3.213  0.0230  0.2016  0.3581
   61MOL   C29720817   7.142   3.011   3.036  0.4562 -0.2208 -0.5038
   61MOL   C29820818   7.207   3.053   2.923 -0.2238  0.0300  0.5431
   61MOL   C29920819   7.141   3.200   2.638 -0.1732 -0.3876  0.3327
   61MOL   H30020820   7.251   3.347   2.745 -1.0882 -0.1723  1.0681
   61MOL   H30120821   7.100   3.378   2.908 -1.3670  0.9518  1.5276
   61MOL   H30220822   6.971   3.301   3.107  0.4531 -0.9822 -0.1587
   61MOL   H30320823   6.895   3.089   3.215 -0.3807 -0.9842  0.2128
   61MOL   H30420824   7.141   2.907   3.063  1.6230 -0.7392 -2.3619
   61MOL   H30520825   7.266   2.987   2.861 -0.6384 -0.3945  0.5973
   61MOL   H30620826   7.042   3.206   2.684 -0.0166 -1.7514  0.8595
   61MOL   H30720827   7.157   3.095   2.615  1.7794 -0.2331  0.9422
   61MOL   C30820828   7.108   3.282   2.514 -0.4175 -0.5030  0.3085
   61MOL   C30920829   7.117   3.432   2.535 -0.3462 -0.3691 -0.2733
   61MOL   C31020830   7.222   3.514   2.479  0.1139  0.5743  0.1976
   61MOL   C31120831   7.244   3.648   2.508 -0.6264  0.0307 -0.0116
   61MOL   C31220832   7.166   3.707   2.615 -0.3374  0.4642  0.2698
   61MOL   O31320833   7.190   3.829   2.678  0.0729 -0.3142  0.7093
   61MOL   C31420834   7.050   3.634   2.652  0.0814  0.4721 -0.3429
   61MOL   C31520835   7.025   3.500   2.617 -0.8641 -0.7974  0.3143
   61MOL   C31620836   6.974   3.237   2.436 -0.1793 -0.5582  0.5037
   61MOL   H31720837   7.197   3.270   2.453 -1.7704  3.1592 -2.5537
   61MOL   H31820838   7.299   3.470   2.417 -0.2342 -0.0207  0.1748
   61MOL   H31920839   7.332   3.692   2.462 -1.5069  0.8569 -0.9148
   61MOL   H32020840   7.142   3.847   2.758  0.2418 -0.6445  0.8867
   61MOL   H32120841   6.990   3.689   2.723  1.5324  2.5691 -0.6847
   61MOL   H32220842   6.942   3.448   2.662 -0.3343 -2.1536 -0.2428
   61MOL   H32320843   6.970   3.287   2.340  0.8001 -1.0976  0.1768
   61MOL   H32420844   6.895   3.276   2.499 -0.4104 -0.0169 -0.1235
   61MOL   C32520845   6.959   3.080   2.411 -0.3381 -0.5742 -0.0864
   61MOL   C32620846   7.072   3.019   2.333  0.0264 -0.8007 -0.4305
   61MOL   C32720847   7.149   2.915   2.387 -0.0547  0.2288 -0.7494
   61MOL   C32820848   7.252   2.844   2.315 -0.6516 -0.3471  0.5542
   61MOL   C32920849   7.275   2.881   2.179  0.6943 -0.3746  0.2615
   61MOL   O33020850   7.366   2.809   2.103 -0.0885 -0.0090 -0.6637
   61MOL   C33120851   7.195   2.986   2.126  0.2960  0.6888  0.0893
   61MOL   C33220852   7.102   3.058   2.204 -0.1769  0.3462  0.2604
   61MOL   C33320853   6.820   3.050   2.362  0.9861 -0.3247 -0.2794
   61MOL   H33420854   6.959   3.028   2.507  0.4451 -0.4778 -0.0302
   61MOL   H33520855   7.154   2.880   2.489  0.7522 -1.0195 -1.2000
   61MOL   H33620856   7.312   2.768   2.364  1.1871  1.4894  1.2057
   61MOL   H33720857   7.432   2.785   2.166 -2.3411  2.4807  2.8341
   61MOL   H33820858   7.203   3.027   2.026  0.5252  3.7367  1.3188
   61MOL   H33920859   7.065   3.147   2.153 -1.5174  0.3689  1.2510
   61MOL   H34020860   6.753   3.087   2.440  1.4529  0.4938 -0.2626
   61MOL   H34120861   6.786   2.947   2.348 -2.5399  0.7736 -0.3886
   61MOL   H34220862   6.805   3.105   2.270  0.7973  1.4221  0.7800
   62MOL     C120863   2.316   3.834   1.281  0.5014 -0.4870  0.0426
   62MOL     C220864   2.332   3.720   1.380 -0.1358  0.5534 -0.2605
   62MOL     C320865   2.446   3.717   1.456 -0.4631 -0.3528 -0.2702
   62MOL     C420866   2.459   3.630   1.566  0.6224 -0.4611  0.3984
   62MOL     C520867   2.351   3.538   1.588 -0.1609  0.6616 -0.5521
   62MOL     O620868   2.358   3.444   1.688 -0.1182  0.2481  0.0951
   62MOL     C720869   2.233   3.541   1.505  0.0430  0.3514  0.2299
   62MOL     C820870   2.223   3.636   1.400  0.2158  0.5221  0.3233
   62MOL     C920871   2.174   3.850   1.219 -0.0591 -0.2130  0.4324
   62MOL    H1020872   2.348   3.929   1.323 -2.4591  1.0807 -1.0702
   62MOL    H1120873   2.523   3.790   1.434 -0.7719  0.2616  0.6476
   62MOL    H1220874   2.540   3.627   1.638 -0.1660 -2.7033  1.2284
   62MOL    H1320875   2.272   3.413   1.714  0.9590 -1.5071  1.7153
   62MOL    H1420876   2.150   3.473   1.520 -1.3527  1.8612 -0.4643
   62MOL    H1520877   2.128   3.643   1.348  0.3603  1.2586  0.1509
   62MOL    H1620878   2.168   3.942   1.161 -2.8312 -1.1202 -0.7970
   62MOL    H1720879   2.106   3.867   1.302 -0.2751  1.2987 -0.0408
   62MOL    H1820880   2.387   3.812   1.202  2.5588  0.0006  1.7209
   62MOL    C1920881   2.137   3.751   1.103  0.8038  0.6583 -0.5559
   62MOL    C2020882   2.236   3.747   0.989 -0.4259  0.3357 -0.1800
   62MOL    C2120883   2.302   3.629   0.954 -0.5274  0.3313  0.2267
   62MOL    C2220884   2.393   3.622   0.845  0.4674  0.3617  0.1215
   62MOL    C2320885   2.424   3.732   0.770 -0.5179 -0.0555  0.0618
   62MOL    O2420886   2.505   3.723   0.660  0.1393 -0.4590  0.7422
   62MOL    C2520887   2.367   3.859   0.807 -0.0388  0.1852 -0.2321
   62MOL    C2620888   2.261   3.863   0.907  0.2744 -0.3221 -0.2932
   62MOL    C2720889   1.991   3.768   1.061  0.0305 -0.3296  0.1862
   62MOL    H2820890   2.141   3.648   1.139 -2.2501  0.5586 -0.3540
   62MOL    H2920891   2.281   3.538   1.008  1.0405 -0.4771 -0.5147
   62MOL    H3020892   2.435   3.523   0.836  1.2391  0.6425  0.5859
   62MOL    H3120893   2.497   3.795   0.599 -1.9370 -0.4283  1.0159
   62MOL    H3220894   2.393   3.952   0.759 -1.8091 -0.4615 -2.5595
   62MOL    H3320895   2.213   3.955   0.937  0.4072  0.1450 -1.5011
   62MOL    H3420896   1.984   3.814   0.963 -0.4910  0.1732  0.4601
   62MOL    H3520897   1.957   3.858   1.112 -1.2093 -0.0152 -1.1767
   62MOL    C3620898   1.898   3.638   1.058 -0.5047  0.4102  0.0220
   62MOL    C3720899   1.908   3.565   1.194  0.8333  0.1019 -0.4229
   62MOL    C3820900   1.844   3.617   1.305 -0.8411  0.8575 -0.4919
   62MOL    C3920901   1.854   3.548   1.430 -0.0674 -0.1642 -0.5935
   62MOL    C4020902   1.908   3.417   1.441 -0.4738 -0.0676  0.1940
   62MOL    O4120903   1.909   3.353   1.557 -0.6287 -0.0306  0.0421
   62MOL    C4220904   1.965   3.361   1.328  0.1550  0.1042  0.0253
   62MOL    C4320905   1.969   3.440   1.211  0.4385 -0.5512  0.5414
   62MOL    C4420906   1.911   3.548   0.939  0.1732 -0.1047 -0.5872
   62MOL    H4520907   1.798   3.680   1.048 -0.6686  0.3281  1.2514
   62MOL    H4620908   1.792   3.712   1.307  0.0069  1.3052  1.1563
   62MOL    H4720909   1.809   3.592   1.517  1.3824  1.6631 -0.7299
   62MOL    H4820910   1.939   3.266   1.537 -1.3140  0.3188 -2.6105
   62MOL    H4920911   2.002   3.261   1.341 -4.2821 -1.5050  1.0307
   62MOL    H5020912   2.016   3.394   1.125 -0.7826  0.4306 -0.6800
   62MOL    H5120913   1.918   3.614   0.853  0.2607 -2.5931 -2.5543
   62MOL    H5220914   2.012   3.507   0.925  0.6767  1.6272 -2.1850
   62MOL    C5320915   1.808   3.436   0.939  0.1747  0.1664  0.0407
   62MOL    C5420916   1.689   3.488   0.851  0.3535 -0.1562  0.4739
   62MOL    C5520917   1.691   3.480   0.710 -0.0749 -0.4017 -0.9338
   62MOL    C5620918   1.575   3.506   0.638  0.1493 -0.5496  0.2230
   62MOL    C5720919   1.457   3.538   0.708 -0.2604 -0.0921  0.5908
   62MOL    O5820920   1.339   3.557   0.642  0.0656 -0.7841  0.1810
   62MOL    C5920921   1.454   3.558   0.850 -0.3193 -0.3668  0.0701
   62MOL    C6020922   1.574   3.533   0.916  1.4191  0.2557 -0.5073
   62MOL    C6120923   1.870   3.302   0.886  0.6965 -0.2158 -0.0222
   62MOL    H6220924   1.763   3.424   1.037 -2.5828  2.4129 -0.9112
   62MOL    H6320925   1.786   3.453   0.665  0.8208 -0.6389  1.0332
   62MOL    H6420926   1.575   3.499   0.530 -2.8434  0.8123  0.0907
   62MOL    H6520927   1.344   3.523   0.554 -0.1010 -0.0272 -0.1239
   62MOL    H6620928   1.362   3.591   0.895 -0.0260 -0.2821  0.6099
   62MOL    H6720929   1.564   3.536   1.024  0.2212 -1.3682 -0.5572
   62MOL    H6820930   1.966   3.284   0.935  0.7355 -0.1298 -0.0677
   62MOL    H6920931   1.899   3.321   0.783 -2.8369 -0.5276 -1.1463
   62MOL    C7020932   1.783   3.174   0.913  0.3766  0.3952  0.5117
   62MOL    C7120933   1.747   3.157   1.054  0.2680 -0.5996 -0.5951
   62MOL    C7220934   1.621   3.207   1.103  0.0193  0.4340 -0.0155
   62MOL    C7320935   1.589   3.195   1.238 -0.3016 -0.3926 -0.0290
   62MOL    C7420936   1.674   3.124   1.323  0.0577 -0.4239 -0.1746
   62MOL    O7520937   1.631   3.101   1.448  0.0768  0.0349 -0.2500
   62MOL    C7620938   1.791   3.058   1.275  0.2222  0.1394 -0.2653
   62MOL    C7720939   1.832   3.082   1.140  0.6489 -0.6050  0.3449
   62MOL    C7820940   1.843   3.043   0.847 -0.0731 -0.0513 -0.6198
   62MOL    H7920941   1.685   3.183   0.866  0.8545 -2.2017 -1.0842
   62MOL    H8020942   1.547   3.248   1.036 -0.1099 -0.9481 -0.7361
   62MOL    H8120943   1.493   3.226   1.275 -0.9898  0.2771 -2.2730
   62MOL    H8220944   1.664   3.015   1.472  1.4187  0.0289 -2.0071
   62MOL    H8320945   1.847   2.986   1.332  1.8243 -0.6659 -2.7769
   62MOL    H8420946   1.909   3.020   1.097  0.2181 -0.0637 -1.2262
   62MOL    H8520947   1.771   2.963   0.867 -0.3985 -0.1025 -1.9349
   62MOL    H8620948   1.933   3.015   0.902 -0.5694 -0.4139  0.0102
   62MOL    C8720949   1.865   3.035   0.691 -1.6893 -0.1789  0.3270
   62MOL    C8820950   1.730   3.014   0.621  1.1579  0.0525 -0.0507
   62MOL    C8920951   1.667   2.886   0.624 -0.1927  0.1632 -0.2343
   62MOL    C9020952   1.537   2.866   0.574  0.2570 -0.0847  0.6817
   62MOL    C9120953   1.471   2.979   0.519  0.3764 -0.5860 -0.1498
   62MOL    O9220954   1.340   2.960   0.470  0.7871  0.6717  0.1259
   62MOL    C9320955   1.532   3.109   0.517 -0.3458 -0.0211 -0.8766
   62MOL    C9420956   1.659   3.127   0.576  0.5025 -0.4618 -0.4212
   62MOL    C9520957   1.975   2.935   0.649 -0.5432 -0.0819  0.0530
   62MOL    H9620958   1.891   3.133   0.649 -0.8893 -1.9365 -3.4917
   62MOL    H9720959   1.711   2.797   0.667 -1.1192 -0.6942 -1.0275
   62MOL    H9820960   1.491   2.768   0.575 -2.8135  1.3063  0.5685
   62MOL    H9920961   1.299   3.031   0.423 -0.3088 -1.6303 -2.4951
   62MOL   H10020962   1.481   3.198   0.483  0.5849  1.1214  0.6337
   62MOL   H10120963   1.705   3.224   0.583  1.7119 -1.0985  0.5050
   62MOL   H10220964   1.966   2.841   0.705  1.2747  1.1555  2.5267
   62MOL   H10320965   1.950   2.918   0.544  0.2847 -0.3906 -0.1016
   62MOL   C10420966   2.124   2.980   0.630 -0.3731  0.2795 -0.2979
   62MOL   C10520967   2.205   2.857   0.629  0.3940 -0.9208  0.5066
   62MOL   C10620968   2.257   2.805   0.514 -0.4418  0.4392  0.5708
   62MOL   C10720969   2.334   2.686   0.513  0.5201 -0.6248  0.2486
   62MOL   C10820970   2.358   2.622   0.637 -0.4461 -0.3109 -0.1661
   62MOL   O10920971   2.447   2.521   0.635 -0.9452  0.3998 -0.1867
   62MOL   C11020972   2.299   2.669   0.759  0.1066 -0.5649  0.0589
   62MOL   C11120973   2.217   2.785   0.750 -0.4673 -0.8536 -0.6589
   62MOL   C11220974   2.177   3.079   0.737 -0.5751 -0.5658 -0.0487
   62MOL   H11320975   2.135   3.027   0.532 -0.1540 -0.3592 -0.5789
   62MOL   H11420976   2.237   2.857   0.422  0.9037 -0.6900 -0.3838
   62MOL   H11520977   2.376   2.648   0.421  0.4478  3.2834 -1.5220
   62MOL   H11620978   2.485   2.504   0.550 -1.3638 -0.1248 -0.2711
   62MOL   H11720979   2.315   2.610   0.848 -1.5211  0.4866  1.0842
   62MOL   H11820980   2.162   2.838   0.826  2.9051  0.3843  1.0292
   62MOL   H11920981   2.184   3.033   0.836 -2.5318 -2.0086 -0.5566
   62MOL   H12020982   2.101   3.155   0.754  0.6935  1.0143 -1.2947
   62MOL   C12120983   2.322   3.140   0.709 -0.0133 -0.3121 -0.3547
   62MOL   C12220984   2.328   3.223   0.577 -0.5179  0.4033  0.3432
   62MOL   C12320985   2.419   3.186   0.474  0.1228  0.2729  0.1361
   62MOL   C12420986   2.415   3.242   0.347  0.6470  0.4950 -0.6474
   62MOL   C12520987   2.312   3.339   0.326  0.5502  0.9931 -0.3761
   62MOL   O12620988   2.307   3.396   0.203  0.1571 -0.1657  0.1403
   62MOL   C12720989   2.218   3.369   0.424  0.9329 -0.1738 -0.2257
   62MOL   C12820990   2.226   3.315   0.550  0.1867 -0.0310 -0.8712
   62MOL   C12920991   2.376   3.221   0.828 -0.4169 -0.7515  0.1695
   62MOL   H13020992   2.385   3.053   0.687  0.1243  0.0258 -1.3245
   62MOL   H13120993   2.497   3.114   0.495 -0.6824 -0.3729  0.9629
   62MOL   H13220994   2.477   3.209   0.266 -0.7252 -1.7226 -0.8436
   62MOL   H13320995   2.231   3.450   0.184  1.4647  0.6978 -3.0729
   62MOL   H13420996   2.135   3.439   0.418 -0.5268 -1.6626  1.6543
   62MOL   H13520997   2.149   3.341   0.620 -0.7171  0.1776 -1.9346
   62MOL   H13620998   2.308   3.295   0.870  0.3161  0.1033 -0.1498
   62MOL   H13720999   2.459   3.272   0.780 -0.3949 -1.1572 -0.2286
   62MOL   C13821000   2.438   3.137   0.946 -0.7102 -0.2412 -0.8125
   62MOL   C13921001   2.355   3.143   1.081 -0.2344 -0.5160  0.3721
   62MOL   C14021002   2.380   3.248   1.181  0.0966 -0.1131  0.3963
   62MOL   C14121003   2.327   3.244   1.307 -0.5203 -0.2185  0.4431
   62MOL   C14221004   2.241   3.140   1.338  0.0591 -0.0218  0.1586
   62MOL   O14321005   2.193   3.128   1.461 -0.2151 -0.1368  0.0345
   62MOL   C14421006   2.204   3.049   1.239 -0.9091  0.1744 -0.2631
   62MOL   C14521007   2.259   3.051   1.112 -0.3541 -0.4644 -0.6720
   62MOL   C14621008   2.586   3.181   0.969  0.0336 -0.3088 -0.6675
   62MOL   H14721009   2.424   3.036   0.909 -1.6307  0.3335 -2.0636
   62MOL   H14821010   2.432   3.339   1.155 -0.2251  0.4471  1.6675
   62MOL   H14921011   2.367   3.309   1.383  0.8191 -0.1528 -0.2940
   62MOL   H15021012   2.251   3.164   1.526  1.9572 -1.3264 -1.1796
   62MOL   H15121013   2.138   2.969   1.269  1.0256 -0.9636  1.0720
   62MOL   H15221014   2.244   2.967   1.046  0.5032 -0.1638 -1.2600
   62MOL   H15321015   2.617   3.153   1.070 -0.5709  0.3939 -0.2850
   62MOL   H15421016   2.593   3.290   0.973  2.6375 -0.4469 -0.5534
   62MOL   C15521017   2.684   3.135   0.863 -1.0153 -0.5464 -0.7524
   62MOL   C15621018   2.702   2.985   0.869 -0.5541  0.8367  0.2418
   62MOL   C15721019   2.765   2.934   0.985  1.1011 -0.3247 -0.2711
   62MOL   C15821020   2.794   2.799   1.002 -0.0724 -0.7777 -0.4246
   62MOL   C15921021   2.747   2.712   0.905 -0.1291  0.4994  0.0327
   62MOL   O16021022   2.779   2.577   0.905 -0.1897  0.5300  0.1022
   62MOL   C16121023   2.675   2.759   0.789  0.0017  0.3295 -0.2519
   62MOL   C16221024   2.657   2.897   0.767 -0.2869  0.2997  0.0155
   62MOL   C16321025   2.824   3.207   0.873  1.1805 -0.4950  0.0184
   62MOL   H16421026   2.657   3.154   0.759  1.2896  0.7223 -1.1707
   62MOL   H16521027   2.785   3.005   1.064  0.0831 -2.7492  2.2323
   62MOL   H16621028   2.860   2.754   1.075 -1.1879  1.0447  1.7577
   62MOL   H16721029   2.852   2.550   0.959  0.9254  1.8773 -0.6956
   62MOL   H16821030   2.649   2.687   0.712 -1.0589 -1.1908  1.4900
   62MOL   H16921031   2.617   2.944   0.678  2.2063 -0.4980 -1.5507
   62MOL   H17021032   2.906   3.149   0.832  0.4281 -2.7555  1.6000
   62MOL   H17121033   2.851   3.213   0.979 -0.8814 -0.3677  0.5651
   62MOL   C17221034   2.820   3.342   0.806  0.9718 -1.3038  0.1183
   62MOL   C17321035   2.794   3.343   0.653 -0.3332 -0.0595 -0.8632
   62MOL   C17421036   2.858   3.241   0.572 -0.5316  0.3576 -0.6340
   62MOL   C17521037   2.849   3.253   0.429 -0.7553  0.1277 -0.1464
   62MOL   C17621038   2.784   3.363   0.372 -0.0500 -0.9012  0.0539
   62MOL   O17721039   2.759   3.360   0.240  0.4911 -0.7510 -0.1110
   62MOL   C17821040   2.710   3.459   0.449 -0.5953 -0.3574  0.5445
   62MOL   C17921041   2.719   3.449   0.594  0.9190  0.0290  0.5908
   62MOL   C18021042   2.932   3.442   0.849  0.1714  0.4581 -0.4496
   62MOL   H18121043   2.730   3.388   0.848  0.6220 -1.7986 -0.0901
   62MOL   H18221044   2.923   3.166   0.612 -1.7460 -0.0356  0.6548
   62MOL   H18321045   2.897   3.181   0.365 -1.3179  0.8862 -1.4214
   62MOL   H18421046   2.706   3.431   0.206 -0.3591  0.4800  3.5877
   62MOL   H18521047   2.659   3.544   0.408  1.3770 -0.1277 -1.5392
   62MOL   H18621048   2.662   3.522   0.650 -1.1625 -1.8027  0.9229
   62MOL   H18721049   3.001   3.468   0.769  1.0168 -1.8804 -0.5175
   62MOL   H18821050   2.996   3.383   0.915 -0.1980  1.9782  1.3196
   62MOL   C18921051   2.888   3.565   0.935 -0.3549  0.2689  0.1154
   62MOL   C19021052   2.804   3.524   1.058 -0.2736 -0.0155  0.1521
   62MOL   C19121053   2.684   3.589   1.091  0.3911  0.5176 -0.1650
   62MOL   C19221054   2.614   3.554   1.201 -0.6942  0.0580 -0.0152
   62MOL   C19321055   2.658   3.449   1.286  0.2016 -0.0462 -0.8973
   62MOL   O19421056   2.588   3.419   1.404  0.5897 -0.0525 -0.0486
   62MOL   C19521057   2.774   3.380   1.252  0.0627  0.1199 -0.0292
   62MOL   C19621058   2.852   3.422   1.140  0.1078 -0.7065  0.0449
   62MOL   C19721059   3.003   3.666   0.973 -0.1561  0.0751  0.0556
   62MOL   H19821060   2.830   3.621   0.862  0.6283  0.3500 -0.6186
   62MOL   H19921061   2.649   3.672   1.031 -0.5527 -0.4055 -0.8886
   62MOL   H20021062   2.519   3.600   1.224 -0.2736  0.4041  1.0461
   62MOL   H20121063   2.524   3.486   1.423  1.8730  1.4331 -0.7220
   62MOL   H20221064   2.802   3.298   1.316 -1.1741  0.7838  1.3994
   62MOL   H20321065   2.945   3.369   1.120  0.1406 -0.8313  0.5263
   62MOL   H20421066   3.070   3.631   1.051  0.1453  2.7499  1.0224
   62MOL   H20521067   2.964   3.762   1.006  0.8507 -0.3560  2.5443
   62MOL   C20621068   3.109   3.699   0.868 -0.0358 -0.2072  0.0021
   62MOL   C20721069   3.215   3.802   0.924  0.3575  0.1303  0.6795
   62MOL   C20821070   3.175   3.916   0.989  0.3103 -0.0027 -0.7300
   62MOL   C20921071   3.264   4.015   1.038  0.8501  0.4679  0.0335
   62MOL   C21021072   3.400   3.990   1.014  0.1081 -0.2708 -0.3511
   62MOL   O21121073   3.496   4.069   1.057  0.3104  0.1201  0.9313
   62MOL   C21221074   3.442   3.875   0.951  0.1153  0.0570  0.0176
   62MOL   C21321075   3.350   3.780   0.901 -0.4559 -0.1709 -0.6951
   62MOL   C21421076   3.055   3.728   0.720 -0.3099 -0.0495  0.2250
   62MOL   H21521077   3.165   3.606   0.859 -0.1727 -0.2077 -0.8695
   62MOL   H21621078   3.069   3.937   0.998  0.1883 -1.0798  0.4373
   62MOL   H21721079   3.228   4.106   1.083 -0.6578  0.9968 -2.1371
   62MOL   H21821080   3.564   4.066   0.992  0.0708 -3.4528  0.7263
   62MOL   H21921081   3.545   3.857   0.924  0.0677 -0.4220  0.1509
   62MOL   H22021082   3.391   3.698   0.844 -1.0184 -0.7836 -0.2418
   62MOL   H22121083   3.019   3.830   0.709 -1.2310 -0.3000  0.8612
   62MOL   H22221084   2.967   3.668   0.697  1.0403 -2.2539  0.6426
   62MOL   C22321085   3.158   3.692   0.613 -0.1910 -0.2612 -0.3426
   62MOL   C22421086   3.153   3.795   0.498 -0.1542  0.7509 -0.0002
   62MOL   C22521087   3.055   3.780   0.396 -1.0400  0.5772 -0.1450
   62MOL   C22621088   3.053   3.877   0.294 -0.4070  0.1185  0.3225
   62MOL   C22721089   3.137   3.988   0.292 -0.0768 -0.5176  0.3566
   62MOL   O22821090   3.147   4.065   0.182  0.2528 -0.2771  0.8256
   62MOL   C22921091   3.217   4.010   0.405 -0.4179 -0.5981 -0.3277
   62MOL   C23021092   3.237   3.909   0.499  0.4064 -1.0048  0.3701
   62MOL   C23121093   3.159   3.550   0.564  0.7444 -0.3355 -0.4023
   62MOL   H23221094   3.255   3.695   0.662  0.1557  0.4448 -1.0504
   62MOL   H23321095   2.980   3.702   0.395  1.4029 -1.8169  0.4190
   62MOL   H23421096   2.985   3.865   0.211  2.0407 -3.5677 -1.2456
   62MOL   H23521097   3.151   4.019   0.100 -0.3023 -3.1472  2.3210
   62MOL   H23621098   3.283   4.095   0.403 -1.1385 -0.0313 -0.4809
   62MOL   H23721099   3.313   3.906   0.576  0.5178  0.8069  0.3415
   62MOL   H23821100   3.164   3.479   0.647  0.3342 -0.4329 -0.4580
   62MOL   H23921101   3.063   3.525   0.518  1.2094 -0.5946 -1.2411
   62MOL   C24021102   3.282   3.524   0.468  0.5857  0.8183 -0.3139
   62MOL   C24121103   3.418   3.538   0.542  0.1156  0.3570  0.2217
   62MOL   C24221104   3.502   3.645   0.508  0.2921 -0.2947 -0.1217
   62MOL   C24321105   3.635   3.648   0.556  0.1640  0.4550 -0.2317
   62MOL   C24421106   3.673   3.556   0.661  0.1341 -0.2828 -0.1472
   62MOL   O24521107   3.799   3.570   0.719  0.2982  0.0805  0.1625
   62MOL   C24621108   3.586   3.457   0.704  0.4557  0.7790  0.3282
   62MOL   C24721109   3.463   3.447   0.640 -0.2698 -0.0432 -0.8097
   62MOL   C24821110   3.266   3.379   0.410  1.3489  0.0727 -0.1767
   62MOL   H24921111   3.283   3.598   0.388  1.4397  2.5274  1.2235
   62MOL   H25021112   3.468   3.723   0.441  0.5271 -0.5069 -0.4921
   62MOL   H25121113   3.707   3.726   0.535 -1.2932  2.2580  1.3355
   62MOL   H25221114   3.820   3.507   0.786  1.1966  0.2350  0.0229
   62MOL   H25321115   3.609   3.389   0.784  0.6021  2.0635  1.3864
   62MOL   H25421116   3.403   3.363   0.672  0.2481 -0.6403 -1.3696
   62MOL   H25521117   3.331   3.309   0.463 -0.8190 -1.0093  1.1524
   62MOL   H25621118   3.164   3.343   0.429  1.5080 -1.3913 -1.9169
   62MOL   C25721119   3.278   3.357   0.260  0.1329  0.0600  0.0003
   62MOL   C25821120   3.382   3.248   0.235  0.2405 -0.2899  0.2878
   62MOL   C25921121   3.344   3.123   0.176  0.6364  0.4781  0.5622
   62MOL   C26021122   3.440   3.029   0.157 -0.0184 -0.4898  0.0188
   62MOL   C26121123   3.576   3.050   0.193  0.5157  0.3588 -0.2049
   62MOL   O26221124   3.671   2.952   0.168 -0.1093  0.7407  0.0883
   62MOL   C26321125   3.613   3.169   0.260 -0.2256  0.4400 -0.8792
   62MOL   C26421126   3.516   3.266   0.272 -0.4321 -0.1978  0.2642
   62MOL   C26521127   3.148   3.341   0.179 -0.0598 -0.1863 -0.0515
   62MOL   H26621128   3.329   3.448   0.227 -0.9027  0.4761 -0.4871
   62MOL   H26721129   3.239   3.099   0.163  1.1119  0.4389 -3.8757
   62MOL   H26821130   3.413   2.930   0.123 -0.5450 -1.0271  1.9991
   62MOL   H26921131   3.651   2.885   0.105  0.1372 -0.3239  1.1246
   62MOL   H27021132   3.714   3.186   0.292 -1.0534  0.5838  1.8139
   62MOL   H27121133   3.549   3.356   0.321  1.3365 -1.5759  1.7134
   62MOL   H27221134   3.078   3.417   0.214 -0.6876 -0.3831 -0.8632
   62MOL   H27321135   3.096   3.249   0.204 -0.2912 -0.4486 -1.4537
   62MOL   C27421136   3.163   3.359   0.028 -0.4904  0.1200  0.4454
   62MOL   C27521137   3.174   3.504   8.038  0.3664  0.7481  0.2540
   62MOL   C27621138   3.297   3.569   8.015  0.6885 -0.1707 -0.2151
   62MOL   C27721139   3.308   3.706   7.996 -0.0327  0.7152  0.5094
   62MOL   C27821140   3.193   3.786   8.006  0.0909  0.0415 -0.1971
   62MOL   O27921141   3.206   3.922   7.998  0.0983 -0.0254  0.0332
   62MOL   C28021142   3.068   3.731   8.037 -0.0294 -0.3910  0.4561
   62MOL   C28121143   3.062   3.588   0.011  0.2686  0.0839 -0.0506
   62MOL   C28221144   3.043   3.288   7.992 -0.1428 -0.2239 -0.2548
   62MOL   H28321145   3.257   3.312   8.035  1.4266  3.3071  1.2714
   62MOL   H28421146   3.375   3.496   8.002 -0.6060 -1.5977 -0.1383
   62MOL   H28521147   3.402   3.753   7.973 -0.1086  0.3200 -0.6390
   62MOL   H28621148   3.264   3.939   7.925 -1.1208  0.7629 -0.7645
   62MOL   H28721149   2.973   3.782   0.007  0.6238  0.7772  0.8487
   62MOL   H28821150   2.964   3.551   0.037 -0.1175  1.4672  0.4620
   62MOL   H28921151   3.053   3.182   8.016  2.2207  0.0299 -0.0074
   62MOL   H29021152   2.946   3.322   8.027 -0.8680 -2.4051 -0.0427
   62MOL   C29121153   3.036   3.294   7.834 -0.5181  0.0428  0.3076
   62MOL   C29221154   2.974   3.423   7.777 -0.2175  0.2422  0.0232
   62MOL   C29321155   3.053   3.518   7.706  0.1421  0.5291  0.7001
   62MOL   C29421156   3.002   3.640   7.660  0.9226 -0.3993  1.0602
   62MOL   C29521157   2.868   3.666   7.668 -0.3118  0.7584  0.2521
   62MOL   O29621158   2.826   3.786   7.621  0.0761 -0.4653 -0.4234
   62MOL   C29721159   2.780   3.576   7.733 -0.3082  0.7630 -0.2915
   62MOL   C29821160   2.834   3.457   7.797  0.5011 -0.2191  0.6442
   62MOL   C29921161   2.978   3.164   7.779  0.0563 -0.0632 -0.1373
   62MOL   H30021162   3.142   3.292   7.806 -0.3570 -0.1989  0.9246
   62MOL   H30121163   3.151   3.485   7.676 -0.5168 -0.5142 -0.3495
   62MOL   H30221164   3.068   3.714   7.616 -2.1109  0.5039 -2.2832
   62MOL   H30321165   2.736   3.796   7.650  0.2306 -0.0630 -0.0790
   62MOL   H30421166   2.673   3.592   7.734 -0.2756  0.9492  0.7733
   62MOL   H30521167   2.759   3.390   7.838  2.3427 -2.4250  0.4929
   62MOL   H30621168   2.964   3.175   7.671  0.9204 -1.3645 -0.3845
   62MOL   H30721169   2.880   3.145   7.824 -0.3270  0.1883 -0.8602
   62MOL   C30821170   3.065   3.031   7.798 -0.3299 -0.2245  0.7567
   62MOL   C30921171   3.214   3.059   7.758  0.2420  0.6728 -0.0412
   62MOL   C31021172   3.324   3.043   7.846 -0.6669 -0.5226  0.0285
   62MOL   C31121173   3.458   3.045   7.804 -0.3791  0.3502  0.3577
   62MOL   C31221174   3.480   3.075   7.668 -0.9830 -0.3754  0.1223
   62MOL   O31321175   3.609   3.066   7.617  0.6957 -0.0762 -0.2048
   62MOL   C31421176   3.375   3.103   7.579  0.2140  0.3649  0.0323
   62MOL   C31521177   3.245   3.086   7.623 -0.4769  0.0704  0.3781
   62MOL   C31621178   3.006   2.919   7.707 -0.9146  0.4729  0.5577
   62MOL   H31721179   3.063   2.998   7.902  3.3070  0.1686  1.0179
   62MOL   H31821180   3.305   3.021   7.950 -0.6357  0.2275  0.1972
   62MOL   H31921181   3.532   2.999   7.868 -1.4728 -1.6846  0.2086
   62MOL   H32021182   3.663   3.040   7.691  1.2823  1.3949 -0.1074
   62MOL   H32121183   3.391   3.127   7.475 -0.0902 -0.1759 -0.1442
   62MOL   H32221184   3.163   3.096   7.554 -0.8566  1.5424  1.0031
   62MOL   H32321185   3.067   2.882   7.626  0.0988  1.0099  1.0709
   62MOL   H32421186   2.912   2.949   7.659 -0.1559  1.9052 -0.0538
   62MOL   C32521187   2.975   2.786   7.789  0.4794 -0.3023  0.0265
   62MOL   C32621188   3.100   2.748   7.863 -0.5649  0.8121 -0.6603
   62MOL   C32721189   3.111   2.763   8.008  0.2623 -0.2137 -0.7330
   62MOL   C32821190   3.223   2.717   0.040 -0.3675  0.0322  0.2059
   62MOL   C32921191   3.332   2.661   8.006  0.3309  0.0724  0.4180
   62MOL   O33021192   3.452   2.624   0.033 -0.1255  1.1281 -0.1340
   62MOL   C33121193   3.323   2.645   7.866 -0.1209 -0.2123  0.3330
   62MOL   C33221194   3.212   2.690   7.795  0.6291 -0.1135 -0.4606
   62MOL   C33321195   2.919   2.688   7.703  0.2848 -0.2990  0.4393
   62MOL   H33421196   2.902   2.810   7.866  0.1041  0.1697 -0.4746
   62MOL   H33521197   3.026   2.806   0.020  1.4431  1.6938 -0.3034
   62MOL   H33621198   3.227   2.735   0.146 -1.6217  0.9427  0.1059
   62MOL   H33721199   3.430   2.593   0.120  0.0900  0.1138 -0.4396
   62MOL   H33821200   3.403   2.611   7.802  0.3809  3.0336 -0.8534
   62MOL   H33921201   3.216   2.693   7.687 -0.3195  0.5662 -0.4824
   62MOL   H34021202   2.830   2.732   7.659 -0.7637  0.1451  2.9406
   62MOL   H34121203   2.889   2.601   7.760  1.5895 -0.8823  0.2533
   62MOL   H34221204   2.997   2.668   7.629  0.9633  1.3326  0.6831
   63MOL     C121205   5.835   2.111   6.063 -0.0994 -0.4681  0.0835
   63MOL     C221206   5.747   2.028   5.977  0.3376  0.3411  0.9900
   63MOL     C321207   5.625   2.086   5.934 -0.3891 -0.4709 -0.6676
   63MOL     C421208   5.539   2.010   5.852  0.3506 -0.0573  0.0364
   63MOL     C521209   5.578   1.878   5.816  0.6564 -0.5311 -0.4974
   63MOL     O621210   5.501   1.802   5.738  0.0463  0.0065  0.0637
   63MOL     C721211   5.695   1.819   5.864  0.8982  0.8268  0.0546
   63MOL     C821212   5.783   1.897   5.940 -0.1638  1.1714  0.1861
   63MOL     C921213   5.780   2.117   6.210  0.4110  0.3480 -0.3791
   63MOL    H1021214   5.930   2.058   6.055 -1.1784 -1.9331 -4.1318
   63MOL    H1121215   5.606   2.191   5.954 -0.0274 -0.6056  0.4017
   63MOL    H1221216   5.452   2.062   5.814  1.2392  0.3966 -1.4249
   63MOL    H1321217   5.527   1.712   5.735 -0.2199 -0.0733  0.1007
   63MOL    H1421218   5.725   1.720   5.832 -2.2790 -0.7535  1.6476
   63MOL    H1521219   5.885   1.874   5.967  0.0323  0.1299 -1.3806
   63MOL    H1621220   5.674   2.139   6.201  0.5495  1.0459 -0.3087
   63MOL    H1721221   5.815   2.213   6.247 -2.6058  1.7161 -0.9712
   63MOL    H1821222   5.848   2.212   6.024  1.2764 -1.1419 -1.2142
   63MOL    C1921223   5.803   1.991   6.299 -0.0853  0.0131 -0.3490
   63MOL    C2021224   5.698   2.014   6.412  0.7617  0.1018 -0.1441
   63MOL    C2121225   5.712   2.117   6.505  0.5562 -0.2544  0.3488
   63MOL    C2221226   5.618   2.131   6.614 -0.7240  0.2394  0.8694
   63MOL    C2321227   5.532   2.023   6.640 -0.4048  0.0367 -0.1024
   63MOL    O2421228   5.452   2.037   6.749  0.5054 -0.3149  0.3732
   63MOL    C2521229   5.513   1.917   6.545 -0.8762 -0.5022  0.4888
   63MOL    C2621230   5.597   1.912   6.431  0.8869  0.0557 -0.1695
   63MOL    C2721231   5.944   1.975   6.359  0.0700  0.4590 -0.8981
   63MOL    H2821232   5.768   1.901   6.248 -1.1348  0.5552 -0.5867
   63MOL    H2921233   5.787   2.194   6.489 -0.4025  0.1800 -2.3917
   63MOL    H3021234   5.616   2.217   6.680  0.1401 -0.1272  1.3898
   63MOL    H3121235   5.411   2.122   6.751 -0.9500 -1.0079  0.7310
   63MOL    H3221236   5.442   1.839   6.566 -1.8448 -0.1419 -1.3422
   63MOL    H3321237   5.596   1.826   6.366 -0.2882 -0.5599  0.6567
   63MOL    H3421238   5.928   1.940   6.461 -0.9018 -1.0178 -1.5364
   63MOL    H3521239   5.975   2.079   6.369 -0.1852  0.3761  0.7616
   63MOL    C3621240   6.051   1.894   6.270  0.2557 -0.1764 -0.1319
   63MOL    C3721241   6.102   1.759   6.338 -0.0484  0.5590  0.6956
   63MOL    C3821242   6.165   1.761   6.463  0.0043 -0.4285  0.1078
   63MOL    C3921243   6.225   1.647   6.517 -0.0483  0.6999 -0.3123
   63MOL    C4021244   6.217   1.531   6.443  0.0811  0.4609  0.3650
   63MOL    O4121245   6.294   1.425   6.486  0.3876  0.6821  0.4983
   63MOL    C4221246   6.140   1.526   6.328 -0.1780 -0.2252 -0.2075
   63MOL    C4321247   6.087   1.637   6.271 -0.2318  0.5196  0.1894
   63MOL    C4421248   6.166   1.983   6.237 -0.2980  0.1103  0.0050
   63MOL    H4521249   6.003   1.859   6.179  0.7441 -0.6651 -0.2018
   63MOL    H4621250   6.169   1.850   6.525  2.5666  0.7007 -1.6103
   63MOL    H4721251   6.287   1.649   6.605  1.9062  0.0219 -1.6321
   63MOL    H4821252   6.302   1.418   6.580  0.2117  1.3064  0.5624
   63MOL    H4921253   6.134   1.439   6.265  4.3015 -1.8097  1.3262
   63MOL    H5021254   6.041   1.623   6.175  0.6856  0.9590 -0.3257
   63MOL    H5121255   6.134   2.081   6.204  1.2037  0.9826  1.0533
   63MOL    H5221256   6.217   2.003   6.332  0.9242 -0.4310 -0.5246
   63MOL    C5321257   6.274   1.921   6.150  0.4040 -0.7097 -0.0073
   63MOL    C5421258   6.213   1.875   6.018 -0.4092 -0.3695 -0.6279
   63MOL    C5521259   6.198   1.738   5.990 -0.3722  0.3618  0.9879
   63MOL    C5621260   6.142   1.697   5.870 -0.2719  0.0270  0.1289
   63MOL    C5721261   6.104   1.789   5.772 -0.5222  0.6887 -0.2916
   63MOL    O5821262   6.049   1.741   5.654 -0.2541  0.0245  0.4968
   63MOL    C5921263   6.120   1.928   5.801 -0.2265 -0.1908  0.0047
   63MOL    C6021264   6.170   1.971   5.926  0.1555  0.0144 -0.3824
   63MOL    C6121265   6.395   2.018   6.130 -0.1881  0.2797  0.3423
   63MOL    H6221266   6.310   1.827   6.192  0.0398 -0.1559  1.5737
   63MOL    H6321267   6.242   1.664   6.056  0.5432  2.7112  3.0782
   63MOL    H6421268   6.126   1.591   5.852 -0.1907  0.1299 -0.5406
   63MOL    H6521269   5.973   1.789   5.625  1.9716  2.6559 -1.2292
   63MOL    H6621270   6.082   2.000   5.730  2.1965  0.0912 -1.0351
   63MOL    H6721271   6.171   2.078   5.941 -0.9687 -0.3052  2.2020
   63MOL    H6821272   6.364   2.120   6.106  0.7251  0.0125 -2.1188
   63MOL    H6921273   6.459   1.979   6.051  0.6513 -0.6564  1.4674
   63MOL    C7021274   6.484   2.045   6.253 -0.0110 -0.0937  0.0387
   63MOL    C7121275   6.577   2.161   6.242 -0.6204 -0.1995  0.0947
   63MOL    C7221276   6.691   2.150   6.166  0.1079  0.4303  0.7608
   63MOL    C7321277   6.789   2.248   6.153 -0.4969  0.3120 -0.1968
   63MOL    C7421278   6.767   2.370   6.212 -0.0612  1.1660  0.8452
   63MOL    O7521279   6.856   2.476   6.206  0.2763 -0.5284  0.3357
   63MOL    C7621280   6.659   2.377   6.302 -0.2934 -0.4574  0.0635
   63MOL    C7721281   6.557   2.282   6.308  0.5496  0.1792  0.2032
   63MOL    C7821282   6.544   1.908   6.300  0.2608  0.2796 -0.0720
   63MOL    H7921283   6.405   2.072   6.323 -0.5946  1.4103 -1.1665
   63MOL    H8021284   6.702   2.055   6.117  1.0010 -0.5010  2.7342
   63MOL    H8121285   6.866   2.239   6.078  1.0453  0.6402  1.3386
   63MOL    H8221286   6.825   2.549   6.258  1.5550 -0.7824  1.4927
   63MOL    H8321287   6.649   2.468   6.359  3.5122 -1.4554  2.5025
   63MOL    H8421288   6.470   2.309   6.366 -0.1031  1.7457 -1.4238
   63MOL    H8521289   6.629   1.889   6.234 -0.2837 -1.3974 -0.3067
   63MOL    H8621290   6.483   1.818   6.294  0.0628  0.4182 -0.1597
   63MOL    C8721291   6.580   1.914   6.452  0.3378 -0.5017 -0.9520
   63MOL    C8821292   6.683   1.803   6.480  0.1901  0.6027 -0.4117
   63MOL    C8921293   6.642   1.669   6.500 -0.0069 -0.0793  0.2238
   63MOL    C9021294   6.747   1.580   6.551 -0.0439 -0.1699  0.2224
   63MOL    C9121295   6.881   1.625   6.566  0.2367 -0.5136  0.8705
   63MOL    O9221296   6.969   1.539   6.618 -0.1853  0.1209 -0.3477
   63MOL    C9321297   6.919   1.753   6.524 -0.4658  0.4135 -0.0212
   63MOL    C9421298   6.818   1.845   6.480 -0.2227  0.0492 -0.0708
   63MOL    C9521299   6.458   1.917   6.550 -0.6754 -0.1239 -0.5884
   63MOL    H9621300   6.642   2.002   6.470 -0.5817  0.0271 -0.3415
   63MOL    H9721301   6.538   1.641   6.505 -0.7062  2.4128 -0.1007
   63MOL    H9821302   6.734   1.475   6.568  1.8375 -0.4775 -0.1565
   63MOL    H9921303   7.054   1.580   6.611 -0.4329  1.0863  1.9634
   63MOL   H10021304   7.019   1.793   6.526  0.2486 -1.1592 -2.5229
   63MOL   H10121305   6.845   1.945   6.451 -0.7447 -0.5485 -2.7842
   63MOL   H10221306   6.388   1.993   6.517  0.2354  0.5578 -0.9926
   63MOL   H10321307   6.401   1.824   6.543 -1.0307  0.0771 -0.3282
   63MOL   C10421308   6.497   1.942   6.695 -0.3524  0.0212  0.2210
   63MOL   C10521309   6.373   1.886   6.780  0.7932  0.5038 -0.2980
   63MOL   C10621310   6.384   1.761   6.846  0.0240 -0.5047 -0.0109
   63MOL   C10721311   6.264   1.715   6.907 -0.0803  0.7556  0.4011
   63MOL   C10821312   6.146   1.794   6.913  0.4843  0.2062 -0.0580
   63MOL   O10921313   6.034   1.731   6.957 -0.0890  0.1655  0.3357
   63MOL   C11021314   6.137   1.921   6.857 -0.5868 -0.7311 -0.3404
   63MOL   C11121315   6.255   1.966   6.792  0.5131 -0.1657 -0.3296
   63MOL   C11221316   6.511   2.092   6.718 -0.1746  0.0413  0.9649
   63MOL   H11321317   6.583   1.887   6.733  0.2755  1.6474  1.2080
   63MOL   H11421318   6.475   1.703   6.852  0.1608 -0.3027 -0.1228
   63MOL   H11521319   6.272   1.614   6.943 -0.7978  0.2077 -0.9540
   63MOL   H11621320   5.952   1.762   6.922 -1.2606 -2.3065  0.7236
   63MOL   H11721321   6.046   1.978   6.865  0.4696  1.1919 -1.6451
   63MOL   H11821322   6.255   2.067   6.752 -2.5657 -0.2320 -0.6253
   63MOL   H11921323   6.479   2.112   6.820  0.0509 -2.6318  1.6048
   63MOL   H12021324   6.446   2.152   6.654  0.0395 -1.4940 -0.7391
   63MOL   C12121325   6.654   2.156   6.712 -1.0113 -0.1644  0.6548
   63MOL   C12221326   6.647   2.299   6.772 -0.6221 -0.0547 -0.6544
   63MOL   C12321327   6.638   2.322   6.916 -0.0357  1.0258  0.7742
   63MOL   C12421328   6.591   2.441   6.971  0.4096  0.1108  0.0445
   63MOL   C12521329   6.567   2.547   6.892  1.1431 -0.6722 -0.0773
   63MOL   O12621330   6.523   2.669   6.936 -0.4901 -0.1890 -0.0910
   63MOL   C12721331   6.572   2.529   6.756  0.0657 -0.1951  0.0916
   63MOL   C12821332   6.622   2.410   6.691 -0.2032 -0.1475 -0.2932
   63MOL   C12921333   6.762   2.070   6.780  0.0771 -0.7539 -0.1849
   63MOL   H13021334   6.679   2.169   6.607 -1.5521 -0.9524  0.4236
   63MOL   H13121335   6.662   2.246   6.990 -0.8381 -0.1392 -0.1426
   63MOL   H13221336   6.584   2.450   7.079 -0.2658 -1.7591  0.1676
   63MOL   H13321337   6.542   2.664   7.028 -3.0948 -0.1782  0.4699
   63MOL   H13421338   6.538   2.612   6.697  1.2708 -1.4507 -2.4160
   63MOL   H13521339   6.614   2.402   6.584  2.0082 -1.1965 -0.4083
   63MOL   H13621340   6.775   1.975   6.728  1.6638 -0.0464 -1.1066
   63MOL   H13721341   6.724   2.061   6.882 -2.0160 -0.3145 -0.9047
   63MOL   C13821342   6.904   2.129   6.785 -0.5910 -0.0329  0.0232
   63MOL   C13921343   6.955   2.190   6.647 -0.7023 -0.0029 -0.0006
   63MOL   C14021344   6.949   2.324   6.607  0.8049 -0.0117 -0.1440
   63MOL   C14121345   6.997   2.376   6.489 -0.0485 -0.3598 -0.1262
   63MOL   C14221346   7.062   2.288   6.402  0.4329 -0.1081 -0.8158
   63MOL   O14321347   7.104   2.337   6.286 -0.3736  0.3201 -0.0050
   63MOL   C14421348   7.072   2.149   6.433 -0.3686  0.4250  0.3912
   63MOL   C14521349   7.016   2.100   6.554 -0.4713 -0.6324 -0.7538
   63MOL   C14621350   7.003   2.025   6.834 -0.3840  0.3785 -0.6285
   63MOL   H14721351   6.905   2.211   6.856  0.7675 -0.3343  0.3585
   63MOL   H14821352   6.914   2.391   6.684 -0.4738 -0.4686 -0.3223
   63MOL   H14921353   6.998   2.482   6.467  1.4694 -0.6372 -1.4646
   63MOL   H15021354   7.067   2.424   6.277 -0.5323  0.2412 -0.1115
   63MOL   H15121355   7.124   2.080   6.369  0.6480  1.2318  0.3233
   63MOL   H15221356   7.019   1.994   6.574 -1.7925 -0.7265 -1.0164
   63MOL   H15321357   7.107   2.054   6.820  0.2619 -1.4672  0.2459
   63MOL   H15421358   6.994   1.932   6.778  1.0286 -1.1927  1.6655
   63MOL   C15521359   6.997   1.980   6.980  0.3448  0.1625 -0.3862
   63MOL   C15621360   7.023   2.093   7.082  0.4839 -0.8522  0.7667
   63MOL   C15721361   7.147   2.150   7.107  0.2179 -0.1932  0.6166
   63MOL   C15821362   7.170   2.254   7.200 -0.6971  0.3884 -0.1654
   63MOL   C15921363   7.061   2.305   7.273 -0.5040 -0.3634  0.1628
   63MOL   O16021364   7.072   2.406   7.362 -0.4938  0.2965 -0.4431
   63MOL   C16121365   6.929   2.251   7.250 -0.4747  0.4530  0.0591
   63MOL   C16221366   6.917   2.141   7.159  0.0206 -0.7344 -0.8110
   63MOL   C16321367   7.078   1.857   6.997  0.2859  0.4460 -0.4922
   63MOL   H16421368   6.897   1.945   7.005  0.5843  1.2985  2.3264
   63MOL   H16521369   7.229   2.106   7.053  1.4350  0.3869  1.9563
   63MOL   H16621370   7.269   2.287   7.227 -0.2501  1.1394 -2.6243
   63MOL   H16721371   7.050   2.381   7.450 -0.1279  0.4081 -0.3201
   63MOL   H16821372   6.838   2.290   7.294 -1.0803 -1.0743  0.1885
   63MOL   H16921373   6.821   2.095   7.139 -0.2296 -0.8538  0.5903
   63MOL   H17021374   7.186   1.874   7.002  0.2667  0.6819 -0.9495
   63MOL   H17121375   7.073   1.794   6.909  1.5414  0.9586 -0.9358
   63MOL   C17221376   7.044   1.770   7.120 -0.2683  0.7959  0.4753
   63MOL   C17321377   7.154   1.668   7.158 -0.4909  0.0372 -0.3114
   63MOL   C17421378   7.186   1.571   7.057  0.0017 -0.3857  0.0070
   63MOL   C17521379   7.264   1.458   7.085 -0.1605 -0.3020  0.2471
   63MOL   C17621380   7.321   1.441   7.208 -0.2104  0.3964 -0.3231
   63MOL   O17721381   7.384   1.321   7.231 -0.0714 -0.3085 -0.2523
   63MOL   C17821382   7.297   1.538   7.313 -0.0215  0.3174  0.2906
   63MOL   C17921383   7.209   1.646   7.286 -0.1623 -0.6094  0.0020
   63MOL   C18021384   6.896   1.713   7.122  0.5229  0.0273 -0.2759
   63MOL   H18121385   7.048   1.841   7.203  0.4971  0.9014  0.3587
   63MOL   H18221386   7.125   1.576   6.968 -1.3472 -0.6607  0.9081
   63MOL   H18321387   7.272   1.391   7.001 -0.5302 -1.8726  1.4360
   63MOL   H18421388   7.429   1.297   7.310  0.0120 -0.1462 -0.2502
   63MOL   H18521389   7.331   1.529   7.415 -1.0881 -2.6993  0.4122
   63MOL   H18621390   7.194   1.705   7.376  2.7122  0.3493 -0.1100
   63MOL   H18721391   6.900   1.620   7.066  1.0121 -0.1804  0.0998
   63MOL   H18821392   6.819   1.763   7.063 -2.3856 -2.4480  1.2734
   63MOL   C18921393   6.855   1.698   7.270  1.0939  0.1125  0.2641
   63MOL   C19021394   6.829   1.823   7.343  0.2895 -0.2313  0.1695
   63MOL   C19121395   6.733   1.916   7.303  1.1723 -0.7614 -1.4005
   63MOL   C19221396   6.705   2.037   7.380 -0.0984 -0.1052  0.4972
   63MOL   C19321397   6.784   2.062   7.493 -1.1833 -0.2981  0.0354
   63MOL   O19421398   6.748   2.172   7.571  0.0300  0.9319  0.6315
   63MOL   C19521399   6.884   1.972   7.535 -0.0118 -0.6760 -0.1643
   63MOL   C19621400   6.899   1.851   7.462 -0.2145  0.2356  0.3772
   63MOL   C19721401   6.737   1.618   7.304  0.4951  0.5180  0.1618
   63MOL   H19821402   6.936   1.643   7.318  0.8439  0.8727  1.5801
   63MOL   H19921403   6.670   1.890   7.220  3.3485 -0.1323 -3.3139
   63MOL   H20021404   6.630   2.105   7.341  1.0010  0.2310 -1.0530
   63MOL   H20121405   6.674   2.223   7.543  1.0867  0.7992 -2.5863
   63MOL   H20221406   6.942   1.988   7.625  0.9231  2.8267 -1.3322
   63MOL   H20321407   6.967   1.773   7.491 -0.3097  0.1683  0.4206
   63MOL   H20421408   6.653   1.677   7.268  0.9031  0.1059 -1.5525
   63MOL   H20521409   6.731   1.625   7.412  2.2481  0.2398  0.2912
   63MOL   C20621410   6.729   1.480   7.240 -0.3934 -0.4149 -0.3591
   63MOL   C20721411   6.593   1.432   7.264  0.4034 -0.1207  0.3808
   63MOL   C20821412   6.548   1.388   7.383  0.6467 -0.2117 -0.2733
   63MOL   C20921413   6.418   1.359   7.406  0.0827 -0.9031 -0.0439
   63MOL   C21021414   6.313   1.394   7.315 -0.2738 -0.0731  0.7860
   63MOL   O21121415   6.180   1.388   7.350 -1.0209  0.3617  0.1764
   63MOL   C21221416   6.352   1.426   7.183  0.0808  0.7611 -0.7066
   63MOL   C21321417   6.491   1.451   7.161 -0.6649  0.3258  0.5963
   63MOL   C21421418   6.832   1.382   7.296  0.2094  1.0872  0.3243
   63MOL   H21521419   6.736   1.498   7.133  0.9252 -0.9231 -0.3648
   63MOL   H21621420   6.617   1.382   7.466  0.3819  1.4696  0.0880
   63MOL   H21721421   6.392   1.334   7.508 -0.2939  2.1420  0.6556
   63MOL   H21821422   6.127   1.420   7.279 -0.7655 -0.2354 -0.2886
   63MOL   H21921423   6.277   1.443   7.108 -1.8248  0.6995  1.1481
   63MOL   H22021424   6.524   1.495   7.068  0.2584 -1.2433  0.1465
   63MOL   H22121425   6.811   1.362   7.401  1.2250 -0.5389  0.2378
   63MOL   H22221426   6.931   1.426   7.299  1.0939 -0.9145  1.3011
   63MOL   C22321427   6.838   1.241   7.226  0.0499 -0.4894 -0.4510
   63MOL   C22421428   6.731   1.144   7.270  0.0573 -0.3671 -0.7709
   63MOL   C22521429   6.628   1.101   7.182 -0.4157 -0.0374 -0.3877
   63MOL   C22621430   6.531   1.006   7.225  0.1524 -0.2657  0.3625
   63MOL   C22721431   6.539   0.956   7.357 -0.3373 -0.2440 -0.0229
   63MOL   O22821432   6.451   0.866   7.405  0.3796 -0.3162 -0.4339
   63MOL   C22921433   6.641   1.002   7.445  0.4828  0.0472  0.9407
   63MOL   C23021434   6.730   1.099   7.402 -0.9786 -0.4902  0.2197
   63MOL   C23121435   6.983   1.186   7.219 -0.5065  0.0778 -0.2835
   63MOL   H23221436   6.817   1.269   7.123 -1.4823  1.1597  0.2696
   63MOL   H23321437   6.628   1.138   7.080  0.3484 -4.1569 -2.0067
   63MOL   H23421438   6.450   0.983   7.157  1.2021 -1.1141 -0.6253
   63MOL   H23521439   6.423   0.800   7.343 -3.3489  0.0554  0.7360
   63MOL   H23621440   6.652   0.962   7.545  0.2377 -0.4263  0.7818
   63MOL   H23721441   6.800   1.144   7.470 -2.2035 -0.5368  1.5367
   63MOL   H23821442   7.056   1.264   7.200  0.9387 -0.6384  2.0741
   63MOL   H23921443   7.014   1.153   7.319  1.4121  0.4745 -0.7274
   63MOL   C24021444   7.000   1.060   7.121 -0.1256 -0.3901 -0.4506
   63MOL   C24121445   6.975   1.120   6.980  0.3708  0.8447  0.3016
   63MOL   C24221446   6.865   1.075   6.905 -0.6375  0.4936 -0.2304
   63MOL   C24321447   6.837   1.125   6.775  0.2963  0.0342 -0.3115
   63MOL   C24421448   6.917   1.219   6.716 -0.4964  0.2036 -0.5836
   63MOL   O24521449   6.886   1.264   6.593  0.6596 -0.2517  0.6430
   63MOL   C24621450   7.031   1.257   6.791  0.0321 -0.9422  0.5144
   63MOL   C24721451   7.061   1.207   6.918 -0.0834 -0.6835  0.5132
   63MOL   C24821452   7.135   0.990   7.130  0.0800 -0.3341 -0.2080
   63MOL   H24921453   6.916   0.997   7.150  2.7771 -4.3175 -0.1516
   63MOL   H25021454   6.809   0.991   6.944  0.3960 -0.7566 -1.3994
   63MOL   H25121455   6.747   1.099   6.720  0.1798 -0.3255  0.0389
   63MOL   H25221456   6.948   1.330   6.563 -1.0064  1.3596  0.6327
   63MOL   H25321457   7.091   1.338   6.751 -2.7786  0.9618 -0.0077
   63MOL   H25421458   7.142   1.251   6.974 -0.6716 -0.6893  1.3789
   63MOL   H25521459   7.213   1.058   7.161 -1.3133  0.6635  1.2123
   63MOL   H25621460   7.138   0.919   7.213 -0.2018  2.3860  2.1968
   63MOL   C25721461   7.183   0.919   7.006  0.3154  0.1238  0.1800
   63MOL   C25821462   7.336   0.871   7.020 -0.2405  0.9033  0.6191
   63MOL   C25921463   7.439   0.951   6.955 -0.4440 -0.1332  0.5123
   63MOL   C26021464   7.567   0.903   6.953  0.8026  0.1012  0.0159
   63MOL   C26121465   7.604   0.786   7.021  0.5611 -0.3261  0.1051
   63MOL   O26221466   7.732   0.745   7.006  0.3597 -0.3444 -0.4585
   63MOL   C26321467   7.509   0.718   7.098  0.2688 -0.4831 -0.4665
   63MOL   C26421468   7.372   0.759   7.102  0.7328 -0.0115  0.4446
   63MOL   C26521469   7.088   0.798   6.968  0.2942  0.1952  0.5526
   63MOL   H26621470   7.182   0.974   6.911 -0.4679 -3.1109 -1.7626
   63MOL   H26721471   7.414   1.041   6.901 -1.8410 -1.4878 -1.1924
   63MOL   H26821472   7.646   0.953   6.898  1.5335  1.2667  2.1024
   63MOL   H26921473   7.755   0.653   7.004 -1.9831 -0.9584 -0.4999
   63MOL   H27021474   7.540   0.623   7.140 -1.6827 -1.5207 -1.2805
   63MOL   H27121475   7.299   0.696   7.152 -0.5705  1.1848  0.0807
   63MOL   H27221476   6.997   0.832   7.015  0.2025 -1.5450  1.6719
   63MOL   H27321477   7.113   0.708   7.025  0.7151 -0.4256 -0.5880
   63MOL   C27421478   7.064   0.778   6.816  0.4176 -0.3909 -0.6128
   63MOL   C27521479   6.926   0.718   6.788  0.7818  0.3744 -0.4568
   63MOL   C27621480   6.838   0.765   6.690 -0.8125  0.0863 -0.0033
   63MOL   C27721481   6.701   0.726   6.671 -0.6892 -0.0361  0.8476
   63MOL   C27821482   6.648   0.632   6.762 -0.2855  0.6679  0.4787
   63MOL   O27921483   6.519   0.596   6.755  0.3639  0.1507  0.4472
   63MOL   C28021484   6.734   0.575   6.856 -0.4175  0.3631 -0.3551
   63MOL   C28121485   6.871   0.609   6.865  0.7959 -0.2007 -0.6302
   63MOL   C28221486   7.178   0.694   6.752 -0.5149 -0.5660 -1.1289
   63MOL   H28321487   7.060   0.881   6.779 -0.8469 -0.7419 -1.4854
   63MOL   H28421488   6.876   0.850   6.634 -1.5874  0.3906 -0.0640
   63MOL   H28521489   6.636   0.777   6.601  1.0709  0.3392 -0.5411
   63MOL   H28621490   6.515   0.506   6.784  0.3579  0.5743  1.7649
   63MOL   H28721491   6.702   0.512   6.938  1.4699  1.4244  1.2523
   63MOL   H28821492   6.929   0.561   6.941  0.0971  1.1925  0.8170
   63MOL   H28921493   7.272   0.710   6.805 -0.8203 -1.0319 -0.4338
   63MOL   H29021494   7.168   0.586   6.762  1.7865 -0.6072  1.2976
   63MOL   C29121495   7.221   0.735   6.600  0.6383 -0.3173 -1.0028
   63MOL   C29221496   7.336   0.647   6.559 -0.6293  0.0333  0.3103
   63MOL   C29321497   7.319   0.561   6.450  0.4415  0.5432 -0.2037
   63MOL   C29421498   7.429   0.485   6.406 -0.5445  0.2149 -0.6481
   63MOL   C29521499   7.564   0.509   6.460  0.3454 -0.1004 -0.6736
   63MOL   O29621500   7.665   0.444   6.407  0.1019 -0.5486  0.7250
   63MOL   C29721501   7.583   0.601   6.568 -0.6928 -0.3896 -0.7068
   63MOL   C29821502   7.465   0.666   6.615 -0.1857 -0.5523  0.5146
   63MOL   C29921503   7.266   0.882   6.596  0.3186 -0.4086 -0.4039
   63MOL   H30021504   7.138   0.722   6.530 -0.5666  3.0168 -0.2656
   63MOL   H30121505   7.219   0.535   6.419  0.9776  0.6393 -2.0507
   63MOL   H30221506   7.430   0.423   6.318 -1.2687  2.1392 -2.0390
   63MOL   H30321507   7.741   0.431   6.461  2.0737  3.1495 -0.9520
   63MOL   H30421508   7.676   0.619   6.618 -1.9266 -0.8555  1.8345
   63MOL   H30521509   7.479   0.737   6.696 -1.7777  0.7563 -0.3199
   63MOL   H30621510   7.368   0.891   6.558  0.2693  1.3206 -0.1974
   63MOL   H30721511   7.279   0.924   6.696 -1.6059 -3.1825  1.0663
   63MOL   C30821512   7.176   0.974   6.501 -0.4030  0.2684  0.6500
   63MOL   C30921513   7.146   0.925   6.358 -0.1851 -0.2485 -0.5525
   63MOL   C31021514   7.027   0.974   6.301 -0.9882 -0.7780 -0.2491
   63MOL   C31121515   6.999   0.934   6.169  0.3881  0.1120  0.4524
   63MOL   C31221516   7.086   0.853   6.097  0.0186  0.4540 -0.3144
   63MOL   O31321517   7.070   0.821   5.967 -0.7038 -0.1169  0.4786
   63MOL   C31421518   7.200   0.806   6.164  0.4381  0.2125  0.0422
   63MOL   C31521519   7.235   0.838   6.292  0.4651 -0.0850 -0.1853
   63MOL   C31621520   7.221   1.120   6.511 -0.1535 -0.1433  0.4146
   63MOL   H31721521   7.084   0.979   6.558 -0.3829  0.2728  0.6816
   63MOL   H31821522   6.979   1.062   6.341  1.2675  1.7232 -2.8349
   63MOL   H31921523   6.913   0.976   6.118 -1.0845 -2.6332  0.5843
   63MOL   H32021524   7.120   0.744   5.946 -0.8987 -0.1067 -0.0272
   63MOL   H32121525   7.280   0.759   6.109  0.2028 -0.2116  0.0643
   63MOL   H32221526   7.335   0.811   6.321  0.5662  0.5269  0.0555
   63MOL   H32321527   7.269   1.139   6.607  1.2990  0.3697 -0.4024
   63MOL   H32421528   7.141   1.194   6.516  0.0281  0.2618 -1.9654
   63MOL   C32521529   7.327   1.158   6.405 -0.3031  0.2598 -0.1728
   63MOL   C32621530   7.464   1.101   6.433 -0.3998  0.1823  1.0313
   63MOL   C32721531   7.533   1.107   6.555  0.6839  1.0752  0.4100
   63MOL   C32821532   7.655   1.039   6.579  0.4455 -0.1503 -0.0462
   63MOL   C32921533   7.711   0.959   6.480 -0.7023  0.2127 -0.0565
   63MOL   O33021534   7.833   0.900   6.503 -0.1589  0.2019  0.0669
   63MOL   C33121535   7.646   0.955   6.355 -0.1809  0.5300  0.1541
   63MOL   C33221536   7.523   1.022   6.334  0.0811 -0.7953  0.0760
   63MOL   C33321537   7.342   1.314   6.394  0.3895 -0.0482  0.2181
   63MOL   H33421538   7.295   1.117   6.309  1.0018  0.1638 -0.5772
   63MOL   H33521539   7.488   1.163   6.635 -0.6884  0.0977  0.3477
   63MOL   H33621540   7.703   1.035   6.676  0.0622  1.5334  0.2334
   63MOL   H33721541   7.856   0.898   6.595 -2.1487 -2.9874  0.5555
   63MOL   H33821542   7.680   0.885   6.281 -0.0124 -1.7914  2.3336
   63MOL   H33921543   7.476   1.017   6.237  1.2644  2.1148 -0.6960
   63MOL   H34021544   7.242   1.350   6.369  0.1597 -0.3196  0.7343
   63MOL   H34121545   7.416   1.336   6.317 -0.3023 -0.0835 -0.4747
   63MOL   H34221546   7.377   1.349   6.490 -0.1685  1.2449 -0.0479
   64MOL     C121547   5.759   0.485   4.639 -0.2891 -0.8707  0.1837
   64MOL     C221548   5.884   0.421   4.692 -0.6145  0.3734 -0.0387
   64MOL     C321549   5.912   0.286   4.676  0.2037  0.7338 -0.6065
   64MOL     C421550   6.035   0.231   4.721  0.4280 -0.1960  0.2797
   64MOL     C521551   6.117   0.307   4.804 -0.2067 -0.6808  0.4181
   64MOL     O621552   6.231   0.254   4.848  0.3625  0.2258  0.3994
   64MOL     C721553   6.074   0.435   4.845 -0.6226  0.1624  0.5084
   64MOL     C821554   5.955   0.491   4.791 -1.0538  0.1292 -0.6846
   64MOL     C921555   5.669   0.405   4.543 -0.0892 -0.0967 -0.6609
   64MOL    H1021556   5.692   0.510   4.721 -2.8858 -0.2000 -2.0587
   64MOL    H1121557   5.858   0.234   4.597  1.7565 -0.1421 -1.1233
   64MOL    H1221558   6.060   0.129   4.695 -0.8095 -0.7585  1.2651
   64MOL    H1321559   6.253   0.173   4.805 -2.4470 -0.4605  0.1049
   64MOL    H1421560   6.137   0.495   4.909  0.1926  0.8205 -0.8809
   64MOL    H1521561   5.934   0.596   4.810 -4.0426 -0.8612  1.9070
   64MOL    H1621562   5.646   0.306   4.582  1.8195 -0.4563 -0.4178
   64MOL    H1721563   5.730   0.385   4.455  0.4748 -1.2044 -0.0224
   64MOL    H1821564   5.788   0.583   4.602  0.9879 -1.4561 -0.3702
   64MOL    C1921565   5.528   0.471   4.516  0.0785  0.5122  0.2860
   64MOL    C2021566   5.449   0.390   4.409  0.4486  0.1320 -0.4436
   64MOL    C2121567   5.317   0.360   4.434 -0.1536  0.2599  0.0695
   64MOL    C2221568   5.242   0.284   4.338  0.4159 -0.1679 -0.0241
   64MOL    C2321569   5.299   0.241   4.217 -0.0591  0.1793  0.3901
   64MOL    O2421570   5.225   0.156   4.138 -0.4426 -0.4292 -0.4382
   64MOL    C2521571   5.435   0.265   4.198 -0.1335 -0.1372 -0.0431
   64MOL    C2621572   5.510   0.350   4.289 -0.1867 -0.3296  0.8044
   64MOL    C2721573   5.540   0.612   4.463  0.8149 -0.3869 -0.0816
   64MOL    H2821574   5.468   0.469   4.606 -1.2125  0.9100 -0.5588
   64MOL    H2921575   5.269   0.408   4.517  1.1198  1.0787  0.3557
   64MOL    H3021576   5.136   0.282   4.361  0.5221 -0.2432  0.4669
   64MOL    H3121577   5.282   0.145   4.063 -1.0074  0.3531 -0.9944
   64MOL    H3221578   5.482   0.235   4.106 -1.3851  0.7095 -0.9704
   64MOL    H3321579   5.612   0.375   4.261 -0.4373 -0.1757  0.0374
   64MOL    H3421580   5.599   0.600   4.372  1.8961  1.3648  0.3596
   64MOL    H3521581   5.605   0.674   4.525  0.9707  0.0089 -0.6314
   64MOL    C3621582   5.405   0.695   4.450 -0.7415 -0.3701  0.0080
   64MOL    C3721583   5.432   0.819   4.359 -0.5506  0.2457  0.3324
   64MOL    C3821584   5.530   0.913   4.400 -0.5470  0.5634 -1.0070
   64MOL    C3921585   5.559   1.028   4.324  0.5575  0.4274  0.2989
   64MOL    C4021586   5.481   1.061   4.213  0.4869 -0.1920 -0.5058
   64MOL    O4121587   5.506   1.179   4.145 -0.7588  0.4597 -0.3690
   64MOL    C4221588   5.376   0.972   4.175 -0.6217  0.5145 -0.0860
   64MOL    C4321589   5.358   0.849   4.243 -0.4546  0.3161 -0.3119
   64MOL    C4421590   5.349   0.736   4.590 -0.7473  0.9229  0.3334
   64MOL    H4521591   5.335   0.632   4.397  1.0155 -0.1635 -2.6848
   64MOL    H4621592   5.582   0.900   4.494 -1.7708 -0.9098 -0.5111
   64MOL    H4721593   5.631   1.106   4.345  1.3937 -0.8878  2.4183
   64MOL    H4821594   5.570   1.161   4.079 -0.7461 -1.0428  0.0378
   64MOL    H4921595   5.316   0.985   4.086 -2.8637 -1.5525  1.0542
   64MOL    H5021596   5.275   0.791   4.209  1.4249 -0.6736 -3.4098
   64MOL    H5121597   5.331   0.635   4.627 -0.2070  0.8680  0.4587
   64MOL    H5221598   5.423   0.784   4.654  1.2011 -2.5109  0.7912
   64MOL    C5321599   5.220   0.825   4.593  0.4133  0.9161  0.1930
   64MOL    C5421600   5.105   0.736   4.536 -0.6732 -0.5097 -0.2867
   64MOL    C5521601   5.065   0.753   4.401 -0.1988  0.4960  0.5144
   64MOL    C5621602   4.961   0.682   4.346 -0.0109  0.2897 -0.3028
   64MOL    C5721603   4.898   0.584   4.427 -0.7739  0.5863  0.3763
   64MOL    O5821604   4.796   0.511   4.373 -0.1502  0.4160  0.2631
   64MOL    C5921605   4.946   0.556   4.558 -0.2306  0.2981 -0.8021
   64MOL    C6021606   5.052   0.630   4.611 -0.6440 -0.6136 -0.8677
   64MOL    C6121607   5.197   0.888   4.733  0.4577  0.4259  0.6906
   64MOL    H6221608   5.233   0.903   4.518  2.4806  1.7811  1.4020
   64MOL    H6321609   5.108   0.833   4.343  0.4279  0.7814  1.3669
   64MOL    H6421610   4.923   0.720   4.252 -0.7362  0.6778  0.1477
   64MOL    H6521611   4.791   0.517   4.279  0.8712 -0.4076  0.1519
   64MOL    H6621612   4.907   0.477   4.620  1.2387  0.8416  0.8559
   64MOL    H6721613   5.088   0.607   4.711 -0.0202  1.3764 -0.6065
   64MOL    H6821614   5.209   0.817   4.814 -0.4219 -0.4742  0.0452
   64MOL    H6921615   5.090   0.906   4.739  0.0910 -1.6774  1.0255
   64MOL    C7021616   5.267   1.021   4.750  0.6669 -0.3040 -0.0303
   64MOL    C7121617   5.414   1.009   4.783  0.4177  0.0311 -0.3291
   64MOL    C7221618   5.505   1.091   4.713 -0.0087 -0.6783  0.2204
   64MOL    C7321619   5.637   1.106   4.751  0.0889 -0.8108 -0.3740
   64MOL    C7421620   5.681   1.044   4.867  0.1197  0.3013  0.0574
   64MOL    O7521621   5.807   1.073   4.917  0.0546  0.1562  0.3491
   64MOL    C7621622   5.590   0.957   4.935 -0.1253  0.5294 -0.5539
   64MOL    C7721623   5.462   0.932   4.886  0.9777  0.7786  0.8757
   64MOL    C7821624   5.199   1.093   4.869 -0.4927 -0.9763 -0.8832
   64MOL    H7921625   5.253   1.089   4.666  2.3509 -0.6791 -0.6379
   64MOL    H8021626   5.477   1.153   4.630  0.0473 -1.6283 -0.5220
   64MOL    H8121627   5.699   1.183   4.709 -2.5237  1.0079 -1.0477
   64MOL    H8221628   5.819   1.023   4.997  0.4249  1.5204  1.1687
   64MOL    H8321629   5.606   0.913   5.032  0.3537  1.3591 -0.2587
   64MOL    H8421630   5.393   0.866   4.936  2.9974 -1.2665  1.0228
   64MOL    H8521631   5.203   1.042   4.965 -0.2736 -0.0413 -0.3903
   64MOL    H8621632   5.093   1.105   4.849 -0.8283 -2.4016 -0.0120
   64MOL    C8721633   5.262   1.235   4.895  0.2197  0.3136  0.0920
   64MOL    C8821634   5.335   1.239   5.020 -0.6924  0.7078 -0.5694
   64MOL    C8921635   5.264   1.222   5.147 -0.6063  0.5849 -0.2646
   64MOL    C9021636   5.332   1.214   5.269  0.1643 -0.4251  0.1944
   64MOL    C9121637   5.470   1.247   5.272 -0.5615 -0.7920  0.7744
   64MOL    O9221638   5.534   1.263   5.389 -0.1849 -0.2811  0.1287
   64MOL    C9321639   5.535   1.278   5.149 -0.1804  0.1715 -0.8697
   64MOL    C9421640   5.470   1.271   5.025  0.5606 -0.5344 -0.0089
   64MOL    C9521641   5.146   1.348   4.892  0.3309  0.7506 -0.1422
   64MOL    H9621642   5.330   1.255   4.812  0.4473 -3.1269 -0.6162
   64MOL    H9721643   5.158   1.207   5.136 -0.5083  1.0650 -2.1923
   64MOL    H9821644   5.266   1.191   5.351  0.8664 -4.1201 -0.1842
   64MOL    H9921645   5.617   1.217   5.394  0.3755  0.7450  0.4274
   64MOL   H10021646   5.638   1.308   5.159 -0.5617  1.5799 -1.0681
   64MOL   H10121647   5.526   1.305   4.939  1.0909  0.3396  0.6652
   64MOL   H10221648   5.062   1.298   4.940  1.3384  0.6995  1.6339
   64MOL   H10321649   5.160   1.423   4.970 -0.3202 -0.0048  0.7133
   64MOL   C10421650   5.124   1.418   4.756  0.1284 -0.9027  0.3439
   64MOL   C10521651   5.081   1.326   4.640  0.3492  0.1498 -0.0089
   64MOL   C10621652   5.150   1.319   4.515 -0.0560  0.0669  0.3193
   64MOL   C10721653   5.108   1.223   4.423  0.2641 -0.1282  0.5207
   64MOL   C10821654   4.994   1.147   4.434  0.2437 -0.1706 -0.6567
   64MOL   O10921655   4.955   1.059   4.340 -0.1932 -0.0218  0.4776
   64MOL   C11021656   4.914   1.168   4.549  0.4082 -0.3558 -1.1503
   64MOL   C11121657   4.962   1.250   4.651 -0.4657  0.1528 -0.8786
   64MOL   C11221658   5.258   1.503   4.717  0.2002 -0.1275  0.2782
   64MOL   H11321659   5.039   1.485   4.759 -1.6330 -2.8442 -3.0014
   64MOL   H11421660   5.235   1.378   4.484  0.9368 -1.1999  0.6484
   64MOL   H11521661   5.151   1.211   4.325 -2.3906 -0.7518 -0.6298
   64MOL   H11621662   4.867   1.027   4.354 -0.2625  0.0264  0.1557
   64MOL   H11721663   4.829   1.104   4.562  0.6008 -0.3248  0.3610
   64MOL   H11821664   4.915   1.258   4.747 -0.0855  0.3914 -0.7119
   64MOL   H11921665   5.226   1.558   4.628  1.0529  1.4415  0.9363
   64MOL   H12021666   5.332   1.436   4.674  1.7471  2.2021 -0.8119
   64MOL   C12121667   5.323   1.585   4.830  0.7392  0.3731  0.0327
   64MOL   C12221668   5.455   1.639   4.775 -0.2676 -0.7844 -0.0221
   64MOL   C12321669   5.459   1.722   4.664  0.0755  0.0695  0.1090
   64MOL   C12421670   5.579   1.777   4.617  0.1116  0.5100  0.1617
   64MOL   C12521671   5.701   1.748   4.681  1.0738 -0.2135  0.0208
   64MOL   O12621672   5.819   1.806   4.636  0.1522  0.7582 -0.3409
   64MOL   C12721673   5.702   1.658   4.792  0.5441 -1.0527 -0.1653
   64MOL   C12821674   5.579   1.599   4.828 -0.3066  0.3692 -0.3425
   64MOL   C12921675   5.231   1.702   4.865  0.0744 -0.3441 -0.3085
   64MOL   H13021676   5.356   1.531   4.919 -1.2077  0.4832  0.8481
   64MOL   H13121677   5.368   1.759   4.618  0.9768  0.0239 -1.7804
   64MOL   H13221678   5.580   1.853   4.540 -1.5731 -2.0166 -2.4273
   64MOL   H13321679   5.876   1.842   4.702 -0.5122  0.1146  0.5859
   64MOL   H13421680   5.797   1.623   4.829  1.3943  1.7408  0.3847
   64MOL   H13521681   5.582   1.537   4.916  3.3779 -0.7661 -1.1696
   64MOL   H13621682   5.132   1.668   4.894 -1.2270  1.0509 -2.9265
   64MOL   H13721683   5.223   1.773   4.782  1.1020 -0.5769 -0.6126
   64MOL   C13821684   5.297   1.781   4.985  0.3750  0.0706 -0.7546
   64MOL   C13921685   5.291   1.692   5.107  0.0072  0.2399 -0.2219
   64MOL   C14021686   5.173   1.645   5.167 -0.8224  0.0824  0.5719
   64MOL   C14121687   5.164   1.572   5.291  0.2058 -0.2993 -0.1133
   64MOL   C14221688   5.288   1.529   5.343  0.6350  0.6092 -0.3266
   64MOL   O14321689   5.295   1.457   5.454 -0.2544  0.5801  0.5338
   64MOL   C14421690   5.412   1.562   5.278  0.1738  0.0423  0.2205
   64MOL   C14521691   5.412   1.641   5.159  0.0173 -0.2734 -0.2917
   64MOL   C14621692   5.229   1.919   4.992  0.2278  0.0394 -0.1192
   64MOL   H14721693   5.402   1.804   4.971  0.9026 -0.9253  1.3959
   64MOL   H14821694   5.076   1.677   5.133 -1.4121  0.0084  2.1260
   64MOL   H14921695   5.070   1.541   5.334  0.0258 -0.8931 -0.9256
   64MOL   H15021696   5.376   1.409   5.459  0.0075  1.0593  0.9262
   64MOL   H15121697   5.505   1.511   5.301  0.8515  0.9961 -0.3663
   64MOL   H15221698   5.507   1.660   5.112  0.6687 -0.5691  0.8996
   64MOL   H15321699   5.124   1.916   5.020  0.2424  0.0570 -0.0581
   64MOL   H15421700   5.230   1.966   4.894  0.8479 -0.5006 -0.3690
   64MOL   C15521701   5.308   2.008   5.095  0.5938  0.0450  0.8233
   64MOL   C15621702   5.271   1.976   5.236 -0.7239  0.7019 -0.2413
   64MOL   C15721703   5.370   1.920   5.318 -0.2285 -0.7810  0.5893
   64MOL   C15821704   5.346   1.892   5.455  0.8894 -0.1389  0.0578
   64MOL   C15921705   5.222   1.924   5.514  0.8057 -0.1631 -0.1971
   64MOL   O16021706   5.195   1.897   5.648 -0.3992  0.2416  0.8418
   64MOL   C16121707   5.123   1.976   5.428  0.3674 -0.3028 -1.0247
   64MOL   C16221708   5.147   2.006   5.290  0.2300  0.1841  0.4521
   64MOL   C16321709   5.279   2.154   5.065  0.4927  0.1469 -0.4913
   64MOL   H16421710   5.415   1.990   5.087  0.8023  0.2346  2.7638
   64MOL   H16521711   5.463   1.895   5.268 -0.7936 -0.0628 -0.8646
   64MOL   H16621712   5.418   1.838   5.514  1.5195  0.7891  0.1609
   64MOL   H16721713   5.268   1.873   5.703 -0.9970 -1.9606  0.7181
   64MOL   H16821714   5.031   2.008   5.476  0.3202  1.1874 -2.0732
   64MOL   H16921715   5.070   2.052   5.229 -0.7474 -2.0428 -0.0504
   64MOL   H17021716   5.304   2.211   5.154  1.2651  1.2681 -1.4068
   64MOL   H17121717   5.174   2.178   5.046  0.4015  0.5454  0.4879
   64MOL   C17221718   5.369   2.233   4.960 -0.0324  0.1758 -0.2438
   64MOL   C17321719   5.515   2.184   4.946  0.2310  0.5212 -0.3481
   64MOL   C17421720   5.554   2.131   4.821 -0.0065  0.3179 -0.3037
   64MOL   C17521721   5.680   2.075   4.809 -0.6990 -0.0749 -0.5968
   64MOL   C17621722   5.770   2.078   4.913 -0.2384 -0.0343  0.6253
   64MOL   O17721723   5.886   2.006   4.896 -0.4021  0.2234  0.0062
   64MOL   C17821724   5.738   2.135   5.039 -0.3700 -0.2350  0.2260
   64MOL   C17921725   5.603   2.186   5.056  0.2338 -0.8144 -0.7213
   64MOL   C18021726   5.367   2.382   4.983 -0.0118 -0.7002  0.1033
   64MOL   H18121727   5.321   2.208   4.865 -0.6765  0.8585 -0.0961
   64MOL   H18221728   5.486   2.135   4.736  0.1323  2.4529 -0.3397
   64MOL   H18321729   5.712   2.017   4.724 -0.9503 -0.5431 -0.3763
   64MOL   H18421730   5.967   2.054   4.905 -0.0991 -0.2847 -0.0403
   64MOL   H18521731   5.808   2.134   5.121 -0.9812  2.6793  0.8294
   64MOL   H18621732   5.571   2.220   5.153 -0.9029 -1.7802 -0.7571
   64MOL   H18721733   5.413   2.413   5.077 -1.1075  3.9347 -0.7426
   64MOL   H18821734   5.262   2.411   4.993  0.7563  2.5213 -0.6880
   64MOL   C18921735   5.413   2.479   4.870  0.5890  0.3769  0.1536
   64MOL   C19021736   5.348   2.436   4.741  0.1905  0.5576 -0.3853
   64MOL   C19121737   5.418   2.363   4.640 -0.2466 -0.1705 -0.0029
   64MOL   C19221738   5.358   2.308   4.523 -0.1240 -0.4745  1.2392
   64MOL   C19321739   5.229   2.346   4.493 -0.5905  0.2235 -0.0029
   64MOL   O19421740   5.172   2.312   4.373  0.2180 -0.4596 -0.3405
   64MOL   C19521741   5.152   2.414   4.589  0.2438  0.4101 -0.2849
   64MOL   C19621742   5.213   2.462   4.707 -0.1324 -0.9940  0.4472
   64MOL   C19721743   5.383   2.622   4.916 -0.0522 -0.9700 -0.2066
   64MOL   H19821744   5.519   2.473   4.847 -0.2404 -1.4601 -3.6100
   64MOL   H19921745   5.523   2.345   4.657 -0.3463 -0.1511  0.6648
   64MOL   H20021746   5.423   2.259   4.451 -1.3574  0.2343 -0.3976
   64MOL   H20121747   5.223   2.262   4.312 -0.8420  1.1112 -2.5684
   64MOL   H20221748   5.048   2.443   4.583  0.2754  0.5075 -0.3474
   64MOL   H20321749   5.147   2.519   4.771  0.5395 -1.2452  1.3539
   64MOL   H20421750   5.436   2.638   5.010  0.0614 -1.5549 -0.1748
   64MOL   H20521751   5.280   2.632   4.947 -0.1546  0.0864 -0.8407
   64MOL   C20621752   5.429   2.735   4.813 -0.9986  0.5044  0.0000
   64MOL   C20721753   5.574   2.716   4.781  0.2358 -0.3917  0.2850
   64MOL   C20821754   5.688   2.752   4.865  0.6602  0.0303  0.7339
   64MOL   C20921755   5.818   2.704   4.838 -0.5379 -0.2948  0.2839
   64MOL   C21021756   5.841   2.629   4.714 -0.0656 -0.0918  0.2365
   64MOL   O21121757   5.969   2.576   4.695 -0.8364  0.0149  0.0720
   64MOL   C21221758   5.730   2.592   4.630 -0.2876 -0.1275  0.1334
   64MOL   C21321759   5.604   2.636   4.668  0.2784  0.6033 -0.3845
   64MOL   C21421760   5.394   2.879   4.860 -0.3787 -0.1684  0.9346
   64MOL   H21521761   5.377   2.716   4.719  0.5588  1.9700 -1.1971
   64MOL   H21621762   5.661   2.808   4.953 -1.5374 -2.2956  1.5937
   64MOL   H21721763   5.898   2.735   4.904  1.0058 -0.3140 -1.5123
   64MOL   H21821764   5.961   2.521   4.619 -1.2806  0.1415  0.0236
   64MOL   H21921765   5.749   2.531   4.542 -0.3227  1.6239 -1.1028
   64MOL   H22021766   5.519   2.603   4.611  0.8242  0.2406 -0.9924
   64MOL   H22121767   5.441   2.950   4.792 -0.1313 -0.2388  1.0322
   64MOL   H22221768   5.444   2.880   4.956 -1.8856  0.4093  1.7319
   64MOL   C22321769   5.239   2.907   4.869 -1.1353 -0.4537  0.5125
   64MOL   C22421770   5.170   2.911   4.731  0.0009  0.0592 -0.8861
   64MOL   C22521771   5.200   3.012   4.637  0.6280 -0.2156 -0.6102
   64MOL   C22621772   5.119   3.023   4.523  0.5185 -0.9141 -0.1060
   64MOL   C22721773   5.009   2.942   4.499  0.5179  0.2579  0.7321
   64MOL   O22821774   4.912   2.972   4.411  0.3647  0.2984 -0.0564
   64MOL   C22921775   4.992   2.828   4.579  0.6079  0.4976  0.5449
   64MOL   C23021776   5.072   2.810   4.693  0.7202  0.4726 -0.6501
   64MOL   C23121777   5.209   3.032   4.952 -0.0478 -0.1799  0.1652
   64MOL   H23221778   5.195   2.824   4.924  0.0088 -0.6912  1.0934
   64MOL   H23321779   5.278   3.084   4.658  2.1055 -2.4490  1.9892
   64MOL   H23421780   5.129   3.112   4.462 -0.3579 -0.0031  1.0656
   64MOL   H23521781   4.900   2.915   4.337 -0.0365  0.6810 -0.2860
   64MOL   H23621782   4.920   2.751   4.555 -0.8212  1.2759  2.2221
   64MOL   H23721783   5.056   2.726   4.759  0.5985  0.0314 -1.2411
   64MOL   H23821784   5.280   3.046   5.034 -1.1437 -0.6680  1.2092
   64MOL   H23921785   5.225   3.121   4.892  1.0300 -1.6946 -1.8372
   64MOL   C24021786   5.058   3.036   5.001  0.3151  0.9928 -0.1295
   64MOL   C24121787   5.035   2.917   5.090 -0.1036  0.1675  0.2430
   64MOL   C24221788   4.952   2.810   5.050 -0.2865 -0.0452 -0.4596
   64MOL   C24321789   4.939   2.694   5.136  0.4388  0.0364 -0.3179
   64MOL   C24421790   5.003   2.689   5.258  0.8342  0.1267 -0.2784
   64MOL   O24521791   4.988   2.583   5.341  0.0010  0.1930  0.6752
   64MOL   C24621792   5.072   2.803   5.299 -0.9940  0.5600  0.5569
   64MOL   C24721793   5.091   2.914   5.220 -0.0394  0.0659 -1.1000
   64MOL   C24821794   5.021   3.167   5.075  0.0076  0.2061  0.0481
   64MOL   H24921795   4.992   3.013   4.918 -1.1493  0.8227  1.0634
   64MOL   H25021796   4.892   2.809   4.960 -1.2186  0.2181  0.1588
   64MOL   H25121797   4.869   2.617   5.106  0.5307  0.3790 -1.4275
   64MOL   H25221798   4.950   2.511   5.292 -2.1712  1.0882  0.9812
   64MOL   H25321799   5.117   2.801   5.397  2.1853  0.9816 -0.7998
   64MOL   H25421800   5.151   2.999   5.250 -0.1205 -0.1845 -0.2259
   64MOL   H25521801   4.931   3.139   5.130  0.3966  0.5780  0.8798
   64MOL   H25621802   5.094   3.193   5.152  1.2941 -0.8046 -0.7876
   64MOL   C25721803   4.988   3.282   4.979  0.7465  0.3989  0.2789
   64MOL   C25821804   4.894   3.236   4.862 -0.0978  0.2603 -0.5449
   64MOL   C25921805   4.778   3.160   4.881 -0.0336 -0.2347 -0.3322
   64MOL   C26021806   4.699   3.128   4.768  0.1602 -0.9371 -0.2031
   64MOL   C26121807   4.739   3.152   4.640  0.1381 -0.9887  0.1646
   64MOL   O26221808   4.655   3.121   4.535 -0.2247 -0.3835  0.3284
   64MOL   C26321809   4.858   3.220   4.617  0.2078 -0.0598  0.3752
   64MOL   C26421810   4.934   3.263   4.727 -0.1726 -0.7717  0.9119
   64MOL   C26521811   4.903   3.381   5.067 -0.1564 -0.1433 -0.8248
   64MOL   H26621812   5.078   3.323   4.934  0.6880  0.3220  0.0915
   64MOL   H26721813   4.735   3.150   4.980  2.3333  0.5941  0.8311
   64MOL   H26821814   4.606   3.074   4.781  0.1869 -0.9540 -0.0737
   64MOL   H26921815   4.712   3.113   4.460  0.1647  0.3893  0.5298
   64MOL   H27021816   4.885   3.228   4.513 -0.2664  1.2634  0.3460
   64MOL   H27121817   5.031   3.308   4.716 -1.2818  1.1895 -1.2942
   64MOL   H27221818   4.947   3.411   5.162 -0.8473 -0.7964 -0.2949
   64MOL   H27321819   4.806   3.334   5.081  0.1072  0.0672  2.0331
   64MOL   C27421820   4.884   3.513   4.989  0.6319  1.0287 -0.4126
   64MOL   C27521821   5.012   3.599   5.001  0.0738  0.4196 -0.4433
   64MOL   C27621822   5.092   3.621   4.891 -0.2035  0.0945 -0.4658
   64MOL   C27721823   5.186   3.720   4.898 -0.2332 -0.3356  0.5655
   64MOL   C27821824   5.209   3.797   5.013 -0.0816 -0.7124 -0.4109
   64MOL   O27921825   5.287   3.917   5.010  0.1052 -0.1762  0.5271
   64MOL   C28021826   5.140   3.761   5.130 -0.1373  0.2827  0.2491
   64MOL   C28121827   5.042   3.664   5.126 -0.0870 -0.0447  0.5232
   64MOL   C28221828   4.755   3.590   5.035  0.3963 -0.0853 -0.0813
   64MOL   H28321829   4.880   3.491   4.882  2.4563 -0.0826 -0.2686
   64MOL   H28421830   5.074   3.567   4.799 -1.7554 -1.3777  0.6550
   64MOL   H28521831   5.240   3.749   4.809  1.0121 -2.0977  0.7110
   64MOL   H28621832   5.239   3.994   4.987  1.5517  0.1674 -1.4632
   64MOL   H28721833   5.153   3.796   5.232  0.0495  1.8535 -0.2987
   64MOL   H28821834   4.975   3.646   5.209 -0.5776 -0.1253  0.1173
   64MOL   H28921835   4.679   3.515   5.055 -0.9904  0.6373 -2.3875
   64MOL   H29021836   4.777   3.642   5.128  0.9065 -0.4559  0.0096
   64MOL   C29121837   4.700   3.688   4.928 -0.7280 -0.0844  1.0511
   64MOL   C29221838   4.804   3.788   4.869 -0.0962 -0.4652  0.2264
   64MOL   C29321839   4.855   3.882   4.959  0.2631 -0.1643  0.0004
   64MOL   C29421840   4.938   3.986   4.917  0.2096  0.1803  0.5602
   64MOL   C29521841   4.988   3.984   4.787 -0.2948  0.3105  0.3356
   64MOL   O29621842   5.102   4.059   4.759 -0.2864  0.0893 -0.2056
   64MOL   C29721843   4.948   3.885   4.697  0.4339 -0.3557  0.4081
   64MOL   C29821844   4.851   3.793   4.735  0.1030 -0.6172 -0.2235
   64MOL   C29921845   4.570   3.759   4.974 -0.8302 -0.1408 -0.2369
   64MOL   H30021846   4.673   3.623   4.845  1.4937 -0.9525  0.9781
   64MOL   H30121847   4.827   3.875   5.063 -0.7056 -1.0013 -0.3111
   64MOL   H30221848   4.981   4.057   4.987 -0.4084 -0.4032  1.5477
   64MOL   H30321849   5.127   4.114   4.832  0.4816 -2.8888  1.8542
   64MOL   H30421850   4.997   3.878   4.601  0.5964  0.8923  0.3876
   64MOL   H30521851   4.840   3.714   4.662 -0.0315 -0.8458  0.0422
   64MOL   H30621852   4.586   3.775   5.081 -3.2396 -1.1475  0.3076
   64MOL   H30721853   4.488   3.687   4.969 -0.1958 -0.8126 -1.0244
   64MOL   C30821854   4.515   3.889   4.898  0.5083 -0.3499  0.8073
   64MOL   C30921855   4.435   3.968   4.997 -0.6391 -0.9592  0.4264
   64MOL   C31021856   4.305   3.930   5.033  0.5417 -0.1046 -0.1423
   64MOL   C31121857   4.235   3.995   5.138  0.1274  0.2817 -0.5982
   64MOL   C31221858   4.296   4.099   5.205 -0.2052  0.4986  0.0145
   64MOL   O31321859   4.235   4.154   5.311  0.0457  0.1206  0.3181
   64MOL   C31421860   4.416   4.150   5.161 -0.7405 -0.5838 -0.9137
   64MOL   C31521861   4.487   4.085   5.059  0.2800 -0.3333 -0.5720
   64MOL   C31621862   4.427   3.845   4.776  0.2960  0.3602  0.0847
   64MOL   H31721863   4.598   3.947   4.858 -1.0715  0.9592 -0.6717
   64MOL   H31821864   4.267   3.843   4.981  0.9160  1.2255 -2.7119
   64MOL   H31921865   4.139   3.953   5.165  0.6594 -1.2164 -0.9473
   64MOL   H32021866   4.298   4.191   5.371 -0.0387  0.6901  0.0586
   64MOL   H32121867   4.450   4.236   5.217 -1.6077  0.0797 -1.3902
   64MOL   H32221868   4.584   4.127   5.039 -0.0151  1.9936  2.4054
   64MOL   H32321869   4.348   3.775   4.801  0.1611  0.7073  0.6375
   64MOL   H32421870   4.488   3.772   4.723  1.2187  1.0455  0.1916
   64MOL   C32521871   4.374   3.953   4.683 -0.1143 -0.8670  0.1022
   64MOL   C32621872   4.220   3.944   4.659  0.3482  0.0131 -0.0150
   64MOL   C32721873   4.163   3.843   4.582 -0.0076 -0.5225 -0.6239
   64MOL   C32821874   4.023   3.850   4.562 -0.3971  0.2529 -0.4761
   64MOL   C32921875   3.945   3.952   4.616 -0.7116  0.0757  0.6787
   64MOL   O33021876   3.810   3.937   4.611 -0.2523 -0.0212  0.1810
   64MOL   C33121877   4.005   4.066   4.678 -0.0641  0.0514 -0.2139
   64MOL   C33221878   4.143   4.059   4.702 -0.4078 -0.0641 -0.2209
   64MOL   C33321879   4.466   3.961   4.557  0.2871  0.1988 -0.0820
   64MOL   H33421880   4.390   4.047   4.736  0.2726 -0.7074 -0.2960
   64MOL   H33521881   4.221   3.766   4.532 -0.3698 -0.8520 -0.5362
   64MOL   H33621882   3.979   3.763   4.514  0.7463 -0.4362 -0.2945
   64MOL   H33721883   3.768   3.869   4.560  0.0958 -0.5339  0.5701
   64MOL   H33821884   3.953   4.149   4.724 -0.5266 -0.3278 -0.0621
   64MOL   H33921885   4.190   4.130   4.768 -2.0153  0.8491 -0.0307
   64MOL   H34021886   4.436   4.040   4.488 -0.4259  1.2117  1.3736
   64MOL   H34121887   4.466   3.872   4.493 -0.0237  0.2088 -0.0932
   64MOL   H34221888   4.571   3.981   4.577 -0.3906  2.7986  1.1506
   65MOL     C121889   0.622   7.173   3.375  0.1605  1.2839 -0.0305
   65MOL     C221890   0.655   7.274   3.267 -0.2926  0.1780 -0.3675
   65MOL     C321891   0.569   7.380   3.246 -0.3611 -0.7033 -0.2493
   65MOL     C421892   0.606   7.487   3.164  0.1133 -0.2550 -0.0677
   65MOL     C521893   0.734   7.490   3.115  0.5915  0.7354 -0.1646
   65MOL     O621894   0.776   7.595   3.040  0.1710  0.4139 -0.4172
   65MOL     C721895   0.817   7.379   3.119  0.1628  0.6062  0.2932
   65MOL     C821896   0.778   7.269   3.197 -0.8340  0.2588 -0.4941
   65MOL     C921897   0.540   7.062   3.311 -0.3736 -0.0069 -0.1821
   65MOL    H1021898   0.714   7.135   3.419  0.1707  1.1082 -0.2003
   65MOL    H1121899   0.470   7.380   3.289 -0.9953 -1.2234 -1.6567
   65MOL    H1221900   0.539   7.571   3.166  1.1445  0.6276  4.4027
   65MOL    H1321901   0.712   7.665   3.048 -1.3374 -1.0194  0.5409
   65MOL    H1421902   0.902   7.372   3.052 -0.2846 -1.2050 -0.1184
   65MOL    H1521903   0.846   7.185   3.201 -2.3234 -0.9538 -0.0586
   65MOL    H1621904   0.598   7.022   3.228 -0.7598 -0.6876 -0.1251
   65MOL    H1721905   0.453   7.098   3.258 -0.3425 -0.6129 -0.6491
   65MOL    H1821906   0.574   7.217   3.463 -1.3530 -0.6599  0.1700
   65MOL    C1921907   0.499   6.951   3.400  0.0878  0.2960  0.4432
   65MOL    C2021908   0.612   6.908   3.484  0.3829  0.0097 -1.0472
   65MOL    C2121909   0.593   6.889   3.625  0.8640 -0.2939 -0.1630
   65MOL    C2221910   0.696   6.844   3.707 -0.0177 -0.3615 -0.3675
   65MOL    C2321911   0.820   6.825   3.646 -0.4583 -0.7343 -1.3112
   65MOL    O2421912   0.920   6.784   3.724 -0.1105 -0.1521 -0.3396
   65MOL    C2521913   0.847   6.856   3.510 -0.1111 -0.8076 -0.2055
   65MOL    C2621914   0.739   6.889   3.425 -0.4375 -0.0196 -0.4552
   65MOL    C2721915   0.432   6.828   3.334  0.8121 -0.0769 -0.6329
   65MOL    H2821916   0.433   6.998   3.473 -1.5152 -3.6835  1.7034
   65MOL    H2921917   0.503   6.923   3.675  1.7085 -1.3888  2.1454
   65MOL    H3021918   0.691   6.834   3.814  0.3997 -0.6230 -0.3723
   65MOL    H3121919   1.008   6.785   3.690  0.6350  2.1513  1.5668
   65MOL    H3221920   0.946   6.850   3.468  0.0939 -2.2922  0.4757
   65MOL    H3321921   0.760   6.912   3.321  1.1182  2.3321  0.3344
   65MOL    H3421922   0.512   6.799   3.266 -0.0935  2.5349 -2.9317
   65MOL    H3521923   0.354   6.867   3.268 -1.8439  1.4959  3.2799
   65MOL    C3621924   0.390   6.690   3.396  0.9651 -0.2393 -0.5171
   65MOL    C3721925   0.325   6.606   3.291  0.1106 -0.3869 -0.6430
   65MOL    C3821926   0.389   6.486   3.249 -0.5283 -0.4584 -0.9595
   65MOL    C3921927   0.326   6.409   3.145  0.3293  0.7786 -0.0669
   65MOL    C4021928   0.206   6.450   3.085  0.2280  0.4369 -0.8113
   65MOL    O4121929   0.156   6.395   2.971 -0.2665 -0.2069  0.0862
   65MOL    C4221930   0.141   6.564   3.138  0.8443  0.2073 -0.2951
   65MOL    C4321931   0.196   6.642   3.238 -0.0216  0.2668  0.4661
   65MOL    C4421932   0.305   6.725   3.523 -0.1137  0.2004 -0.5334
   65MOL    H4521933   0.472   6.632   3.438  3.0379  2.5657 -0.5350
   65MOL    H4621934   0.485   6.450   3.283 -0.6982  0.3133  0.3577
   65MOL    H4721935   0.383   6.328   3.101 -1.5865  0.5264 -2.1456
   65MOL    H4821936   0.078   6.428   2.929  0.5502  0.8980 -0.5964
   65MOL    H4921937   0.048   6.595   3.092 -0.8732 -3.4092  0.5669
   65MOL    H5021938   0.145   6.733   3.266 -0.5432 -0.2935  1.3555
   65MOL    H5121939   0.363   6.777   3.599 -0.6063 -1.7952  1.2662
   65MOL    H5221940   0.227   6.793   3.489 -0.9224 -0.1188  0.6541
   65MOL    C5321941   0.249   6.608   3.596 -1.0097  0.7029  0.5846
   65MOL    C5421942   0.363   6.511   3.640 -0.1300 -0.3769 -0.6575
   65MOL    C5521943   0.476   6.565   3.711  0.0239  0.2455 -0.1719
   65MOL    C5621944   0.582   6.477   3.748  0.0119 -0.6970 -0.2918
   65MOL    C5721945   0.579   6.346   3.701 -0.0517 -0.2541  0.1843
   65MOL    O5821946   0.691   6.278   3.729 -0.2292 -0.1656 -0.1201
   65MOL    C5921947   0.466   6.295   3.632  0.2337 -0.4663 -0.9306
   65MOL    C6021948   0.355   6.376   3.606 -0.5535 -0.0992  0.8826
   65MOL    C6121949   0.159   6.643   3.715  0.8357 -0.0693  0.1816
   65MOL    H6221950   0.181   6.566   3.522  0.4948  0.5283 -0.7273
   65MOL    H6321951   0.483   6.667   3.747 -0.5745  0.9853 -2.0565
   65MOL    H6421952   0.662   6.504   3.815  1.1854  1.9369 -2.6727
   65MOL    H6521953   0.688   6.195   3.684  0.3080 -0.2306 -0.0458
   65MOL    H6621954   0.471   6.191   3.602  0.1780 -1.3923  2.1734
   65MOL    H6721955   0.266   6.333   3.560 -1.1901 -1.8750  3.6395
   65MOL    H6821956   0.214   6.673   3.805  0.1792 -1.1419  0.9526
   65MOL    H6921957   0.094   6.557   3.728  0.2109  0.3113 -0.3860
   65MOL    C7021958   0.051   6.756   3.682 -0.5898  0.5082 -0.7678
   65MOL    C7121959   7.996   6.791   3.799 -0.4099  0.1239  0.4642
   65MOL    C7221960   7.912   6.694   3.843  0.3096  0.5281 -0.0112
   65MOL    C7321961   7.807   6.721   3.935 -0.2160  0.1119 -0.2616
   65MOL    C7421962   7.791   6.851   3.986  0.2332  0.2355  0.4791
   65MOL    O7521963   7.692   6.881   4.070 -0.4426 -0.0407  0.1677
   65MOL    C7621964   7.884   6.951   3.940  0.0257 -0.4180 -0.2570
   65MOL    C7721965   7.990   6.922   3.855 -0.5680  0.2782  0.1008
   65MOL    C7821966   7.993   6.725   3.557 -0.0890 -0.4132  0.0231
   65MOL    H7921967   0.106   6.845   3.651  0.9551 -0.2921 -0.3832
   65MOL    H8021968   7.912   6.593   3.805  3.1588  0.9311 -1.2795
   65MOL    H8121969   7.749   6.637   3.972 -1.7385  0.3440 -2.0341
   65MOL    H8221970   7.672   6.973   4.056  1.6979  0.3253 -0.7926
   65MOL    H8321971   7.882   7.053   3.977 -0.0135 -0.6954  0.5207
   65MOL    H8421972   0.019   7.003   3.832 -0.4446 -0.1664 -1.1557
   65MOL    H8521973   7.919   6.651   3.589 -0.8614  0.5842  0.5700
   65MOL    H8621974   0.002   6.681   3.469  0.0320  0.1191 -0.1777
   65MOL    C8721975   7.917   6.853   3.518 -0.0290  0.0863  0.4335
   65MOL    C8821976   7.789   6.820   3.454 -0.1260 -0.0798  0.0530
   65MOL    C8921977   7.777   6.766   3.321 -0.3092 -0.0800  0.0650
   65MOL    C9021978   7.648   6.744   3.264  0.0963 -0.2630 -0.7321
   65MOL    C9121979   7.536   6.775   3.338  0.3332  0.6226 -0.3691
   65MOL    O9221980   7.409   6.755   3.287  0.1537 -0.2645 -0.0905
   65MOL    C9321981   7.543   6.830   3.467 -0.1673  0.1423 -0.5407
   65MOL    C9421982   7.668   6.853   3.525  0.7553  0.2201 -0.5780
   65MOL    C9521983   8.011   6.943   3.432 -0.0851 -0.4363 -0.0371
   65MOL    H9621984   7.882   6.911   3.604 -2.2154  0.3205 -0.5848
   65MOL    H9721985   7.864   6.748   3.259 -0.9688  0.9489 -1.1771
   65MOL    H9821986   7.637   6.703   3.165  3.1212 -2.0879 -0.3796
   65MOL    H9921987   7.354   6.753   3.364 -0.8212  0.8643 -0.7363
   65MOL   H10021988   7.449   6.849   3.518  0.5831  0.6379  0.6650
   65MOL   H10121989   7.669   6.886   3.627 -0.5923 -2.8055  0.4784
   65MOL   H10221990   0.056   6.984   3.490  0.7992 -1.9117 -0.2139
   65MOL   H10321991   0.018   6.898   3.344  0.3460  0.1650 -0.1260
   65MOL   C10421992   7.934   7.064   3.373 -0.3426 -0.3512  0.2818
   65MOL   C10521993   0.000   7.139   3.281 -0.1920 -0.2977  0.2313
   65MOL   C10621994   0.117   7.202   3.344 -0.0355 -0.1079 -0.4396
   65MOL   C10721995   0.194   7.285   3.267 -1.2706  0.4075  0.0906
   65MOL   C10821996   0.163   7.309   3.133 -0.2590 -0.3432 -0.3282
   65MOL   O10921997   0.223   7.398   3.054 -0.3061  0.7040  0.6552
   65MOL   C11021998   0.062   7.241   3.073  0.1761  0.4818  0.0924
   65MOL   C11121999   8.013   7.153   3.146  0.1167 -0.0106  0.2002
   65MOL   C11222000   7.863   7.165   3.467 -0.8998 -1.0123  0.1379
   65MOL   H11322001   7.851   7.022   3.315  1.3227 -0.1715 -2.3244
   65MOL   H11422002   0.131   7.199   3.451  0.9436  1.6433 -0.4885
   65MOL   H11522003   0.279   7.329   3.316  1.0949 -1.5599 -2.1019
   65MOL   H11622004   0.186   7.396   2.967 -2.0689  0.6210  1.3965
   65MOL   H11722005   0.055   7.246   2.966  0.1375  0.7001  0.1060
   65MOL   H11822006   7.926   7.102   3.110 -0.3201 -1.1274  2.7269
   65MOL   H11922007   7.935   7.208   3.536 -0.6692 -4.5877  2.2797
   65MOL   H12022008   7.775   7.120   3.514 -2.1587  0.6042 -0.6334
   65MOL   C12122009   7.809   7.284   3.396 -0.1796 -0.6109 -0.0497
   65MOL   C12222010   7.724   7.251   3.275  0.2284  0.1675 -0.5887
   65MOL   C12322011   7.744   7.318   3.158 -0.4130 -0.0599  0.3318
   65MOL   C12422012   7.657   7.301   3.053  0.3715  0.4547 -0.2005
   65MOL   C12522013   7.542   7.218   3.065 -0.8729 -0.0414  0.4439
   65MOL   O12622014   7.454   7.210   2.963 -0.2024  0.5118  0.1324
   65MOL   C12722015   7.527   7.143   3.181 -0.4125 -0.4213  0.2910
   65MOL   C12822016   7.613   7.167   3.288  0.4089  0.0423 -0.2651
   65MOL   C12922017   7.723   7.372   3.496  0.7561  0.1314 -0.1869
   65MOL   H13022018   7.890   7.353   3.372 -1.6048  1.7871  1.8697
   65MOL   H13122019   7.829   7.381   3.139 -0.0514 -0.1846  1.5352
   65MOL   H13222020   7.670   7.342   2.953 -1.6208 -2.2496 -1.6354
   65MOL   H13322021   7.503   7.223   2.883  0.8435  0.3510  0.7326
   65MOL   H13422022   7.443   7.076   3.196 -1.1599  0.6886  1.2131
   65MOL   H13522023   7.589   7.119   3.382  1.8190  0.6098  0.3985
   65MOL   H13622024   7.659   7.330   3.573  2.0561  0.3857  1.0365
   65MOL   H13722025   7.650   7.415   3.427  1.2767 -0.3907 -1.0785
   65MOL   C13822026   7.798   7.486   3.555  0.2580  0.1257  0.1539
   65MOL   C13922027   7.891   7.429   3.662  0.4465  0.8066  0.5304
   65MOL   C14022028   7.843   7.392   3.788  0.4832 -0.3024  0.6427
   65MOL   C14122029   7.938   7.349   3.887  0.2018  0.1688 -0.6419
   65MOL   C14222030   0.040   7.353   3.860 -0.2877 -0.4320 -0.4146
   65MOL   O14322031   0.135   7.320   3.954  0.7070  0.0886 -0.1768
   65MOL   C14422032   0.087   7.379   3.728 -0.2097  0.6630  0.0399
   65MOL   C14522033   8.030   7.420   3.635  0.1975 -0.4561  0.8040
   65MOL   C14622034   7.703   7.593   3.606  0.3182  0.1344  0.2076
   65MOL   H14722035   7.867   7.532   3.485  0.5227  0.6295  0.7375
   65MOL   H14822036   7.739   7.398   3.814  0.6648 -0.1175  1.3191
   65MOL   H14922037   7.906   7.338   3.989 -0.0976 -1.9244 -0.9234
   65MOL   H15022038   0.217   7.346   3.915  1.5780 -0.8059  1.0146
   65MOL   H15122039   0.192   7.397   3.711 -0.0309 -0.7303 -0.3992
   65MOL   H15222040   0.029   7.442   3.536  1.5126 -0.2763  1.3135
   65MOL   H15322041   7.747   7.668   3.672 -0.0149 -0.2453  0.8731
   65MOL   H15422042   7.615   7.546   3.650 -1.1763  1.7833 -0.9656
   65MOL   C15522043   7.645   7.680   3.489  0.4851  0.1116  0.7724
   65MOL   C15622044   7.749   7.784   3.442  0.0771  0.3439  0.4758
   65MOL   C15722045   7.800   7.784   3.306 -1.1649  1.0698 -0.0441
   65MOL   C15822046   7.905   7.871   3.264  0.0858  0.4258  0.1727
   65MOL   C15922047   7.946   7.966   3.350  0.0203  0.8498  0.3839
   65MOL   O16022048   8.024   0.031   3.291 -0.1322  0.6919 -0.7137
   65MOL   C16122049   7.892   7.977   3.487  0.2425  1.1903 -0.0106
   65MOL   C16222050   7.786   7.887   3.527  0.5533  0.3745  0.6775
   65MOL   C16322051   7.499   7.723   3.499  0.4761 -0.1110  0.3445
   65MOL   H16422052   7.649   7.608   3.408  0.6579  0.0440  0.8411
   65MOL   H16522053   7.764   7.714   3.232 -0.9306  1.0241 -0.1148
   65MOL   H16622054   7.932   7.872   3.159  0.3165  0.4577  0.2329
   65MOL   H16722055   0.019   8.031   3.211 -0.7266  1.6292 -1.4113
   65MOL   H16822056   7.910   0.017   3.559 -1.3276  1.1184  0.4994
   65MOL   H16922057   7.744   7.896   3.626  0.5061 -1.0770  0.7987
   65MOL   H17022058   7.470   7.764   3.596  2.5594  0.3145  0.8317
   65MOL   H17122059   7.428   7.641   3.503 -1.3172  1.3493 -1.1249
   65MOL   C17222060   7.452   7.819   3.387 -0.3509 -0.4463  0.3565
   65MOL   C17322061   7.308   7.860   3.422 -0.1373 -0.1472  0.9272
   65MOL   C17422062   7.203   7.769   3.425  0.3811  0.0789 -0.1443
   65MOL   C17522063   7.070   7.816   3.443 -0.6413  0.8606 -0.1536
   65MOL   C17622064   7.050   7.945   3.483 -0.3169 -0.3635 -0.1133
   65MOL   O17722065   6.922   7.992   3.515  0.0175 -0.4914  0.2824
   65MOL   C17822066   7.163   8.030   3.493 -0.2650 -0.0784 -0.2170
   65MOL   C17922067   7.293   7.990   3.467  0.3581 -0.1414  0.3815
   65MOL   C18022068   7.452   7.755   3.248 -0.2980  0.2498 -0.1875
   65MOL   H18122069   7.525   7.901   3.388 -0.1888 -0.5262 -2.1600
   65MOL   H18222070   7.205   7.664   3.397 -1.5088 -0.0363  0.0814
   65MOL   H18322071   6.989   7.746   3.426 -1.9570  2.3930 -0.3679
   65MOL   H18422072   6.862   7.941   3.463  0.3938  0.5910 -1.2497
   65MOL   H18522073   7.141   0.090   3.533  1.5177  0.1915  0.1191
   65MOL   H18622074   7.375   0.023   3.468  0.0495  0.2265  1.8323
   65MOL   H18722075   7.393   7.663   3.250  1.6844 -1.0796 -0.1323
   65MOL   H18822076   7.548   7.715   3.213 -1.4968 -1.3541 -1.7594
   65MOL   C18922077   7.403   7.849   3.133 -0.0408  0.0208 -0.0653
   65MOL   C19022078   7.513   7.939   3.073 -0.4578 -0.2832  0.7306
   65MOL   C19122079   7.605   7.902   2.975 -0.2635 -0.5303  0.1447
   65MOL   C19222080   7.715   7.979   2.950 -0.3119  0.2332  0.5317
   65MOL   C19322081   7.734   0.060   3.022  0.1812 -0.0898 -0.5649
   65MOL   O19422082   7.842   0.150   3.011  0.4542 -0.0258  0.3257
   65MOL   C19522083   7.644   0.096   3.126 -0.2043 -0.6800 -0.2156
   65MOL   C19622084   7.534   0.021   3.147 -0.0649  0.2282  0.3082
   65MOL   C19722085   7.323   7.763   3.030 -0.2065 -0.0181  0.4704
   65MOL   H19822086   7.333   7.923   3.171  1.1050  1.5043 -0.8029
   65MOL   H19922087   7.599   7.804   2.931  1.1564 -0.5301 -0.0661
   65MOL   H20022088   7.790   7.951   2.878 -0.8884 -1.1152  0.4315
   65MOL   H20122089   7.843   0.227   3.067  0.1675  0.2377 -0.0332
   65MOL   H20222090   7.668   0.181   3.188 -0.3403 -1.0217  0.3006
   65MOL   H20322091   7.469   0.048   3.229 -1.6304  0.8071 -1.0876
   65MOL   H20422092   7.258   7.693   3.082 -0.9215 -0.1995 -0.6665
   65MOL   H20522093   7.398   7.699   2.984  0.2667  0.6803  0.2479
   65MOL   C20622094   7.259   7.845   2.916 -0.1388  0.4436  0.7617
   65MOL   C20722095   7.169   7.954   2.965 -0.3154 -0.3639  0.0454
   65MOL   C20822096   7.076   7.935   3.070 -0.6263  0.2494  0.5062
   65MOL   C20922097   6.995   8.031   3.120  0.5354 -0.2041  0.5523
   65MOL   C21022098   7.007   0.122   3.062 -0.1585 -0.0866 -0.0965
   65MOL   O21122099   6.929   0.229   3.110 -0.0462  0.0569 -0.0999
   65MOL   C21222100   7.097   0.149   2.956  0.1206 -0.1460 -0.5678
   65MOL   C21322101   7.175   0.045   2.902  0.3252 -0.5117  0.2312
   65MOL   C21422102   7.181   7.756   2.808  0.1295  0.5190  0.6927
   65MOL   H21522103   7.342   7.897   2.868  0.0789  1.1919  1.9305
   65MOL   H21622104   7.058   7.835   3.104  1.0302 -0.5625 -0.9251
   65MOL   H21722105   6.932   8.022   3.207  1.6662 -2.4015  1.1887
   65MOL   H21822106   6.929   0.298   3.046  0.3226 -1.1088 -1.3887
   65MOL   H21922107   7.106   0.248   2.914 -0.7142  0.1168 -0.1386
   65MOL   H22022108   7.253   0.071   2.832  0.3652 -1.0675  0.0713
   65MOL   H22122109   7.084   7.731   2.850 -0.8422  3.0602 -0.0015
   65MOL   H22222110   7.231   7.659   2.805 -1.0082 -0.0559 -2.9306
   65MOL   C22322111   7.177   7.815   2.665 -0.1535 -0.1739  0.3197
   65MOL   C22422112   7.087   7.735   2.570  0.1372 -0.3016  0.1958
   65MOL   C22522113   7.097   7.594   2.552 -0.2495 -0.2665 -0.0054
   65MOL   C22622114   7.008   7.514   2.471  0.0791 -0.0828  0.8832
   65MOL   C22722115   6.904   7.583   2.412 -0.3089 -0.1189 -0.0186
   65MOL   O22822116   6.798   7.524   2.349 -0.2085  0.0291  0.1648
   65MOL   C22922117   6.889   7.726   2.427  0.3484 -0.2701  0.2291
   65MOL   C23022118   6.972   7.798   2.514  0.0937  0.8105  0.3549
   65MOL   C23122119   7.314   7.842   2.594  0.1541  0.0984 -0.1285
   65MOL   H23222120   7.127   7.911   2.673 -0.8420 -0.6280  1.7362
   65MOL   H23322121   7.181   7.544   2.599  0.2183 -1.0712 -1.6606
   65MOL   H23422122   7.027   7.407   2.475  0.1786 -0.0273  2.0916
   65MOL   H23522123   6.737   7.586   2.312  1.5891  1.6991 -0.1187
   65MOL   H23622124   6.803   7.777   2.385  0.9659 -0.2862 -1.0855
   65MOL   H23722125   6.956   7.905   2.519  0.2485  0.8623 -0.2359
   65MOL   H23822126   7.364   7.910   2.664 -2.6304  0.9722  1.0931
   65MOL   H23922127   7.379   7.757   2.576 -2.6508 -1.6881 -2.2369
   65MOL   C24022128   7.303   7.914   2.458  0.8134 -0.2106  0.1152
   65MOL   C24122129   7.224   0.005   2.460 -0.3264 -0.0347  0.1129
   65MOL   C24222130   7.121   0.033   2.363 -0.4773 -0.1807 -0.1420
   65MOL   C24322131   7.052   0.156   2.355 -0.6128 -0.3167  0.2964
   65MOL   C24422132   7.082   0.241   2.461 -0.5586 -0.2700 -0.0330
   65MOL   O24522133   7.025   0.366   2.466 -0.5882  0.0563 -0.1456
   65MOL   C24622134   7.176   0.213   2.564  0.0071 -0.7680  0.2398
   65MOL   C24722135   7.257   0.097   2.559 -1.0399 -0.0356 -0.1091
   65MOL   C24822136   7.441   7.948   2.390  0.6688  0.2455  0.0403
   65MOL   H24922137   7.250   7.847   2.389  0.9662 -0.3767  0.1598
   65MOL   H25022138   7.097   7.993   2.292 -2.0386  0.0185  0.1345
   65MOL   H25122139   6.980   0.168   2.275  0.9066 -0.1800 -1.0697
   65MOL   H25222140   7.013   0.402   2.380 -1.4679  1.2845  0.4752
   65MOL   H25322141   7.189   0.279   2.649 -2.0023  0.4506 -0.3691
   65MOL   H25422142   7.334   0.092   2.634 -0.7143  1.1935 -0.3526
   65MOL   H25522143   7.427   7.977   2.286 -1.7533  0.7207  0.4700
   65MOL   H25622144   7.483   0.002   2.432 -1.4748  1.5556 -0.5812
   65MOL   C25722145   7.556   7.841   2.402  0.3017 -0.0288  0.2913
   65MOL   C25822146   7.649   7.863   2.286 -0.2047  0.5899  0.0173
   65MOL   C25922147   7.741   7.966   2.281  0.0699  0.2775 -0.5614
   65MOL   C26022148   7.835   7.973   2.181 -0.4631  0.0057  0.3215
   65MOL   C26122149   7.846   7.870   2.085 -0.2753 -0.4584 -0.1480
   65MOL   O26222150   7.955   7.872   1.996  1.0379 -0.2462 -0.9604
   65MOL   C26322151   7.748   7.767   2.082 -0.0954 -1.1508  0.0165
   65MOL   C26422152   7.650   7.764   2.183 -0.3085 -0.3143 -0.0483
   65MOL   C26522153   7.633   7.857   2.532 -0.0846  0.7003  0.5283
   65MOL   H26622154   7.513   7.741   2.403  3.8098 -1.6302  1.8950
   65MOL   H26722155   7.754   0.011   2.350  0.0228  1.4968 -1.9921
   65MOL   H26822156   7.914   0.009   2.187  0.1654 -0.8349  3.3993
   65MOL   H26922157   7.931   7.827   1.916 -0.6835 -2.3822  0.7148
   65MOL   H27022158   7.744   7.680   2.018  0.4989 -0.0621 -1.5330
   65MOL   H27122159   7.586   7.677   2.196 -1.7639  0.4445 -1.8427
   65MOL   H27222160   7.576   7.864   2.624  0.8726  0.3907  1.1591
   65MOL   H27322161   7.667   7.961   2.538 -3.3341  2.0841 -2.8780
   65MOL   C27422162   7.742   7.752   2.548  0.2231 -0.6767 -0.6145
   65MOL   C27522163   7.700   7.622   2.599 -0.0294 -0.3981  0.3369
   65MOL   C27622164   7.610   7.615   2.705  0.8250 -0.4978 -0.2998
   65MOL   C27722165   7.567   7.491   2.754 -0.1642 -0.0402 -0.2452
   65MOL   C27822166   7.619   7.375   2.686  0.5192  0.2650  0.2133
   65MOL   O27922167   7.575   7.254   2.733 -0.1763  0.3357 -0.4548
   65MOL   C28022168   7.713   7.382   2.580  0.6269  0.6417 -0.1509
   65MOL   C28122169   7.754   7.505   2.538 -0.0063  0.3444  0.0419
   65MOL   C28222170   7.852   7.805   2.647  0.1681 -0.2436 -0.5490
   65MOL   H28322171   7.790   7.745   2.451  0.7761 -0.4310 -0.3601
   65MOL   H28422172   7.566   7.700   2.754 -0.2239 -1.1568 -0.0745
   65MOL   H28522173   7.505   7.489   2.843 -0.5636  0.6319 -0.5055
   65MOL   H28622174   7.601   7.181   2.680 -2.7605 -1.3299  0.4970
   65MOL   H28722175   7.752   7.296   2.527 -1.2186 -0.6129  0.4696
   65MOL   H28822176   7.834   7.518   2.467  1.6425  1.1636  2.0044
   65MOL   H28922177   7.859   7.913   2.637  1.5230 -0.0956  1.5212
   65MOL   H29022178   7.816   7.785   2.748  1.5130  1.8436  0.3930
   65MOL   C29122179   8.001   7.760   2.646 -0.0924  0.8694 -0.2324
   65MOL   C29222180   0.027   7.811   2.779 -0.0480 -0.0425  0.3416
   65MOL   C29322181   0.028   7.946   2.816 -0.5896 -0.0065  0.1175
   65MOL   C29422182   0.084   7.987   2.940  0.3913 -0.2240 -0.7499
   65MOL   C29522183   0.128   7.889   3.028 -0.0299 -0.8575 -0.4010
   65MOL   O29622184   0.178   7.934   3.142 -0.3873 -0.6986  0.1476
   65MOL   C29722185   0.120   7.755   2.992 -0.2145  0.2597 -0.6564
   65MOL   C29822186   0.082   7.714   2.862  0.1211 -0.2503  0.1562
   65MOL   C29922187   0.030   7.819   2.525  0.3386  0.0666 -0.3219
   65MOL   H30022188   8.005   7.651   2.645  1.5857  0.9009  0.8354
   65MOL   H30122189   8.033   8.026   2.752 -0.8030  0.1802  0.4625
   65MOL   H30222190   0.082   0.054   2.969 -1.3142 -0.6618  0.8130
   65MOL   H30322191   0.198   7.870   3.209 -0.0227 -0.3288  0.3931
   65MOL   H30422192   0.137   7.679   3.067 -1.8707  0.9620  0.4588
   65MOL   H30522193   0.065   7.612   2.832  1.6435 -0.0366 -1.5562
   65MOL   H30622194   0.028   7.927   2.511  0.9185  0.1525  0.2145
   65MOL   H30722195   8.011   7.800   2.434 -0.4039  0.1774  0.1124
   65MOL   C30822196   0.173   7.765   2.488 -0.1794  0.2532  0.7063
   65MOL   C30922197   0.282   7.830   2.577  0.2406 -0.1895 -0.2822
   65MOL   C31022198   0.282   7.971   2.591  0.3195  0.1451  0.5560
   65MOL   C31122199   0.377   8.029   2.680  0.7013 -0.1077  0.0281
   65MOL   C31222200   0.472   7.950   2.749 -0.0338 -0.6536 -0.8254
   65MOL   O31322201   0.565   8.020   2.817  0.1959  0.4957  0.4535
   65MOL   C31422202   0.475   7.812   2.732  0.4733  0.6197  0.5259
   65MOL   C31522203   0.383   7.749   2.642 -1.0418 -0.6595  0.1445
   65MOL   C31622204   0.229   7.789   2.344 -0.0149  0.5952  0.3440
   65MOL   H31722205   0.181   7.657   2.506 -1.6235  0.2515  1.3555
   65MOL   H31822206   0.212   8.029   2.532  1.7607 -0.0603 -1.4091
   65MOL   H31922207   0.366   0.099   2.684  2.5713  0.1975 -2.1700
   65MOL   H32022208   0.547   0.074   2.803 -0.4816  0.3685  0.4768
   65MOL   H32122209   0.550   7.755   2.785 -0.0385 -0.3512  0.2147
   65MOL   H32222210   0.385   7.642   2.632  1.2093 -0.6703  0.5454
   65MOL   H32322211   0.326   7.741   2.348 -1.5211 -2.4865  2.0281
   65MOL   H32422212   0.252   7.895   2.333  0.7961  0.5685  1.6850
   65MOL   C32522213   0.159   7.726   2.219 -0.4866  0.5161  0.0600
   65MOL   C32622214   0.110   7.581   2.236  0.6812  0.2482  0.2854
   65MOL   C32722215   8.007   7.546   2.233  0.1455 -0.0644  0.8175
   65MOL   C32822216   7.962   7.418   2.266  0.9716 -0.4577  0.7043
   65MOL   C32922217   0.015   7.315   2.297 -0.4848 -0.0662 -0.1945
   65MOL   O33022218   7.999   7.189   2.320 -0.4594  0.6294 -0.2108
   65MOL   C33122219   0.148   7.352   2.297  0.1603 -0.4162 -0.6773
   65MOL   C33222220   0.196   7.479   2.260 -0.7067  0.3350  0.4446
   65MOL   C33322221   0.244   7.742   2.083 -0.0422 -0.6071  0.2179
   65MOL   H33422222   0.065   7.779   2.201 -1.4256 -0.8308  0.8763
   65MOL   H33522223   7.933   7.624   2.223 -0.1776 -0.3370  1.0659
   65MOL   H33622224   7.857   7.397   2.250  0.8048 -0.2509  1.5148
   65MOL   H33722225   0.026   7.120   2.313 -0.0685  0.6205  3.0524
   65MOL   H33822226   0.225   7.281   2.323 -0.0008 -0.3709 -0.0672
   65MOL   H33922227   0.301   7.505   2.255 -0.5482 -0.2412  0.6910
   65MOL   H34022228   0.267   7.845   2.054  1.3744 -0.7744  0.6607
   65MOL   H34122229   0.208   7.684   1.999  0.4207  0.8688 -1.0255
   65MOL   H34222230   0.346   7.702   2.092  0.7511  0.9317 -1.6146
   66MOL     C122231   3.566   6.488   4.036 -0.3793 -0.2710  0.5300
   66MOL     C222232   3.589   6.622   3.964 -0.5246 -0.5723 -0.1220
   66MOL     C322233   3.520   6.734   4.007  0.7933  0.1698 -0.3717
   66MOL     C422234   3.544   6.858   3.949 -0.0579  0.0381  0.5405
   66MOL     C522235   3.637   6.880   3.847  0.5168  0.0881  0.6220
   66MOL     O622236   3.632   7.006   3.787  0.0206 -0.2197  0.3506
   66MOL     C722237   3.706   6.768   3.800 -0.2383  0.0551  0.3973
   66MOL     C822238   3.685   6.640   3.865 -0.5819  0.4323  0.3160
   66MOL     C922239   3.632   6.493   4.179 -0.8958 -0.5522  0.2224
   66MOL    H1022240   3.458   6.475   4.036 -0.6329  1.7409  0.1740
   66MOL    H1122241   3.451   6.736   4.090  0.0242 -1.4591 -0.9369
   66MOL    H1222242   3.479   6.940   3.977  0.4627  0.6510 -0.0311
   66MOL    H1322243   3.598   6.983   3.702  0.7483  1.1827 -0.3402
   66MOL    H1422244   3.781   6.765   3.722  0.1473 -0.4471  0.7819
   66MOL    H1522245   3.745   6.563   3.818 -1.8026 -1.0838  1.1891
   66MOL    H1622246   3.592   6.580   4.232  1.6738  0.6769  0.2215
   66MOL    H1722247   3.740   6.505   4.168 -1.0505  1.4398  0.6490
   66MOL    H1822248   3.617   6.407   3.984  0.2948  0.1222  0.5680
   66MOL    C1922249   3.602   6.381   4.284  0.6552 -0.2846 -0.1801
   66MOL    C2022250   3.648   6.430   4.416  0.1690  0.3942  0.9580
   66MOL    C2122251   3.783   6.451   4.434 -0.1258 -0.7713 -0.9887
   66MOL    C2222252   3.836   6.503   4.555 -0.0867  0.3966  0.6189
   66MOL    C2322253   3.752   6.518   4.669  0.0579 -0.2351  0.4076
   66MOL    O2422254   3.808   6.522   4.790 -0.4943  0.9813 -0.1835
   66MOL    C2522255   3.619   6.494   4.655  0.5543  0.4669 -0.7346
   66MOL    C2622256   3.560   6.453   4.527 -0.2822 -0.0585 -0.4435
   66MOL    C2722257   3.666   6.243   4.240  0.2609  0.7487  0.2789
   66MOL    H2822258   3.495   6.365   4.292  0.2599  2.4141  0.1161
   66MOL    H2922259   3.848   6.423   4.352  2.5337 -0.2928  0.9064
   66MOL    H3022260   3.942   6.495   4.571  0.4267 -2.1625 -3.1907
   66MOL    H3122261   3.901   6.542   4.797  0.1701 -1.8149 -0.5284
   66MOL    H3222262   3.554   6.482   4.740  2.0909  1.7818  0.6664
   66MOL    H3322263   3.455   6.430   4.530 -0.1539 -0.5968  4.7286
   66MOL    H3422264   3.773   6.263   4.228 -0.0898  3.1017  0.8837
   66MOL    H3522265   3.612   6.220   4.148 -0.8508  2.1831  0.5660
   66MOL    C3622266   3.663   6.132   4.338  0.1597 -0.5831  0.2162
   66MOL    C3722267   3.758   6.018   4.294  0.7855 -0.1678 -0.7941
   66MOL    C3822268   3.725   5.922   4.194 -1.0102  0.2349  0.2353
   66MOL    C3922269   3.814   5.816   4.158 -0.0815 -0.0774  0.7179
   66MOL    C4022270   3.935   5.800   4.229 -0.1696 -0.6149  0.4827
   66MOL    O4122271   4.026   5.705   4.196  0.5180  0.2011  0.5152
   66MOL    C4222272   3.962   5.894   4.327 -0.0517  0.0472  0.6955
   66MOL    C4322273   3.882   6.003   4.357 -0.5374  0.4588 -0.3196
   66MOL    C4422274   3.517   6.091   4.365  0.6552  0.0448 -0.2108
   66MOL    H4522275   3.704   6.175   4.430 -0.4375 -1.2626  0.8078
   66MOL    H4622276   3.640   5.927   4.128  2.1747  4.1817 -3.9602
   66MOL    H4722277   3.785   5.755   4.074  4.1227  1.5343 -2.0587
   66MOL    H4822278   4.010   5.670   4.110 -0.2979 -1.6687  1.3809
   66MOL    H4922279   4.061   5.885   4.369  0.6878 -2.5288 -1.4174
   66MOL    H5022280   3.922   6.074   4.429  1.3970 -1.2638  0.3585
   66MOL    H5122281   3.447   6.174   4.351 -1.3640 -1.8018 -1.3819
   66MOL    H5222282   3.498   6.027   4.279 -1.4057 -0.3538  0.5176
   66MOL    C5322283   3.512   5.997   4.492  0.0833 -0.0246 -0.8693
   66MOL    C5422284   3.476   6.087   4.614 -0.7677 -0.6679 -0.6511
   66MOL    C5522285   3.570   6.092   4.722 -0.1141  0.0546 -0.5001
   66MOL    C5622286   3.550   6.172   4.832  0.0616 -0.1970 -0.5579
   66MOL    C5722287   3.440   6.261   4.838  0.6000 -0.6809  0.0431
   66MOL    O5822288   3.416   6.347   4.948  0.4251  0.2041  0.1018
   66MOL    C5922289   3.343   6.249   4.736  0.0516  0.0461  0.5689
   66MOL    C6022290   3.358   6.163   4.625 -0.0315  0.8859 -0.2010
   66MOL    C6122291   3.397   5.893   4.472 -0.4329  0.1718 -0.0075
   66MOL    H6222292   3.602   5.938   4.514 -0.7976 -0.5824  1.5012
   66MOL    H6322293   3.654   6.025   4.716  0.0449  0.0790  1.3423
   66MOL    H6422294   3.618   6.170   4.915  0.9552 -1.1860 -1.3005
   66MOL    H6522295   3.479   6.322   5.014  2.0785 -1.5858 -2.0924
   66MOL    H6622296   3.252   6.308   4.738 -0.0004  0.1344 -2.1326
   66MOL    H6722297   3.294   6.168   4.539  0.7804 -0.3348 -0.8824
   66MOL    H6822298   3.312   5.945   4.429  0.3663  1.4902 -0.0309
   66MOL    H6922299   3.373   5.853   4.571 -1.2356  1.3006  0.2546
   66MOL    C7022300   3.422   5.761   4.392 -0.1965 -0.1196 -0.2204
   66MOL    C7122301   3.290   5.684   4.372  0.0135  0.5878  0.3012
   66MOL    C7222302   3.233   5.686   4.240  0.8994  1.0665 -0.4476
   66MOL    C7322303   3.113   5.609   4.222 -0.4955 -0.4071  0.1381
   66MOL    C7422304   3.047   5.553   4.331  0.2540 -0.2012 -0.3406
   66MOL    O7522305   2.934   5.489   4.319 -0.6094  0.5520  0.4271
   66MOL    C7622306   3.109   5.548   4.460  0.3665  0.4195  0.6937
   66MOL    C7722307   3.228   5.619   4.482 -0.4416  0.5912 -0.3517
   66MOL    C7822308   3.534   5.678   4.460  0.5022  0.2370  0.0454
   66MOL    H7922309   3.467   5.777   4.294  0.7164 -0.8011  0.0715
   66MOL    H8022310   3.270   5.746   4.159 -0.6042  1.4512 -0.8547
   66MOL    H8122311   3.071   5.612   4.123  0.9308 -0.6368 -0.4858
   66MOL    H8222312   2.904   5.504   4.231 -0.9071 -0.3551  0.3673
   66MOL    H8322313   3.055   5.497   4.539  2.3987  0.3367  2.0490
   66MOL    H8422314   3.276   5.622   4.579  2.8200 -0.6389 -1.8517
   66MOL    H8522315   3.516   5.676   4.568 -1.7482  0.3942 -0.3087
   66MOL    H8622316   3.627   5.733   4.442  0.5391 -0.0522 -0.6366
   66MOL    C8722317   3.550   5.527   4.417 -0.0938  0.5619  0.0996
   66MOL    C8822318   3.687   5.475   4.466  0.4704 -0.3585 -0.2127
   66MOL    C8922319   3.800   5.522   4.400 -0.2389 -0.1171  0.6588
   66MOL    C9022320   3.927   5.474   4.433 -0.0589  0.0137  0.4052
   66MOL    C9122321   3.940   5.386   4.541  0.1283  0.5313 -0.0847
   66MOL    O9222322   4.065   5.338   4.566  0.4455  0.0042  0.1850
   66MOL    C9322323   3.830   5.339   4.612  0.1439  0.1943 -0.2846
   66MOL    C9422324   3.704   5.388   4.569  0.9690  0.5792 -0.8611
   66MOL    C9522325   3.547   5.509   4.262  0.3163  0.3069 -0.1813
   66MOL    H9622326   3.471   5.462   4.455  1.1342  0.4034  2.4725
   66MOL    H9722327   3.787   5.594   4.320 -1.8103 -0.0565  0.9658
   66MOL    H9822328   4.021   5.501   4.387  0.6873 -2.5114  0.3453
   66MOL    H9922329   4.129   5.370   4.504 -0.2629 -0.8644 -1.0349
   66MOL   H10022330   3.835   5.271   4.697 -0.7616 -1.1312 -1.2735
   66MOL   H10122331   3.615   5.346   4.612  0.1990  2.4988 -0.5517
   66MOL   H10222332   3.449   5.549   4.235  0.2116 -0.2409 -0.6029
   66MOL   H10322333   3.613   5.581   4.213  1.7401 -0.7538  0.1549
   66MOL   C10422334   3.565   5.371   4.204  0.2244  0.1858  0.1726
   66MOL   C10522335   3.656   5.362   4.080 -0.0193 -0.2527 -0.0653
   66MOL   C10622336   3.779   5.295   4.091 -0.7369 -0.0404 -0.1238
   66MOL   C10722337   3.873   5.290   3.990  0.4656 -0.4857  0.0929
   66MOL   C10822338   3.846   5.361   3.870  0.3369  0.9738  0.0540
   66MOL   O10922339   3.949   5.383   3.787 -0.0751 -0.0721 -0.0306
   66MOL   C11022340   3.718   5.410   3.848 -0.8587 -0.2318  0.3596
   66MOL   C11122341   3.622   5.420   3.950 -0.1150 -0.3023 -0.4463
   66MOL   C11222342   3.435   5.298   4.178  0.7509 -0.3638  1.3405
   66MOL   H11322343   3.619   5.318   4.283 -1.3834  2.0902  2.6270
   66MOL   H11422344   3.810   5.247   4.183  0.0695  0.7835  0.0380
   66MOL   H11522345   3.976   5.268   4.012  1.1707  2.2588 -0.2192
   66MOL   H11622346   4.010   5.313   3.803  0.0783 -0.0976 -0.7278
   66MOL   H11722347   3.699   5.457   3.752 -0.5459 -3.1277 -1.1629
   66MOL   H11822348   3.525   5.456   3.919  0.2685  0.9790 -0.1661
   66MOL   H11922349   3.461   5.207   4.123  2.2675  1.8517 -1.7514
   66MOL   H12022350   3.368   5.358   4.117  0.5096 -1.5136  0.4694
   66MOL   C12122351   3.352   5.254   4.301 -0.3325  0.8636  0.4377
   66MOL   C12222352   3.223   5.179   4.268 -0.1600  0.5369  0.3763
   66MOL   C12322353   3.218   5.094   4.156  0.1938  0.7853 -0.3465
   66MOL   C12422354   3.100   5.027   4.117 -0.1368 -0.7600  0.0669
   66MOL   C12522355   2.986   5.035   4.198  0.5745 -0.0796  0.1748
   66MOL   O12622356   2.874   4.970   4.160 -0.1040 -0.3822  1.1217
   66MOL   C12722357   2.984   5.123   4.309 -0.9968 -0.2730 -0.6299
   66MOL   C12822358   3.103   5.198   4.341  0.7059  0.4586  0.2351
   66MOL   C12922359   3.437   5.167   4.396 -0.2876 -0.4757  0.0434
   66MOL   H13022360   3.306   5.339   4.351 -0.2244  1.4120 -0.3898
   66MOL   H13122361   3.305   5.076   4.095  0.6741 -1.1158  0.8711
   66MOL   H13222362   3.120   4.977   4.023 -0.4230 -0.6684 -0.0454
   66MOL   H13322363   2.805   4.995   4.220  0.1466  2.1602  0.3946
   66MOL   H13422364   2.899   5.140   4.374 -0.9257  0.3613 -0.6967
   66MOL   H13522365   3.087   5.276   4.414 -0.3651  1.1503 -0.7429
   66MOL   H13622366   3.518   5.232   4.431 -1.4043  1.7413 -1.3489
   66MOL   H13722367   3.490   5.099   4.329  0.9345 -0.2288  0.7321
   66MOL   C13822368   3.365   5.092   4.506  0.1881 -0.8074 -0.4885
   66MOL   C13922369   3.445   5.095   4.629  0.2552  0.7030  0.0940
   66MOL   C14022370   3.399   5.158   4.746  0.8987  0.1848 -0.2536
   66MOL   C14122371   3.491   5.174   4.850  0.0829 -0.7043  0.5354
   66MOL   C14222372   3.626   5.130   4.843 -0.9239 -0.2534  0.8425
   66MOL   O14322373   3.716   5.155   4.945  0.0464 -0.4684 -0.4589
   66MOL   C14422374   3.662   5.059   4.728  0.1058  0.0824 -0.7981
   66MOL   C14522375   3.571   5.030   4.627  0.7918 -0.7370  0.1457
   66MOL   C14622376   3.326   4.948   4.469 -0.3163 -0.5745  0.5291
   66MOL   H14722377   3.273   5.151   4.516  0.6077 -0.4749  1.6035
   66MOL   H14822378   3.297   5.193   4.742  0.5156 -1.0141 -1.0870
   66MOL   H14922379   3.472   5.228   4.941 -1.7006 -0.5838  0.1036
   66MOL   H15022380   3.802   5.132   4.914  0.0295 -1.8266  0.4504
   66MOL   H15122381   3.756   5.008   4.713 -0.3864 -0.0969 -3.4592
   66MOL   H15222382   3.597   4.973   4.539 -0.4734  1.2698 -1.5762
   66MOL   H15322383   3.407   4.889   4.426 -1.6543 -2.1208  0.0601
   66MOL   H15422384   3.265   4.953   4.380  1.2936 -0.0766 -0.5673
   66MOL   C15522385   3.263   4.862   4.582 -0.6876  0.1288 -0.3985
   66MOL   C15622386   3.317   4.715   4.577 -0.3987 -0.7689 -0.7688
   66MOL   C15722387   3.432   4.671   4.644  0.0894 -0.6685 -0.2440
   66MOL   C15822388   3.480   4.545   4.606  0.2338  0.6413 -0.0819
   66MOL   C15922389   3.418   4.462   4.511  0.5985 -0.1970 -0.2715
   66MOL   O16022390   3.473   4.343   4.478 -0.4224  0.9413  0.1404
   66MOL   C16122391   3.302   4.503   4.452 -0.4322 -0.0319 -0.2293
   66MOL   C16222392   3.251   4.632   4.485 -0.2189 -0.0062  0.5115
   66MOL   C16322393   3.110   4.878   4.582  0.2758 -0.3074  0.7786
   66MOL   H16422394   3.296   4.900   4.679  2.2226  1.3137 -1.8023
   66MOL   H16522395   3.491   4.726   4.715  1.1135 -0.6904 -1.0644
   66MOL   H16622396   3.572   4.509   4.650 -0.4192 -1.6457 -0.5199
   66MOL   H16722397   3.466   4.276   4.544 -0.2476  0.7553 -0.0270
   66MOL   H16822398   3.258   4.433   4.383  0.1186  0.3285 -0.9499
   66MOL   H16922399   3.171   4.674   4.426  0.9910 -0.2677 -1.3661
   66MOL   H17022400   3.062   4.821   4.502  0.2764 -1.4605  1.5822
   66MOL   H17122401   3.090   4.982   4.557  0.7327 -0.2705  0.5673
   66MOL   C17222402   3.034   4.845   4.716 -0.1380 -0.3453  0.2064
   66MOL   C17322403   2.887   4.811   4.688  0.1321 -0.6280  0.2742
   66MOL   C17422404   2.793   4.904   4.639 -0.3024 -0.8806 -0.1900
   66MOL   C17522405   2.664   4.861   4.603 -0.0121 -0.4304 -1.0527
   66MOL   C17622406   2.634   4.725   4.617  0.1869 -0.0974  1.5168
   66MOL   O17722407   2.521   4.679   4.561  0.6157  0.1258  0.7210
   66MOL   C17822408   2.727   4.632   4.656 -0.2660  0.5747 -0.3323
   66MOL   C17922409   2.855   4.675   4.686 -0.0025  0.0346 -0.2710
   66MOL   C18022410   3.046   4.977   4.797 -0.3126  0.0742 -0.8524
   66MOL   H18122411   3.085   4.761   4.764  0.5985 -0.2361 -0.3711
   66MOL   H18222412   2.813   5.010   4.633  0.6565 -0.9882  0.8426
   66MOL   H18322413   2.584   4.927   4.571  0.1420  0.2889  0.0435
   66MOL   H18422414   2.441   4.729   4.554 -1.6050 -3.5785 -2.2247
   66MOL   H18522415   2.716   4.526   4.670  1.4577  0.5995  1.5896
   66MOL   H18622416   2.924   4.596   4.713 -1.4882 -0.9803  0.6572
   66MOL   H18722417   2.992   5.065   4.763  1.5834  1.8852  0.7205
   66MOL   H18822418   3.152   5.003   4.803 -0.3439 -0.1194  0.7315
   66MOL   C18922419   3.005   4.969   4.941  0.8583  0.2793 -0.6295
   66MOL   C19022420   3.109   5.031   5.033 -1.3595  0.0694 -0.0134
   66MOL   C19122421   3.126   5.175   5.041 -0.4667 -0.4826 -0.1840
   66MOL   C19222422   3.220   5.221   5.136 -0.4485  0.5255  1.0030
   66MOL   C19322423   3.297   5.130   5.215 -0.3793 -0.1975 -0.2500
   66MOL   O19422424   3.389   5.181   5.302 -0.3496  0.3721  0.7827
   66MOL   C19522425   3.279   4.996   5.210  0.1419 -0.5274  0.6404
   66MOL   C19622426   3.176   4.950   5.128  0.4236 -0.2516  0.1641
   66MOL   C19722427   2.864   5.026   4.970  0.0564 -0.1653  0.3421
   66MOL   H19822428   3.009   4.863   4.967 -0.6385  0.2670 -0.4242
   66MOL   H19922429   3.080   5.253   4.982 -0.8125 -0.1679  0.4931
   66MOL   H20022430   3.239   5.327   5.138 -1.3804  0.6910  1.1602
   66MOL   H20122431   3.471   5.151   5.266 -1.0992  0.3177 -0.9366
   66MOL   H20222432   3.340   4.930   5.271  1.4793 -0.9734 -1.1534
   66MOL   H20322433   3.150   4.845   5.140  1.1970 -0.6461 -1.5673
   66MOL   H20422434   2.800   4.987   4.891 -0.6647  1.5281  0.0724
   66MOL   H20522435   2.861   5.134   4.953 -1.4927 -0.3226 -0.4637
   66MOL   C20622436   2.800   4.986   5.106  0.0017 -0.1401  0.0086
   66MOL   C20722437   2.817   4.838   5.138  0.1050 -0.3352 -1.1404
   66MOL   C20822438   2.764   4.745   5.048  0.4217 -0.2099  0.2526
   66MOL   C20922439   2.794   4.609   5.059 -0.6798  0.4245  0.2279
   66MOL   C21022440   2.873   4.561   5.163  0.6567 -0.2779  0.4214
   66MOL   O21122441   2.885   4.427   5.186 -0.0362 -0.0662  0.1211
   66MOL   C21222442   2.919   4.655   5.260 -0.4812 -0.1911  0.2310
   66MOL   C21322443   2.896   4.793   5.245 -0.4700  0.0614 -0.0026
   66MOL   C21422444   2.651   5.026   5.127  0.5137  0.5980 -0.0674
   66MOL   H21522445   2.857   5.039   5.183 -1.5476 -1.9592  2.4829
   66MOL   H21622446   2.708   4.783   4.963  0.6827 -2.0046 -0.7263
   66MOL   H21722447   2.748   4.531   4.998 -1.3332  0.8667  0.1478
   66MOL   H21822448   2.880   4.375   5.108  0.4282 -0.5250  0.3946
   66MOL   H21922449   2.971   4.614   5.345  1.7731  1.0111 -0.5254
   66MOL   H22022450   2.920   4.862   5.324  1.1661  0.3647 -0.7476
   66MOL   H22122451   2.620   5.001   5.228 -3.0576  0.9038 -1.0145
   66MOL   H22222452   2.591   4.958   5.065  0.9345 -1.2262  1.4801
   66MOL   C22322453   2.604   5.167   5.095  0.1285  0.2904  0.0616
   66MOL   C22422454   2.496   5.222   5.199  0.2791 -0.4803 -0.5630
   66MOL   C22522455   2.509   5.355   5.244 -0.0361  0.9261 -0.3552
   66MOL   C22622456   2.414   5.413   5.329  0.3199 -0.2545  0.4642
   66MOL   C22722457   2.309   5.326   5.374  0.2822  0.0529  0.2881
   66MOL   O22822458   2.220   5.369   5.467  0.1904 -0.3234 -0.1098
   66MOL   C22922459   2.303   5.194   5.345  0.3038  0.2090 -0.5826
   66MOL   C23022460   2.393   5.142   5.256  0.0008 -0.1733 -0.0194
   66MOL   C23122461   2.559   5.183   4.947 -0.1665  0.8107  0.0999
   66MOL   H23222462   2.697   5.224   5.104  0.4580 -0.1402 -0.6186
   66MOL   H23322463   2.597   5.404   5.205 -0.3610  2.4320  0.7495
   66MOL   H23422464   2.419   5.513   5.368  1.9553 -0.0096 -0.3544
   66MOL   H23522465   2.233   5.317   5.545 -1.8765 -1.3180 -0.3949
   66MOL   H23622466   2.223   5.131   5.384 -0.0712  2.4715  2.5342
   66MOL   H23722467   2.387   5.041   5.218  0.3224 -0.6905  1.2766
   66MOL   H23822468   2.601   5.111   4.877 -0.8387 -0.7532  1.2665
   66MOL   H23922469   2.455   5.150   4.953  0.3455 -1.0221 -0.7249
   66MOL   C24022470   2.572   5.316   4.874  0.3762  0.3811  0.6219
   66MOL   C24122471   2.715   5.347   4.842  0.0984 -0.1540 -0.5188
   66MOL   C24222472   2.775   5.294   4.734 -0.6139 -0.0700  0.2484
   66MOL   C24322473   2.915   5.319   4.715  0.4777  0.0310 -0.1294
   66MOL   C24422474   2.984   5.403   4.800  0.4298 -0.3069 -0.1428
   66MOL   O24522475   3.115   5.436   4.775 -0.1538 -0.4654  0.1645
   66MOL   C24622476   2.919   5.463   4.908  0.1857  0.1228  0.6717
   66MOL   C24722477   2.786   5.434   4.934  0.4682  0.1984  0.2631
   66MOL   C24822478   2.481   5.321   4.749  0.0397  0.7706 -0.1681
   66MOL   H24922479   2.535   5.391   4.944 -0.7557  0.0776  0.3548
   66MOL   H25022480   2.718   5.233   4.666  1.2950 -0.4350 -1.0668
   66MOL   H25122481   2.971   5.270   4.637 -0.8279 -1.0294 -0.4314
   66MOL   H25222482   3.157   5.513   4.809 -0.7196  0.5903 -1.4591
   66MOL   H25322483   2.979   5.523   4.975  0.6793 -0.3178  0.6276
   66MOL   H25422484   2.732   5.481   5.015 -0.7985  0.0426 -0.4813
   66MOL   H25522485   2.514   5.405   4.690 -0.5685  0.7902 -0.4879
   66MOL   H25622486   2.498   5.238   4.681 -2.5520 -0.0280  0.0848
   66MOL   C25722487   2.334   5.342   4.778  0.7039  0.1610 -0.6589
   66MOL   C25822488   2.306   5.456   4.875  0.4729 -0.3058 -0.1716
   66MOL   C25922489   2.214   5.444   4.976 -0.0435  0.2899 -0.2349
   66MOL   C26022490   2.195   5.545   5.077 -0.5094  0.2999 -0.4326
   66MOL   C26122491   2.271   5.666   5.068  0.2496  0.4495 -0.0817
   66MOL   O26222492   2.258   5.752   5.169  0.5278  0.2091 -0.1325
   66MOL   C26322493   2.346   5.687   4.954 -0.0648  0.4606  0.3121
   66MOL   C26422494   2.368   5.584   4.863 -0.3465 -0.7315  0.1864
   66MOL   C26522495   2.250   5.348   4.652  0.1712 -0.0846  0.6309
   66MOL   H26622496   2.296   5.253   4.827 -0.5291  0.6772 -0.6577
   66MOL   H26722497   2.163   5.349   4.989 -0.2063  0.3885 -0.1485
   66MOL   H26822498   2.136   5.526   5.165 -0.3741  1.2550 -0.1370
   66MOL   H26922499   2.218   5.709   5.243  0.6425 -1.2588 -0.9165
   66MOL   H27022500   2.415   5.770   4.957 -1.5257  1.6311  4.1853
   66MOL   H27122501   2.436   5.602   4.781  0.6836  0.7362  1.3367
   66MOL   H27222502   2.263   5.259   4.591 -2.9426  0.0325 -0.2866
   66MOL   H27322503   2.291   5.421   4.582  0.2403  0.4235  1.1956
   66MOL   C27422504   2.095   5.362   4.669  0.4197  0.0510 -0.3873
   66MOL   C27522505   2.020   5.227   4.681 -0.2365  0.3159 -0.0813
   66MOL   C27622506   1.967   5.187   4.804 -0.7255  0.7837  0.1438
   66MOL   C27722507   1.907   5.061   4.819  1.3934  0.5170 -0.0721
   66MOL   C27822508   1.883   4.986   4.703 -0.0262  0.2921  0.1866
   66MOL   O27922509   1.820   4.863   4.713  0.2031 -0.3232 -0.3332
   66MOL   C28022510   1.945   5.018   4.585 -0.0895  0.2983 -0.7679
   66MOL   C28122511   2.008   5.140   4.574  0.4467  0.5986  0.2694
   66MOL   C28222512   2.027   5.455   4.562  0.2847  0.2432 -0.2241
   66MOL   H28322513   2.070   5.412   4.763  1.7667  0.4792 -0.2475
   66MOL   H28422514   1.988   5.252   4.888 -1.9864  0.2267  0.9031
   66MOL   H28522515   1.882   5.034   4.921 -0.5064 -1.4695 -1.0218
   66MOL   H28622516   1.829   4.820   4.629  1.8481 -0.3407 -0.1668
   66MOL   H28722517   1.933   4.961   4.495 -0.0200  0.7738 -1.0803
   66MOL   H28822518   2.053   5.170   4.480  1.6355 -2.0665 -0.0596
   66MOL   H28922519   2.016   5.406   4.465  0.0895  1.8678 -1.0326
   66MOL   H29022520   1.923   5.456   4.595  0.3669  0.9207  0.0247
   66MOL   C29122521   2.081   5.599   4.559 -0.2669 -0.0988 -0.9741
   66MOL   C29222522   1.997   5.697   4.649 -0.0033  0.7305  0.2994
   66MOL   C29322523   1.869   5.750   4.611  0.6608 -0.6123 -0.5743
   66MOL   C29422524   1.801   5.825   4.710  0.4990 -0.9563 -1.0232
   66MOL   C29522525   1.870   5.842   4.838  1.1552 -0.2550 -0.3056
   66MOL   O29622526   1.815   5.925   4.938  0.5218 -0.4501  0.2936
   66MOL   C29722527   2.001   5.803   4.860  0.1625 -0.4997  0.4726
   66MOL   C29822528   2.067   5.728   4.765  0.5211 -0.4838  0.1277
   66MOL   C29922529   2.102   5.655   4.418  0.2837 -0.3266  0.1559
   66MOL   H30022530   2.185   5.606   4.592 -1.0570  1.3305  1.2912
   66MOL   H30122531   1.827   5.714   4.518  0.1717  1.5096 -1.1957
   66MOL   H30222532   1.700   5.860   4.695 -0.0916 -1.8424  0.7681
   66MOL   H30322533   1.721   5.931   4.924  0.4442 -0.6332  0.7187
   66MOL   H30422534   2.051   5.820   4.955  0.6872  0.3849  0.0437
   66MOL   H30522535   2.166   5.694   4.789  0.2402 -1.6571 -0.3290
   66MOL   H30622536   2.105   5.764   4.427  0.2688 -0.3514  0.4636
   66MOL   H30722537   2.013   5.633   4.360  0.5882  0.2045 -0.5252
   66MOL   C30822538   2.201   5.587   4.328 -0.5851 -0.0222  0.0659
   66MOL   C30922539   2.342   5.589   4.377  0.5156  0.2333  0.3230
   66MOL   C31022540   2.396   5.693   4.464  0.3251 -0.4244  0.7180
   66MOL   C31122541   2.532   5.689   4.495 -0.7754  0.0376  0.2856
   66MOL   C31222542   2.604   5.569   4.475 -0.8265  0.2071 -0.2156
   66MOL   O31322543   2.734   5.566   4.511  0.5002  0.1621  0.2955
   66MOL   C31422544   2.544   5.462   4.406  0.2391 -0.2769  0.4721
   66MOL   C31522545   2.416   5.476   4.348 -0.1001 -0.0917 -0.5954
   66MOL   C31622546   2.198   5.648   4.185  0.3631 -0.2642  0.8482
   66MOL   H31722547   2.167   5.484   4.327 -0.1493 -0.1691  0.1221
   66MOL   H31822548   2.352   5.791   4.478 -0.5353 -0.1720 -3.1736
   66MOL   H31922549   2.581   5.771   4.545 -0.9326  0.3825 -0.1194
   66MOL   H32022550   2.793   5.510   4.464 -0.7477 -0.9688  0.0280
   66MOL   H32122551   2.601   5.371   4.397  1.6240  0.5605  0.5519
   66MOL   H32222552   2.363   5.399   4.294 -0.1980 -0.2211 -0.3115
   66MOL   H32322553   2.243   5.747   4.186  0.2829 -0.1739 -1.1932
   66MOL   H32422554   2.092   5.666   4.165  0.9551  2.5207 -0.0024
   66MOL   C32522555   2.253   5.563   4.067 -1.1569 -0.0526  0.5362
   66MOL   C32622556   2.227   5.632   3.938  0.3225 -0.4173 -0.1290
   66MOL   C32722557   2.094   5.664   3.908  1.4187  0.3359  0.0782
   66MOL   C32822558   2.061   5.734   3.791 -0.0221  0.1261 -0.2992
   66MOL   C32922559   2.160   5.782   3.708 -0.3292 -0.2389 -1.1797
   66MOL   O33022560   2.120   5.838   3.588 -0.4635 -0.3292 -0.0555
   66MOL   C33122561   2.295   5.759   3.750 -0.4473 -1.0465 -0.3473
   66MOL   C33222562   2.327   5.686   3.858  0.2994  0.4553  0.2118
   66MOL   C33322563   2.193   5.427   4.072 -0.1454 -0.5472  0.7294
   66MOL   H33422564   2.362   5.563   4.074 -0.9178 -2.3146 -1.8443
   66MOL   H33522565   2.017   5.653   3.982  1.1913  0.4339 -0.1428
   66MOL   H33622566   1.957   5.754   3.773 -0.4434  0.5354  2.4161
   66MOL   H33722567   2.181   5.854   3.518 -2.9157 -0.6480 -2.3815
   66MOL   H33822568   2.375   5.794   3.687 -0.0411 -1.9185 -0.3295
   66MOL   H33922569   2.430   5.666   3.881 -0.1463 -0.3495  1.5305
   66MOL   H34022570   2.085   5.433   4.067 -0.0120  2.8588  1.1968
   66MOL   H34122571   2.210   5.359   4.155  2.0996 -1.2433 -0.2469
   66MOL   H34222572   2.217   5.360   3.988  2.0283 -1.4221  1.9976
   67MOL     C122573   6.040   5.528   0.333 -0.4054  0.2598  0.0782
   67MOL     C222574   6.119   5.492   0.210  0.4513 -0.6943  0.0974
   67MOL     C322575   6.056   5.444   0.090 -0.1983 -0.8322 -0.2714
   67MOL     C422576   6.135   5.416   8.016 -0.2918  0.0446 -0.1086
   67MOL     C522577   6.274   5.411   8.025  0.2049  0.1692  0.3256
   67MOL     O622578   6.338   5.376   7.913  0.1535 -0.0855  0.1577
   67MOL     C722579   6.344   5.459   0.100  0.1114 -0.6075  0.6352
   67MOL     C822580   6.261   5.493   0.215 -0.1924 -0.7709  0.3417
   67MOL     C922581   5.958   5.409   0.400  0.2003  0.2372 -0.3000
   67MOL    H1022582   6.096   5.574   0.415  1.2684  2.6202 -2.3075
   67MOL    H1122583   5.948   5.438   0.089 -0.2313 -1.9646  2.7803
   67MOL    H1222584   6.082   5.385   7.927  2.6918  2.0637 -2.6894
   67MOL    H1322585   6.292   5.345   7.836  0.9401 -3.2668  0.8829
   67MOL    H1422586   6.452   5.461   0.102  0.2031 -0.4536 -2.4650
   67MOL    H1522587   6.318   5.516   0.304 -0.5459 -2.7205  1.0938
   67MOL    H1622588   5.892   5.373   0.322  1.4461 -0.4696 -1.0336
   67MOL    H1722589   5.878   5.443   0.466  2.2966 -1.8377  3.5391
   67MOL    H1822590   5.970   5.609   0.311  0.4497  1.0354  0.1785
   67MOL    C1922591   6.035   5.288   0.468 -0.2493 -0.2203  0.2138
   67MOL    C2022592   6.096   5.318   0.608 -0.3844 -0.3804 -0.5087
   67MOL    C2122593   6.029   5.273   0.723  0.4044 -0.7262 -0.2431
   67MOL    C2222594   6.073   5.317   0.848 -0.3336  0.0280  0.8083
   67MOL    C2322595   6.187   5.404   0.857  0.3660 -0.2146  0.2221
   67MOL    O2422596   6.230   5.443   0.974 -0.9768 -0.5915 -0.6411
   67MOL    C2522597   6.265   5.437   0.744  0.0811  0.0645 -0.3235
   67MOL    C2622598   6.211   5.395   0.619 -0.3643  0.2743 -0.1295
   67MOL    C2722599   6.130   5.193   0.380 -0.3665 -1.5221  0.4121
   67MOL    H2822600   5.959   5.216   0.499 -0.4702  0.8430  2.2265
   67MOL    H2922601   5.952   5.200   0.705 -0.4903 -0.0198  0.6816
   67MOL    H3022602   6.023   5.292   0.941  0.4154  2.4011  1.9001
   67MOL    H3122603   6.308   5.491   0.954 -2.4156  1.3609 -1.6621
   67MOL    H3222604   6.354   5.498   0.750 -0.0155  0.0525  1.9355
   67MOL    H3322605   6.263   5.429   0.530 -0.6601 -1.7692 -1.1295
   67MOL    H3422606   6.200   5.140   0.444 -1.7138 -2.1532  1.3853
   67MOL    H3522607   6.204   5.252   0.324 -3.1457 -0.0135 -1.8219
   67MOL    C3622608   6.061   5.081   0.297  0.1185  0.3025  0.5116
   67MOL    C3722609   5.997   4.973   0.380  0.7319 -0.3490  0.5265
   67MOL    C3822610   5.860   4.948   0.368 -0.1798  0.8656  0.2877
   67MOL    C3922611   5.802   4.831   0.432  0.3720  0.0997 -0.1990
   67MOL    C4022612   5.882   4.760   0.527 -0.3600  0.7568 -0.1040
   67MOL    O4122613   5.833   4.657   0.606 -0.4286  0.0224 -0.4221
   67MOL    C4222614   6.011   4.798   0.554 -1.0774 -0.0985  0.4927
   67MOL    C4322615   6.072   4.893   0.472 -0.4618 -1.0236  0.4161
   67MOL    C4422616   6.154   5.033   0.182  0.3624  0.2613  0.5000
   67MOL    H4522617   5.977   5.130   0.247  2.3030  0.9347 -2.6975
   67MOL    H4622618   5.805   5.015   0.304  0.9049  0.1079 -1.4744
   67MOL    H4722619   5.699   4.806   0.413  0.1381 -0.3399  1.6135
   67MOL    H4822620   5.747   4.636   0.575 -1.7189  3.7214  0.3812
   67MOL    H4922621   6.075   4.736   0.615  0.0227 -1.2316 -1.7411
   67MOL    H5022622   6.174   4.923   0.491 -1.6242  2.3841  1.6202
   67MOL    H5122623   6.177   5.114   0.112  2.4645  1.1699  2.1914
   67MOL    H5222624   6.252   5.009   0.222  0.2494  1.0831  1.3125
   67MOL    C5322625   6.086   4.913   0.105 -0.1147  0.4847 -0.2762
   67MOL    C5422626   5.957   4.952   0.034 -0.6108 -0.2884  0.3698
   67MOL    C5522627   5.963   5.055   7.980 -0.4679 -0.6780  0.3985
   67MOL    C5622628   5.850   5.120   7.931  0.9533  0.5086 -0.0673
   67MOL    C5722629   5.726   5.062   7.962  0.7689  0.0600 -0.3734
   67MOL    O5822630   5.618   5.128   7.916  0.6018  0.3394  0.1037
   67MOL    C5922631   5.713   4.941   8.031  0.2987 -0.1686 -0.0166
   67MOL    C6022632   5.830   4.882   0.049 -0.0244  0.0532 -0.0891
   67MOL    C6122633   6.190   4.843   0.010  0.3091  0.1014  0.3808
   67MOL    H6222634   6.067   4.840   0.183 -2.5827 -0.3659 -1.6326
   67MOL    H6322635   6.062   5.092   7.960 -0.4537 -0.2538  1.2332
   67MOL    H6422636   5.856   5.203   7.863 -1.6880  0.8171  0.0294
   67MOL    H6522637   5.629   5.212   7.873 -0.7482  0.3722 -0.1989
   67MOL    H6622638   5.615   4.896   0.006  0.9179 -1.1111  1.7297
   67MOL    H6722639   5.817   4.790   0.104 -3.5185 -0.3436 -1.4420
   67MOL    H6822640   6.286   4.838   0.061  0.3617  0.0355  0.2743
   67MOL    H6922641   6.206   4.904   7.958  2.5644  0.0368  0.7096
   67MOL    C7022642   6.153   4.704   7.997 -0.0860  0.5342 -0.2139
   67MOL    C7122643   6.192   4.597   0.064  0.1806  0.5433  0.9878
   67MOL    C7222644   6.093   4.560   0.162  0.3190 -0.0556  0.9236
   67MOL    C7322645   6.134   4.474   0.262 -0.0631  1.3468 -0.0231
   67MOL    C7422646   6.259   4.416   0.264  0.4307 -0.2712 -0.6918
   67MOL    O7522647   6.280   4.339   0.374  0.0052 -0.2558  0.2348
   67MOL    C7622648   6.359   4.442   0.166 -0.0635 -0.2561 -0.0994
   67MOL    C7722649   6.321   4.538   0.069  0.1299  0.5471 -0.2081
   67MOL    C7822650   6.215   4.664   7.863 -0.1699  0.3636  0.1439
   67MOL    H7922651   6.044   4.712   7.991 -0.2566  0.5867  2.3528
   67MOL    H8022652   5.993   4.601   0.161 -0.1732 -1.2366  0.6026
   67MOL    H8122653   6.060   4.448   0.337  0.6174 -0.2004  0.1303
   67MOL    H8222654   6.273   4.245   0.362  1.5401 -0.4801  0.9357
   67MOL    H8322655   6.452   4.389   0.151 -1.0718 -2.2282  0.4158
   67MOL    H8422656   6.396   4.569   8.036 -1.3114  1.3813 -1.3851
   67MOL    H8522657   6.228   4.556   7.861 -0.7649  0.2187  2.6636
   67MOL    H8622658   6.316   4.704   7.846  0.2903 -0.9211 -0.1862
   67MOL    C8722659   6.140   4.706   7.733 -0.2952 -0.4638 -0.3732
   67MOL    C8822660   5.991   4.662   7.734 -0.9208 -0.2706 -0.2876
   67MOL    C8922661   5.960   4.526   7.736  0.6722  0.3810 -0.0697
   67MOL    C9022662   5.826   4.483   7.758  0.2506 -0.0075 -0.3440
   67MOL    C9122663   5.721   4.574   7.780 -0.6599 -0.4989  0.5616
   67MOL    O9222664   5.597   4.537   7.820  0.2770  0.1662  0.1038
   67MOL    C9322665   5.754   4.706   7.766  0.0256  0.1565  0.5218
   67MOL    C9422666   5.885   4.752   7.744 -0.1732 -0.1219  0.3436
   67MOL    C9522667   6.207   4.673   7.597 -0.1788 -0.7016 -0.1693
   67MOL    H9622668   6.138   4.814   7.747  1.8623 -0.5963  1.1092
   67MOL    H9722669   6.038   4.451   7.736 -0.6214 -0.9757 -1.9225
   67MOL    H9822670   5.800   4.378   7.755  1.3599 -0.2776 -0.5646
   67MOL    H9922671   5.529   4.596   7.792 -1.8985 -2.5163 -0.5030
   67MOL   H10022672   5.679   4.784   7.769  1.6080  1.7554 -0.2768
   67MOL   H10122673   5.896   4.860   7.741 -0.6698 -0.0799 -0.0854
   67MOL   H10222674   6.307   4.716   7.587 -0.1366 -0.4194  1.2816
   67MOL   H10322675   6.227   4.567   7.581  0.8375 -0.5755  0.2041
   67MOL   C10422676   6.137   4.711   7.470  0.1605 -0.5278 -0.2469
   67MOL   C10522677   6.197   4.645   7.345  0.1448 -0.3908  0.1770
   67MOL   C10622678   6.149   4.518   7.304  0.2174 -0.1336  0.6441
   67MOL   C10722679   6.203   4.452   7.189  0.1284 -0.2569 -0.0975
   67MOL   C10822680   6.317   4.512   7.125 -0.0771 -0.5288 -0.6474
   67MOL   O10922681   6.354   4.462   7.002 -0.0877 -0.1900 -0.6241
   67MOL   C11022682   6.373   4.632   7.177 -0.6395  0.5429  0.0914
   67MOL   C11122683   6.306   4.697   7.283 -0.3113  0.2296 -0.1469
   67MOL   C11222684   6.116   4.860   7.460 -0.1696  0.6771  0.5205
   67MOL   H11322685   6.036   4.671   7.479 -0.6650  1.2866 -1.3507
   67MOL   H11422686   6.077   4.461   7.360 -0.1305 -0.1904  0.1381
   67MOL   H11522687   6.172   4.352   7.162 -2.1442  0.6009 -0.7483
   67MOL   H11622688   6.314   4.378   6.984 -2.7886  0.7281  0.7055
   67MOL   H11722689   6.455   4.680   7.125  0.9500  1.2095  3.1136
   67MOL   H11822690   6.347   4.791   7.315  2.7660 -0.9297 -0.4838
   67MOL   H11922691   6.212   4.910   7.444  0.7742 -1.3573 -0.2967
   67MOL   H12022692   6.091   4.895   7.560  1.6400 -1.0810  1.6256
   67MOL   C12122693   6.010   4.901   7.347 -0.2844 -0.0563  0.5523
   67MOL   C12222694   5.873   4.925   7.415 -0.4001  0.1994  0.1572
   67MOL   C12322695   5.761   4.849   7.378  0.3998  0.0588  0.7032
   67MOL   C12422696   5.642   4.866   7.453  0.9152 -0.3911  0.5059
   67MOL   C12522697   5.627   4.959   7.562 -0.4849 -1.1652  0.8260
   67MOL   O12622698   5.519   4.975   7.641  0.2744 -0.4342 -0.1918
   67MOL   C12722699   5.743   5.039   7.593 -0.7118  0.0647  0.5663
   67MOL   C12822700   5.860   5.024   7.513  0.3764 -0.5120 -0.0663
   67MOL   C12922701   6.043   5.034   7.277  0.6676 -0.3275  0.1917
   67MOL   H13022702   6.004   4.819   7.276  1.7255  0.7362 -0.5627
   67MOL   H13122703   5.764   4.774   7.300 -0.5647  1.3465 -0.6066
   67MOL   H13222704   5.555   4.810   7.421  0.3951  0.0014  1.2232
   67MOL   H13322705   5.546   5.039   7.706  1.5382 -1.9442  0.7997
   67MOL   H13422706   5.741   5.108   7.676  0.4926 -2.0392  2.3958
   67MOL   H13522707   5.941   5.084   7.552  1.2662 -2.0800  0.5775
   67MOL   H13622708   6.148   5.039   7.246  0.8264 -1.1988  0.5850
   67MOL   H13722709   6.034   5.116   7.348  0.7707  0.3577 -0.5747
   67MOL   C13822710   5.957   5.049   7.148  0.3203  0.0279  0.4070
   67MOL   C13922711   5.991   4.942   7.051 -0.1084  0.1259 -0.2856
   67MOL   C14022712   6.121   4.933   6.994  0.3461 -0.3448  0.5992
   67MOL   C14122713   6.161   4.820   6.920 -0.1267  0.1331  0.8970
   67MOL   C14222714   6.073   4.710   6.908  0.0878  0.2318  0.5840
   67MOL   O14322715   6.113   4.595   6.850  0.0570  0.4018  0.0209
   67MOL   C14422716   5.939   4.726   6.942  0.1970  0.0106  0.0104
   67MOL   C14522717   5.897   4.839   7.019  0.4766 -0.0658  0.9578
   67MOL   C14622718   5.978   5.190   7.086 -0.0588  0.4789  0.4166
   67MOL   H14722719   5.852   5.034   7.173  0.5564  0.1188  1.4445
   67MOL   H14822720   6.187   5.013   7.026 -2.4557  2.5948 -0.6736
   67MOL   H14922721   6.263   4.792   6.898 -0.4355 -0.8527  0.6973
   67MOL   H15022722   6.130   4.520   6.905  1.4619 -0.5766 -1.7418
   67MOL   H15122723   5.870   4.651   6.907 -0.3502  1.0827 -1.2641
   67MOL   H15222724   5.800   4.842   7.066  0.2198 -0.8888  0.4945
   67MOL   H15322725   5.934   5.184   6.986 -2.0685  1.1962  1.2471
   67MOL   H15422726   6.079   5.228   7.071 -0.1535 -0.3305 -2.8274
   67MOL   C15522727   5.899   5.291   7.168  0.3855  0.4258  0.0267
   67MOL   C15622728   5.750   5.274   7.171 -0.1926  0.0341 -0.9753
   67MOL   C15722729   5.672   5.278   7.046 -0.9698  0.1138 -0.5983
   67MOL   C15822730   5.534   5.259   7.053  0.0153 -0.3001  0.8861
   67MOL   C15922731   5.464   5.253   7.175  0.0910  0.0141  0.0144
   67MOL   O16022732   5.329   5.253   7.181  0.0535  0.4129  0.4479
   67MOL   C16122733   5.542   5.242   7.295 -0.6556  1.1644  0.7059
   67MOL   C16222734   5.682   5.251   7.291  0.4993 -0.1806  0.2513
   67MOL   C16322735   5.929   5.439   7.130 -0.0022  0.0039  0.1193
   67MOL   H16422736   5.927   5.265   7.270 -1.7050 -0.5162  0.3851
   67MOL   H16522737   5.732   5.286   6.956  0.6405 -0.6174  0.3925
   67MOL   H16622738   5.465   5.263   6.970 -0.6648  1.6880  1.5152
   67MOL   H16722739   5.289   5.217   7.258 -2.1549  0.0952 -0.8037
   67MOL   H16822740   5.495   5.212   7.388 -1.4786  0.1916 -0.0122
   67MOL   H16922741   5.739   5.257   7.382  1.1101 -0.4794 -0.1105
   67MOL   H17022742   5.860   5.492   7.195  0.7954  2.4784 -1.0083
   67MOL   H17122743   5.905   5.467   7.027  2.5059  1.4579 -0.1138
   67MOL   C17222744   6.075   5.490   7.173 -0.0358  0.3546 -0.2501
   67MOL   C17322745   6.117   5.438   7.313  0.0638 -0.2793  0.6894
   67MOL   C17422746   6.061   5.488   7.429  0.4256  0.1547 -0.6282
   67MOL   C17522747   6.091   5.433   7.554  0.0101 -0.3319 -1.1797
   67MOL   C17622748   6.181   5.334   7.568  0.7364 -0.2035 -0.0447
   67MOL   O17722749   6.200   5.279   7.691 -0.1432  0.0094  0.1508
   67MOL   C17822750   6.240   5.274   7.452  0.0098  0.2236 -0.0455
   67MOL   C17922751   6.218   5.338   7.327  0.3615  0.3499 -0.2250
   67MOL   C18022752   6.074   5.643   7.165 -0.6864 -0.1460 -0.3409
   67MOL   H18122753   6.150   5.454   7.102 -0.3228  1.3651 -1.0825
   67MOL   H18222754   5.982   5.562   7.429  0.1544 -0.1351 -0.0988
   67MOL   H18322755   6.040   5.468   7.643 -0.3722  1.8924 -2.2192
   67MOL   H18422756   6.265   5.211   7.687  0.3362  0.5222 -0.9434
   67MOL   H18522757   6.306   5.189   7.460  1.0059  1.0708  1.1713
   67MOL   H18622758   6.256   5.298   7.234 -1.1049  0.9875 -1.1244
   67MOL   H18722759   5.996   5.686   7.228 -0.4659 -0.4251  0.1314
   67MOL   H18822760   6.058   5.662   7.059 -0.6090 -0.1089 -0.3454
   67MOL   C18922761   6.216   5.703   7.206  0.4580 -0.5623 -0.4137
   67MOL   C19022762   6.330   5.642   7.136  0.1038 -0.5531 -1.1697
   67MOL   C19122763   6.439   5.586   7.209 -0.2147  0.3555 -0.2470
   67MOL   C19222764   6.550   5.529   7.143  0.5299  0.1751  0.2030
   67MOL   C19322765   6.556   5.525   7.002 -0.6696 -0.6308 -0.6239
   67MOL   O19422766   6.668   5.476   6.940  0.5372 -0.0741  0.1657
   67MOL   C19522767   6.451   5.584   6.926 -0.2891 -0.0039  0.1118
   67MOL   C19622768   6.335   5.631   6.998 -0.3811 -0.0106 -0.3816
   67MOL   C19722769   6.220   5.863   7.197 -0.3813 -0.0852 -0.1901
   67MOL   H19822770   6.236   5.676   7.310  2.9985  1.5946 -0.2799
   67MOL   H19922771   6.432   5.586   7.317 -0.2300 -1.1867 -0.2432
   67MOL   H20022772   6.630   5.479   7.195 -0.2214 -1.9800 -0.6167
   67MOL   H20122773   6.654   5.468   6.847 -1.0862  1.7058  0.2160
   67MOL   H20222774   6.462   5.572   6.819  1.3012 -1.4355  0.4190
   67MOL   H20322775   6.249   5.668   6.944 -0.6496  0.5451  0.4100
   67MOL   H20422776   6.139   5.899   7.134 -0.9461  1.5222  1.4087
   67MOL   H20522777   6.301   5.894   7.130  2.9125 -1.9681  2.7552
   67MOL   C20622778   6.219   5.930   7.334 -0.6207 -0.7065 -0.7280
   67MOL   C20722779   6.100   5.881   7.418  0.0744  0.1953 -1.1366
   67MOL   C20822780   6.124   5.814   7.542  0.1599 -0.3382  0.5282
   67MOL   C20922781   6.012   5.779   7.623 -0.2996  0.1800 -0.2138
   67MOL   C21022782   5.885   5.793   7.569  0.1807  0.6065  0.3273
   67MOL   O21122783   5.774   5.763   7.646  0.6102  0.5748 -0.9363
   67MOL   C21222784   5.864   5.843   7.438  0.0795 -0.0571 -0.4189
   67MOL   C21322785   5.969   5.900   7.370 -0.3910 -0.1578 -0.4159
   67MOL   C21422786   6.223   6.090   7.348  0.3412  0.5745  0.1748
   67MOL   H21522787   6.314   5.903   7.380 -0.4056 -0.6359 -1.1257
   67MOL   H21622788   6.225   5.810   7.578  0.6279 -1.2799 -0.8714
   67MOL   H21722789   6.017   5.739   7.723  0.9326 -1.1995 -0.8002
   67MOL   H21822790   5.789   5.721   7.729  0.1858  1.2980 -0.4833
   67MOL   H21922791   5.760   5.865   7.422  0.1376  2.3594  1.9993
   67MOL   H22022792   5.961   5.939   7.269  2.1210 -0.9522 -0.9559
   67MOL   H22122793   6.128   6.143   7.344 -1.1340 -1.8556  1.8439
   67MOL   H22222794   6.274   6.125   7.258  2.7746  1.0602  1.6886
   67MOL   C22322795   6.317   6.139   7.458  0.7682  0.8067  0.0192
   67MOL   C22422796   6.258   6.111   7.595 -0.7025  0.3296 -0.2126
   67MOL   C22522797   6.131   6.158   7.624 -0.0036  0.2725  0.1724
   67MOL   C22622798   6.071   6.129   7.750  0.0511  0.1480 -0.2022
   67MOL   C22722799   6.137   6.054   7.845  0.1916 -0.0512 -0.3446
   67MOL   O22822800   6.073   6.012   7.961  0.1377 -0.1470 -0.2876
   67MOL   C22922801   6.274   6.022   7.826  0.4210  0.0750  0.8401
   67MOL   C23022802   6.333   6.054   7.700  0.4197  0.3321  0.3948
   67MOL   C23122803   6.360   6.284   7.452  0.2088 -0.0601  0.3966
   67MOL   H23222804   6.411   6.084   7.451 -0.7091 -2.4185  3.6362
   67MOL   H23322805   6.071   6.204   7.546  0.1023  1.6520  0.8823
   67MOL   H23422806   5.965   6.143   7.766  0.2213  1.1485  0.0498
   67MOL   H23522807   6.010   6.072   7.999 -0.4267 -0.0255 -1.3913
   67MOL   H23622808   6.330   5.977   7.907  3.8645  2.3555 -0.1624
   67MOL   H23722809   6.436   6.029   7.678 -0.4492 -2.1070 -1.1502
   67MOL   H23822810   6.386   6.312   7.350 -1.0559 -1.0301 -0.2068
   67MOL   H23922811   6.276   6.347   7.483  0.3211  1.0099 -1.4127
   67MOL   C24022812   6.473   6.329   7.545 -0.2907  0.2422 -0.7667
   67MOL   C24122813   6.600   6.265   7.498  0.2616 -0.1382  0.2622
   67MOL   C24222814   6.665   6.322   7.390 -0.2248  0.2146  0.6886
   67MOL   C24322815   6.779   6.261   7.336 -0.3218 -0.4606 -0.5646
   67MOL   C24422816   6.840   6.151   7.400  0.0455 -0.3144  0.5815
   67MOL   O24522817   6.939   6.085   7.336  0.3743  0.2497 -0.0048
   67MOL   C24622818   6.784   6.097   7.519  0.0447  0.5575 -0.6914
   67MOL   C24722819   6.664   6.160   7.569  0.1354  0.7784  0.8027
   67MOL   C24822820   6.485   6.484   7.574 -0.4666 -0.0867 -0.4431
   67MOL   H24922821   6.466   6.281   7.643 -1.9921  1.6689 -0.1711
   67MOL   H25022822   6.630   6.402   7.327  0.8080 -0.3210 -0.5887
   67MOL   H25122823   6.815   6.305   7.244  0.1323  2.4825  0.9668
   67MOL   H25222824   6.901   6.032   7.268 -1.0594  0.8600  0.3043
   67MOL   H25322825   6.824   6.010   7.569  0.2446  0.6204 -0.7420
   67MOL   H25422826   6.627   6.125   7.664 -1.2831  1.0783  0.3694
   67MOL   H25522827   6.588   6.512   7.597 -0.8687 -1.1505  2.9088
   67MOL   H25622828   6.444   6.535   7.487  0.1097 -1.2965 -1.4377
   67MOL   C25722829   6.422   6.535   7.703  0.5616  0.0269 -0.4172
   67MOL   C25822830   6.471   6.674   7.728 -0.4719  0.4445  0.3720
   67MOL   C25922831   6.572   6.707   7.820  0.1804 -0.3698  0.0942
   67MOL   C26022832   6.616   6.844   7.842  0.1840  0.7272 -0.2836
   67MOL   C26122833   6.558   6.946   7.761  0.2524  0.3114 -0.0250
   67MOL   O26222834   6.595   7.076   7.777 -0.1343 -0.9500 -0.0442
   67MOL   C26322835   6.459   6.911   7.664 -0.5358 -0.5553 -0.2138
   67MOL   C26422836   6.425   6.775   7.641 -0.4779  0.0002 -0.2043
   67MOL   C26522837   6.264   6.516   7.698  0.2059  1.0141 -0.1992
   67MOL   H26622838   6.461   6.478   7.788 -2.9795  0.3682  1.5507
   67MOL   H26722839   6.613   6.626   7.879 -0.2953  0.6182  1.8241
   67MOL   H26822840   6.695   6.868   7.911  0.2984  0.1672 -0.2171
   67MOL   H26922841   6.544   7.130   7.719  0.4995 -0.5512 -0.2309
   67MOL   H27022842   6.408   6.988   7.608  0.4200  0.7451  0.6685
   67MOL   H27122843   6.363   6.770   7.552  0.0835 -1.1595 -0.5296
   67MOL   H27222844   6.236   6.411   7.693 -0.6629  1.1269  1.8451
   67MOL   H27322845   6.227   6.555   7.604 -2.2994 -0.0693  0.3046
   67MOL   C27422846   6.190   6.578   7.819 -0.4600  0.4828 -0.0715
   67MOL   C27522847   6.252   6.529   7.950  0.5908 -0.1263  0.4101
   67MOL   C27622848   6.289   6.618   0.017  0.7559  0.3265  0.3551
   67MOL   C27722849   6.337   6.571   0.139  0.6045 -0.3931 -0.1037
   67MOL   C27822850   6.360   6.438   0.162 -0.5600 -0.2893 -0.2153
   67MOL   O27922851   6.424   6.393   0.278  0.3091 -0.2120  0.8242
   67MOL   C28022852   6.320   6.344   0.066 -0.7863  0.2409  0.0489
   67MOL   C28122853   6.259   6.392   7.983 -0.5348 -0.2367  0.1454
   67MOL   C28222854   6.037   6.554   7.824 -0.1937  0.2692 -0.1865
   67MOL   H28322855   6.211   6.685   7.818 -1.2507  0.6601 -2.8005
   67MOL   H28422856   6.296   6.726   0.012  1.9779  0.2163 -0.4264
   67MOL   H28522857   6.370   6.646   0.210  0.7365  0.0688 -0.6513
   67MOL   H28622858   6.460   6.306   0.271 -1.0994 -0.9115  2.0725
   67MOL   H28722859   6.333   6.238   0.081  2.2790  0.5257 -0.2749
   67MOL   H28822860   6.232   6.319   7.907  0.0379  1.9610 -2.2364
   67MOL   H28922861   6.024   6.447   7.837 -2.7761  0.7112  1.2668
   67MOL   H29022862   5.999   6.588   7.920  2.2777 -1.7301  1.5646
   67MOL   C29122863   5.958   6.608   7.704 -0.5577 -0.6147  0.4717
   67MOL   C29222864   5.840   6.685   7.754  0.4024  0.4094 -0.1363
   67MOL   C29322865   5.728   6.616   7.804 -0.2189 -0.2961  0.6372
   67MOL   C29422866   5.628   6.691   7.864  0.2172  0.3183  0.1137
   67MOL   C29522867   5.636   6.831   7.876  0.4385 -0.1405  0.8469
   67MOL   O29622868   5.559   6.899   7.954 -0.6791  0.5416 -0.3907
   67MOL   C29722869   5.749   6.899   7.822  0.3080  0.4062 -0.9429
   67MOL   C29822870   5.849   6.825   7.760  0.2682 -0.5496  0.0604
   67MOL   C29922871   5.935   6.504   7.595  0.9857 -0.2612  0.0922
   67MOL   H30022872   6.021   6.690   7.669  0.4809 -1.5374  0.1522
   67MOL   H30122873   5.713   6.509   7.805  1.3400 -0.6259 -2.8462
   67MOL   H30222874   5.553   6.631   7.914 -0.6748  0.5991 -0.8657
   67MOL   H30322875   5.586   6.986   7.983 -0.5316  0.0321  1.0806
   67MOL   H30422876   5.758   7.006   7.812  0.3085  0.2962 -2.1844
   67MOL   H30522877   5.945   6.868   7.734 -0.6014  0.3412 -1.7611
   67MOL   H30622878   5.851   6.439   7.621  0.4968  0.7296  1.0563
   67MOL   H30722879   6.023   6.439   7.590  2.1171  1.3006 -0.5555
   67MOL   C30822880   5.902   6.564   7.454 -0.6100  0.0563 -1.2090
   67MOL   C30922881   5.815   6.476   7.365  0.1073 -0.9975  0.0570
   67MOL   C31022882   5.869   6.358   7.304  0.7009 -0.6933  0.1200
   67MOL   C31122883   5.785   6.279   7.221 -0.0473 -0.1074 -0.6683
   67MOL   C31222884   5.650   6.315   7.205 -0.4756  0.8324 -0.0160
   67MOL   O31322885   5.580   6.241   7.120 -0.5168  0.2200 -0.3222
   67MOL   C31422886   5.598   6.432   7.261  0.7473 -0.0420 -0.2460
   67MOL   C31522887   5.678   6.511   7.349  0.2080  0.3678  0.3578
   67MOL   C31622888   6.020   6.619   7.380 -0.3007  0.2435  0.0298
   67MOL   H31722889   5.834   6.648   7.468  1.0574  1.0284  1.3714
   67MOL   H31822890   5.972   6.338   7.331  1.3180 -0.8127 -2.2055
   67MOL   H31922891   5.833   6.196   7.171 -0.9793  1.0539 -3.6107
   67MOL   H32022892   5.489   6.262   7.106 -0.2939  1.5163  0.1830
   67MOL   H32122893   5.495   6.461   7.247  1.0077  0.7553 -0.4895
   67MOL   H32222894   5.635   6.601   7.387  0.5672  0.3422  0.8316
   67MOL   H32322895   6.105   6.553   7.401 -1.9929 -1.6051  1.3430
   67MOL   H32422896   6.050   6.712   7.429  0.5578 -0.5160  0.9798
   67MOL   C32522897   6.026   6.650   7.228  0.3715 -0.3582 -0.0443
   67MOL   C32622898   6.171   6.654   7.186 -0.2043 -0.4725  0.7132
   67MOL   C32722899   6.248   6.777   7.189 -0.1540 -0.4317  0.0963
   67MOL   C32822900   6.384   6.783   7.159  0.9355  0.1290 -0.1321
   67MOL   C32922901   6.447   6.662   7.128 -0.3573 -0.0059 -0.2288
   67MOL   O33022902   6.571   6.653   7.073 -0.1745 -0.1162  0.0966
   67MOL   C33122903   6.384   6.538   7.134 -0.1786 -0.0734 -0.0644
   67MOL   C33222904   6.243   6.534   7.169  0.0259 -0.6321 -0.1789
   67MOL   C33322905   5.939   6.757   7.178 -0.3744  0.0581 -0.6152
   67MOL   H33422906   6.003   6.555   7.178 -1.8623  0.3361 -0.4180
   67MOL   H33522907   6.195   6.866   7.219  0.2365 -0.7193  1.6795
   67MOL   H33622908   6.434   6.878   7.150 -0.4948  1.1305  2.2051
   67MOL   H33722909   6.592   6.733   7.028  1.2763 -0.8601 -0.5980
   67MOL   H33822910   6.440   6.446   7.129 -1.7243 -1.1445  1.7807
   67MOL   H33922911   6.184   6.444   7.182 -1.7440  0.6554  0.9585
   67MOL   H34022912   5.972   6.860   7.195 -2.0506  0.7033 -1.1845
   67MOL   H34122913   5.838   6.751   7.219 -0.1538 -0.7875 -0.1800
   67MOL   H34222914   5.931   6.756   7.069  1.1588  0.5565 -0.7463
   68MOL     C122915   3.733   2.731   4.147  0.1347 -0.1715  0.9250
   68MOL     C222916   3.781   2.666   4.023 -0.0683  0.0418 -0.0188
   68MOL     C322917   3.723   2.547   3.974  0.6895  0.2193  0.4776
   68MOL     C422918   3.786   2.473   3.872  0.7108 -0.0272  0.5514
   68MOL     C522919   3.912   2.509   3.828  0.2418 -0.3588 -0.7162
   68MOL     O622920   3.974   2.441   3.718  0.4775 -0.2536 -0.4872
   68MOL     C722921   3.972   2.628   3.874  0.7553  0.0992  0.6184
   68MOL     C822922   3.906   2.705   3.970  0.0334  1.0696  0.6322
   68MOL     C922923   3.806   2.695   4.283 -0.1421 -0.1504 -0.5300
   68MOL    H1022924   3.758   2.835   4.125  1.0341 -0.4967  0.4059
   68MOL    H1122925   3.632   2.508   4.019 -1.1269  3.6939 -0.0042
   68MOL    H1222926   3.732   2.386   3.837  0.8301 -0.0829  0.5056
   68MOL    H1322927   4.068   2.434   3.728  0.5537 -2.4606 -2.2785
   68MOL    H1422928   4.067   2.661   3.836  0.3991  0.2634 -0.1222
   68MOL    H1522929   3.959   2.794   4.001 -1.5653  1.4985  2.2270
   68MOL    H1622930   3.902   2.746   4.271 -0.9085  1.7520  1.0241
   68MOL    H1722931   3.838   2.591   4.284  0.4687  0.0372 -0.2700
   68MOL    H1822932   3.624   2.723   4.155  0.1986 -0.3429  1.6229
   68MOL    C1922933   3.739   2.740   4.414  0.2155  0.4655 -0.1558
   68MOL    C2022934   3.703   2.887   4.403 -0.5750 -0.7305 -0.1098
   68MOL    C2122935   3.570   2.925   4.408  0.8618  0.6271 -0.2456
   68MOL    C2222936   3.535   3.064   4.401  0.4009 -0.2817  0.5267
   68MOL    C2322937   3.637   3.162   4.376 -0.2434  0.1685 -0.4866
   68MOL    O2422938   3.611   3.297   4.367 -0.0741  0.1329  0.1594
   68MOL    C2522939   3.768   3.119   4.364 -0.0082  0.2692 -0.2986
   68MOL    C2622940   3.804   2.985   4.382  0.9585  0.0180  0.4544
   68MOL    C2722941   3.818   2.711   4.550  0.5210  0.2717  0.7356
   68MOL    H2822942   3.645   2.690   4.434  0.4042  0.3986  0.5906
   68MOL    H2922943   3.493   2.851   4.426  0.0952  1.1681 -1.2249
   68MOL    H3022944   3.431   3.090   4.393  0.2430 -1.2132 -0.5798
   68MOL    H3122945   3.519   3.313   4.377  0.1051  0.9488  0.5182
   68MOL    H3222946   3.839   3.197   4.340 -1.1423  1.3180 -0.2811
   68MOL    H3322947   3.906   2.952   4.394  1.7946  2.1514 -0.6485
   68MOL    H3422948   3.818   2.808   4.600 -1.4470  1.4624 -1.4486
   68MOL    H3522949   3.924   2.699   4.528  0.0566  0.5772 -1.8097
   68MOL    C3622950   3.758   2.607   4.646  0.3317 -1.1547 -0.6826
   68MOL    C3722951   3.815   2.624   4.791 -0.2982  0.0867 -0.6715
   68MOL    C3822952   3.931   2.556   4.830 -0.2970 -0.0584  0.0362
   68MOL    C3922953   3.982   2.563   4.956  0.0760  0.0722 -0.7964
   68MOL    C4022954   3.911   2.636   5.056 -0.0453  0.4199  0.2717
   68MOL    O4122955   3.951   2.635   5.187 -0.8904 -0.0082 -0.3012
   68MOL    C4222956   3.793   2.696   5.023  0.3246 -0.0542  0.0102
   68MOL    C4322957   3.749   2.691   4.888  0.2212  0.5167 -0.5205
   68MOL    C4422958   3.766   2.464   4.583  0.4181 -0.3142  0.3452
   68MOL    H4522959   3.654   2.639   4.659  0.4226 -0.9611 -0.4276
   68MOL    H4622960   3.985   2.493   4.762  2.2510  0.4887  1.4858
   68MOL    H4722961   4.068   2.507   4.989 -0.4235  0.6741  1.6092
   68MOL    H4822962   3.938   2.721   5.225  1.3232  0.5292 -0.7073
   68MOL    H4922963   3.730   2.741   5.098  0.0008  0.9063 -0.8290
   68MOL    H5022964   3.651   2.733   4.871 -0.7541 -1.3871  0.1293
   68MOL    H5122965   3.760   2.471   4.474  0.0329 -2.2452  0.2260
   68MOL    H5222966   3.865   2.422   4.603 -0.7022 -2.9434  0.6128
   68MOL    C5322967   3.658   2.366   4.636  0.4726 -0.4297  0.0325
   68MOL    C5422968   3.519   2.414   4.606  0.1852 -0.5875  0.0498
   68MOL    C5522969   3.434   2.449   4.714  0.4195 -0.6338 -0.1450
   68MOL    C5622970   3.306   2.509   4.691  0.5993 -0.0320 -1.1352
   68MOL    C5722971   3.266   2.539   4.562 -0.0062  0.4488  0.3146
   68MOL    O5822972   3.149   2.609   4.545 -0.3073  0.1864 -0.5227
   68MOL    C5922973   3.347   2.504   4.451  0.0594 -0.7061 -0.6672
   68MOL    C6022974   3.466   2.442   4.477 -0.6846  0.0578 -0.4562
   68MOL    C6122975   3.689   2.220   4.583  0.0118 -0.4403  0.3508
   68MOL    H6222976   3.677   2.365   4.744  0.4682 -1.1632  0.0296
   68MOL    H6322977   3.463   2.432   4.817 -0.6364 -0.6977  0.1477
   68MOL    H6422978   3.233   2.528   4.769  0.1814 -0.3130 -1.4542
   68MOL    H6522979   3.117   2.642   4.463 -2.0228 -0.2151 -0.0390
   68MOL    H6622980   3.329   2.529   4.347 -0.3778 -2.3185 -0.9843
   68MOL    H6722981   3.532   2.433   4.392  1.1187  1.2910  0.7676
   68MOL    H6822982   3.796   2.208   4.603 -0.0616 -0.7198  0.5779
   68MOL    H6922983   3.678   2.213   4.474  3.3329 -1.3633  0.0058
   68MOL    C7022984   3.625   2.102   4.663  0.5947  0.5262  0.7189
   68MOL    C7122985   3.662   2.097   4.804  0.0363  0.0815  0.4844
   68MOL    C7222986   3.562   2.105   4.898  0.2423 -0.6083 -0.5295
   68MOL    C7322987   3.593   2.132   5.030  0.0708 -0.1331  0.2221
   68MOL    C7422988   3.722   2.150   5.075 -0.0568 -0.1653  0.8695
   68MOL    O7522989   3.744   2.201   5.196  0.4925 -0.3170 -0.6398
   68MOL    C7622990   3.823   2.118   4.981 -0.5233 -0.3328  0.3043
   68MOL    C7722991   3.795   2.079   4.847 -0.0734  0.7058 -0.9098
   68MOL    C7822992   3.650   1.976   4.595 -0.2027  0.4666 -0.0827
   68MOL    H7922993   3.518   2.122   4.655  0.6433  1.3797  2.1136
   68MOL    H8022994   3.463   2.111   4.857  0.9907 -0.5307 -2.4037
   68MOL    H8122995   3.512   2.148   5.100 -0.2620 -2.6575  0.4538
   68MOL    H8222996   3.807   2.271   5.207  0.3287 -0.1460 -0.7929
   68MOL    H8322997   3.925   2.116   5.016  0.0761 -1.0143 -1.3902
   68MOL    H8422998   3.868   2.059   4.769  0.0485  1.0827 -0.8947
   68MOL    H8522999   3.756   1.951   4.582 -0.1428  0.6607  0.0351
   68MOL    H8623000   3.605   1.985   4.496  0.0603  4.4189  0.0998
   68MOL    C8723001   3.595   1.845   4.660 -0.1411 -0.1358  0.0628
   68MOL    C8823002   3.676   1.720   4.625  0.6136  0.3626 -0.3151
   68MOL    C8923003   3.722   1.692   4.493  0.9826 -0.4533 -0.1135
   68MOL    C9023004   3.800   1.578   4.474 -0.0378 -0.7762  0.0311
   68MOL    C9123005   3.831   1.489   4.578 -0.7179  0.1402 -0.6213
   68MOL    O9223006   3.922   1.384   4.564 -0.2872 -0.6519  0.3949
   68MOL    C9323007   3.779   1.516   4.706  0.1281 -0.0177  0.1537
   68MOL    C9423008   3.708   1.631   4.731  0.1377  0.2248 -0.2129
   68MOL    C9523009   3.442   1.827   4.639  0.7351  0.0369  0.3000
   68MOL    H9623010   3.604   1.848   4.768 -0.6623  2.8612  0.0651
   68MOL    H9723011   3.705   1.765   4.415 -1.0004 -0.2043  0.5155
   68MOL    H9823012   3.839   1.559   4.375  0.1794 -0.2655  0.0174
   68MOL    H9923013   3.971   1.387   4.483 -1.7329 -2.1276 -0.5532
   68MOL   H10023014   3.795   1.454   4.793 -0.5259  1.1884  1.1558
   68MOL   H10123015   3.669   1.652   4.830 -0.9551  1.2076 -0.8343
   68MOL   H10223016   3.383   1.902   4.693  0.0360 -0.6041  0.4389
   68MOL   H10323017   3.431   1.833   4.530 -0.6933  2.2929  0.5303
   68MOL   C10423018   3.374   1.692   4.681 -0.0912  0.3360 -0.1004
   68MOL   C10523019   3.233   1.685   4.624 -0.1042 -0.7058 -0.2815
   68MOL   C10623020   3.134   1.761   4.689  0.0637  0.5603 -0.6615
   68MOL   C10723021   2.998   1.735   4.647 -0.0724  0.0707 -0.4335
   68MOL   C10823022   2.957   1.633   4.564 -0.0434  0.2463 -0.5003
   68MOL   O10923023   2.824   1.613   4.539 -0.2044  0.4660  0.2588
   68MOL   C11023024   3.064   1.557   4.500  0.0067 -0.3791 -0.1608
   68MOL   C11123025   3.199   1.586   4.527 -0.5781 -0.2228 -0.3654
   68MOL   C11223026   3.365   1.667   4.835 -0.2249 -1.0002  0.4536
   68MOL   H11323027   3.427   1.612   4.630 -0.7506 -0.5488  0.5791
   68MOL   H11423028   3.150   1.847   4.752  1.7535  0.0868 -0.4153
   68MOL   H11523029   2.924   1.799   4.692 -1.7199 -0.9381 -1.6347
   68MOL   H11623030   2.807   1.597   4.447  1.5271  2.0627 -0.3629
   68MOL   H11723031   3.040   1.473   4.436 -2.7002  0.3510 -0.1705
   68MOL   H11823032   3.269   1.519   4.479 -1.5348  0.3007 -2.5052
   68MOL   H11923033   3.322   1.762   4.867  0.2109 -0.5050 -0.3915
   68MOL   H12023034   3.467   1.668   4.875  0.2578  3.9885 -0.5583
   68MOL   C12123035   3.292   1.547   4.895  0.1482 -0.1035 -0.4691
   68MOL   C12223036   3.381   1.429   4.859  0.6580 -0.0625  0.0342
   68MOL   C12323037   3.501   1.404   4.925 -0.7239 -0.9655  0.3401
   68MOL   C12423038   3.594   1.312   4.880 -0.1239 -0.7072  0.1693
   68MOL   C12523039   3.559   1.238   4.763 -0.2452  0.0546  1.0955
   68MOL   O12623040   3.654   1.168   4.705 -0.6755  0.2338 -0.1566
   68MOL   C12723041   3.436   1.248   4.697  0.0239 -0.1239 -0.2543
   68MOL   C12823042   3.350   1.343   4.748 -0.0142 -1.1842 -0.2722
   68MOL   C12923043   3.262   1.558   5.044 -0.4188  0.2669 -0.2436
   68MOL   H13023044   3.202   1.532   4.836  0.2238 -2.1714 -0.0903
   68MOL   H13123045   3.531   1.471   5.004 -2.4124  0.8109 -0.4971
   68MOL   H13223046   3.687   1.292   4.932 -0.4152 -0.5591  0.7558
   68MOL   H13323047   3.653   1.145   4.614 -0.2271  1.8435 -0.5875
   68MOL   H13423048   3.420   1.196   4.604  0.8593  0.5688 -0.7878
   68MOL   H13523049   3.262   1.362   4.689  0.5524  2.5705 -0.0287
   68MOL   H13623050   3.352   1.568   5.104  0.7438  1.5254 -2.1625
   68MOL   H13723051   3.215   1.461   5.061 -1.1067  0.3416 -1.6379
   68MOL   C13823052   3.164   1.660   5.107  0.1819 -0.2506 -0.0728
   68MOL   C13923053   3.161   1.632   5.257 -0.0404  0.0318 -0.0178
   68MOL   C14023054   3.130   1.508   5.313  0.0463 -0.3221 -0.2745
   68MOL   C14123055   3.132   1.489   5.456 -0.2346 -0.0344  0.0703
   68MOL   C14223056   3.178   1.595   5.540 -0.6364  0.0754  0.6491
   68MOL   O14323057   3.173   1.584   5.674 -0.5651  0.2679 -0.1821
   68MOL   C14423058   3.225   1.714   5.483 -0.2348  0.2560 -0.0669
   68MOL   C14523059   3.202   1.733   5.345 -0.4880 -0.6070 -0.5556
   68MOL   C14623060   3.026   1.662   5.045  0.3568 -0.5463 -0.4240
   68MOL   H14723061   3.198   1.763   5.106 -0.1815 -0.1275 -0.0848
   68MOL   H14823062   3.088   1.422   5.264 -2.7518  0.4777  0.6379
   68MOL   H14923063   3.105   1.390   5.492  2.0982 -0.9378 -0.5777
   68MOL   H15023064   3.176   1.675   5.699  1.9673 -0.3649  2.0119
   68MOL   H15123065   3.275   1.788   5.544  3.3350 -1.2331 -1.0573
   68MOL   H15223066   3.217   1.836   5.315 -1.0989 -0.4980 -0.4919
   68MOL   H15323067   2.953   1.592   5.087  2.1249 -0.3684  3.1528
   68MOL   H15423068   3.041   1.647   4.938  1.0856 -0.1537 -0.3809
   68MOL   C15523069   2.945   1.791   5.034  0.1001 -0.1747 -0.0958
   68MOL   C15623070   2.936   1.852   5.174 -0.0789  0.0983  0.3483
   68MOL   C15723071   2.888   1.772   5.275  0.1896  0.7205  0.3071
   68MOL   C15823072   2.884   1.823   5.409 -0.5066  0.1944 -0.0204
   68MOL   C15923073   2.919   1.958   5.439 -0.5117 -0.2087 -0.3053
   68MOL   O16023074   2.913   1.999   5.565 -0.3961 -0.6531 -0.1215
   68MOL   C16123075   2.956   2.041   5.329 -0.2587 -0.8707 -0.0672
   68MOL   C16223076   2.978   1.989   5.199  0.5863 -0.1562  0.1659
   68MOL   C16323077   2.805   1.766   4.965 -0.4772  0.6547 -0.1889
   68MOL   H16423078   3.007   1.853   4.970 -1.9341  0.4863 -1.4875
   68MOL   H16523079   2.864   1.667   5.261 -0.2378  1.1142 -2.1724
   68MOL   H16623080   2.843   1.749   5.475 -1.3955 -1.4515 -2.3630
   68MOL   H16723081   2.889   1.940   5.634 -2.0658 -0.4532 -0.4982
   68MOL   H16823082   2.983   2.142   5.356  2.7267 -1.5632 -0.3437
   68MOL   H16923083   3.014   2.063   5.128 -1.4023  0.9998  0.3267
   68MOL   H17023084   2.740   1.710   5.032 -0.1443 -0.6720 -0.9538
   68MOL   H17123085   2.818   1.687   4.891  0.2318 -0.3132  0.9371
   68MOL   C17223086   2.743   1.893   4.898 -0.6717  0.0006  0.0347
   68MOL   C17323087   2.712   2.017   4.994 -0.1443  0.4161 -0.3943
   68MOL   C17423088   2.757   2.145   4.963 -0.7151  0.2945  0.4540
   68MOL   C17523089   2.731   2.255   5.053  0.0638  0.0990 -0.3823
   68MOL   C17623090   2.656   2.230   5.172  0.2143 -0.3086  0.1264
   68MOL   O17723091   2.630   2.328   5.263 -0.6240  0.2926 -0.1257
   68MOL   C17823092   2.599   2.103   5.194 -0.1755 -0.1773  0.2468
   68MOL   C17923093   2.627   1.999   5.104  0.0074 -0.2545 -0.3684
   68MOL   C18023094   2.623   1.849   4.815  0.3393  0.1810 -0.0052
   68MOL   H18123095   2.821   1.931   4.832 -2.0987  1.0183 -1.0840
   68MOL   H18223096   2.832   2.156   4.886 -1.5757  0.7494 -0.3299
   68MOL   H18323097   2.759   2.358   5.041 -1.3834  0.9704  3.1179
   68MOL   H18423098   2.639   2.415   5.228 -2.2967  0.1982 -0.8345
   68MOL   H18523099   2.540   2.077   5.281  1.1070 -1.8588  0.6390
   68MOL   H18623100   2.582   1.906   5.135  1.2059 -1.2993 -1.6883
   68MOL   H18723101   2.555   1.798   4.883 -1.7625 -0.1220 -2.2575
   68MOL   H18823102   2.649   1.776   4.739 -2.7495 -0.0513 -0.9055
   68MOL   C18923103   2.552   1.961   4.737  0.5344  0.2244  0.3936
   68MOL   C19023104   2.643   2.005   4.624  0.6426 -0.4780  0.3123
   68MOL   C19123105   2.687   2.138   4.613 -0.3511 -0.3074  0.0878
   68MOL   C19223106   2.764   2.182   4.503 -0.2785  0.0922  0.2995
   68MOL   C19323107   2.801   2.088   4.404 -0.2427  0.0421 -0.3440
   68MOL   O19423108   2.860   2.120   4.285  0.0227  0.3423 -0.0468
   68MOL   C19523109   2.766   1.952   4.413  0.3729  0.0420  0.0159
   68MOL   C19623110   2.686   1.911   4.523  0.1503  0.3935 -0.5688
   68MOL   C19723111   2.419   1.913   4.688  0.1713  0.0363 -0.3464
   68MOL   H19823112   2.534   2.049   4.799 -1.3913 -0.4832  0.8804
   68MOL   H19923113   2.659   2.197   4.700 -0.9347 -0.0465 -0.2753
   68MOL   H20023114   2.779   2.287   4.484  2.1425 -0.6062 -2.0122
   68MOL   H20123115   2.939   2.165   4.313 -1.8837  2.7760  1.6143
   68MOL   H20223116   2.793   1.874   4.344  1.1040  0.0107  0.3358
   68MOL   H20323117   2.646   1.811   4.529  2.5833 -0.6351 -0.6999
   68MOL   H20423118   2.355   1.880   4.770  1.9431  0.0538  1.0739
   68MOL   H20523119   2.435   1.826   4.624 -0.5074 -0.8416  0.6657
   68MOL   C20623120   2.342   2.010   4.591  0.1845  0.3785 -0.0280
   68MOL   C20723121   2.317   2.154   4.649 -0.0344 -0.0733 -0.3083
   68MOL   C20823122   2.315   2.252   4.550 -0.3847 -0.0630 -0.8688
   68MOL   C20923123   2.292   2.379   4.593  0.1749 -0.8983 -0.9492
   68MOL   C21023124   2.261   2.413   4.727 -0.0414 -0.4056 -0.1459
   68MOL   O21123125   2.236   2.539   4.759  0.3333 -0.4678  0.5588
   68MOL   C21223126   2.267   2.313   4.827  0.2800 -0.9077  0.6078
   68MOL   C21323127   2.285   2.177   4.788  0.2722  0.1907  0.2403
   68MOL   C21423128   2.204   1.963   4.544  0.3292  0.1205 -0.3766
   68MOL   H21523129   2.402   2.014   4.500  0.6251 -2.6408  0.0646
   68MOL   H21623130   2.346   2.225   4.450  2.3194 -1.9242  0.4331
   68MOL   H21723131   2.298   2.466   4.529 -1.1977  1.0213  1.4804
   68MOL   H21823132   2.255   2.542   4.852  1.8081  2.1442  0.2236
   68MOL   H21923133   2.257   2.339   4.931 -1.3506  0.3852  0.1612
   68MOL   H22023134   2.289   2.098   4.862 -0.1464  0.7362  0.8527
   68MOL   H22123135   2.150   2.046   4.498  1.8255  1.2680 -0.1140
   68MOL   H22223136   2.159   1.934   4.638 -1.8022  2.1212 -0.7507
   68MOL   C22323137   2.197   1.837   4.453 -1.2006 -0.6189 -0.3124
   68MOL   C22423138   2.266   1.844   4.319  0.5535  0.6478  0.5620
   68MOL   C22523139   2.317   1.962   4.261 -0.2591  0.0124  0.2730
   68MOL   C22623140   2.380   1.971   4.138 -0.4327 -0.1002  0.1010
   68MOL   C22723141   2.414   1.850   4.074  0.3642  0.3354 -0.4605
   68MOL   O22823142   2.498   1.835   3.968 -0.2387 -0.1079  0.5418
   68MOL   C22923143   2.370   1.729   4.133  0.2934  0.1312  0.0058
   68MOL   C23023144   2.297   1.722   4.252 -0.2760 -0.4967 -0.4474
   68MOL   C23123145   2.047   1.793   4.452 -0.1094 -0.1362 -0.1303
   68MOL   H23223146   2.255   1.759   4.501  0.0328  0.0789 -0.6314
   68MOL   H23323147   2.295   2.057   4.308 -0.3940 -0.4928  1.2384
   68MOL   H23423148   2.419   2.062   4.093  3.4396 -0.1320  3.1019
   68MOL   H23523149   2.476   1.903   3.905 -0.3210 -0.6249  0.0062
   68MOL   H23623150   2.392   1.635   4.084 -0.1013 -0.7096  1.3990
   68MOL   H23723151   2.275   1.625   4.294 -0.4269 -1.0063 -1.7063
   68MOL   H23823152   1.985   1.875   4.417 -2.1290  0.3235  4.1269
   68MOL   H23923153   2.019   1.723   4.373  1.7027 -1.8660  0.6889
   68MOL   C24023154   1.993   1.743   4.588 -0.4073  0.2005  0.6145
   68MOL   C24123155   1.914   1.851   4.664 -0.5307 -0.2041 -0.4315
   68MOL   C24223156   1.806   1.922   4.607  0.1575 -0.0271  0.3113
   68MOL   C24323157   1.750   2.027   4.682  0.1956  0.1281 -0.3108
   68MOL   C24423158   1.782   2.057   4.818 -0.1622 -0.3200 -0.0019
   68MOL   O24523159   1.707   2.149   4.888  0.6128 -0.4133 -0.3449
   68MOL   C24623160   1.877   1.974   4.875 -0.1154  0.9707 -0.8506
   68MOL   C24723161   1.956   1.884   4.798  0.0954 -0.0466 -0.1019
   68MOL   C24823162   1.910   1.621   4.583 -0.6154  0.8526  0.9434
   68MOL   H24923163   2.071   1.719   4.661 -0.1074 -0.4169  0.0993
   68MOL   H25023164   1.778   1.898   4.506 -0.0011 -2.5963  0.9133
   68MOL   H25123165   1.679   2.086   4.626 -1.8371 -1.9614 -0.0177
   68MOL   H25223166   1.745   2.181   4.969 -1.3634  1.2698 -0.0250
   68MOL   H25323167   1.884   1.978   4.983 -1.3519  0.9386 -0.7639
   68MOL   H25423168   2.031   1.821   4.844  0.7083  0.7093 -0.0433
   68MOL   H25523169   1.849   1.606   4.672 -1.7971  0.1498  0.0240
   68MOL   H25623170   1.819   1.628   4.523 -1.1055 -1.9873  1.2816
   68MOL   C25723171   1.977   1.485   4.572 -0.1026  0.2299 -0.0774
   68MOL   C25823172   2.097   1.471   4.659 -0.5045  0.1626  0.2150
   68MOL   C25923173   2.224   1.467   4.599  0.0817  0.7274 -0.4808
   68MOL   C26023174   2.344   1.474   4.670 -0.2967  0.1795 -0.3042
   68MOL   C26123175   2.333   1.498   4.810  0.1583 -0.0307 -0.3359
   68MOL   O26223176   2.446   1.528   4.880  0.4252  0.4309  0.4886
   68MOL   C26323177   2.210   1.510   4.877  0.4448  0.5134  0.0184
   68MOL   C26423178   2.088   1.485   4.803 -0.2596  0.4375  0.4582
   68MOL   C26523179   1.874   1.370   4.599  0.8418 -1.1247  0.0937
   68MOL   H26623180   2.014   1.488   4.470 -0.3487  0.7217 -0.1569
   68MOL   H26723181   2.233   1.472   4.492 -1.8832  1.8614 -0.6248
   68MOL   H26823182   2.439   1.466   4.621  0.4845  0.7086  1.0931
   68MOL   H26923183   2.523   1.537   4.828  0.4026  2.3828  0.7577
   68MOL   H27023184   2.218   1.513   4.984  3.4742 -0.5277 -0.1158
   68MOL   H27123185   1.996   1.489   4.859 -0.7643  2.2089 -0.4608
   68MOL   H27223186   1.780   1.386   4.546  1.0773  3.1088  0.8258
   68MOL   H27323187   1.851   1.384   4.704 -0.0032 -1.1626 -0.0796
   68MOL   C27423188   1.925   1.230   4.584 -0.0750  0.0630 -0.1451
   68MOL   C27523189   1.980   1.187   4.442  0.0916  0.8198  0.5324
   68MOL   C27623190   2.107   1.125   4.438  0.4569 -0.3940  0.4950
   68MOL   C27723191   2.167   1.091   4.314  0.0237 -0.1485 -0.6159
   68MOL   C27823192   2.090   1.096   4.195  0.2892  0.3414  0.1894
   68MOL   O27923193   2.150   1.047   4.088 -0.4832  0.3493 -0.3875
   68MOL   C28023194   1.958   1.137   4.203  0.0308  0.0329 -0.3836
   68MOL   C28123195   1.902   1.186   4.322  0.1930 -0.1579 -0.1785
   68MOL   C28223196   1.824   1.123   4.644  0.3211  0.4274 -0.2593
   68MOL   H28323197   2.005   1.233   4.658  0.3334  0.6787 -0.6036
   68MOL   H28423198   2.172   1.127   4.524  0.6072  2.7383  0.3537
   68MOL   H28523199   2.271   1.061   4.316  0.5403  1.5868  0.7405
   68MOL   H28623200   2.096   1.045   4.010 -1.3847  0.6849  0.2153
   68MOL   H28723201   1.892   1.131   4.117  0.1321  1.2181 -0.5523
   68MOL   H28823202   1.801   1.223   4.315  0.2046  0.3457  2.0817
   68MOL   H28923203   1.729   1.157   4.603 -0.4589 -0.2667  0.9826
   68MOL   H29023204   1.836   1.027   4.594  0.6323  0.5119 -0.3532
   68MOL   C29123205   1.801   1.104   4.796  0.4601  0.3079  0.0274
   68MOL   C29223206   1.928   1.051   4.864  0.1428  0.1656 -0.0282
   68MOL   C29323207   1.949   0.910   4.877 -0.1647  0.3258 -0.5353
   68MOL   C29423208   2.055   0.855   4.955 -0.0461 -0.1430 -0.7500
   68MOL   C29523209   2.147   0.945   5.015  0.1559 -0.7691  0.2208
   68MOL   O29623210   2.253   0.884   5.080 -0.0045  0.3137 -0.1435
   68MOL   C29723211   2.132   1.086   4.999  0.8078  0.2764 -0.4567
   68MOL   C29823212   2.024   1.138   4.931 -0.5495  0.4103  0.4179
   68MOL   C29923213   1.678   1.014   4.830  0.1155  0.4022 -0.6659
   68MOL   H30023214   1.788   1.196   4.852  0.3140 -0.4617  1.2836
   68MOL   H30123215   1.888   0.834   4.832 -0.0206  0.4389 -0.9247
   68MOL   H30223216   2.073   0.751   4.976  2.5090  0.3229 -0.4550
   68MOL   H30323217   2.295   0.953   5.130 -2.8261  1.5001  0.6993
   68MOL   H30423218   2.211   1.151   5.033  0.4033 -0.2051  1.4786
   68MOL   H30523219   2.011   1.244   4.913 -0.9298  0.6799  2.1878
   68MOL   H30623220   1.690   0.917   4.781  0.3521 -0.4147  0.9869
   68MOL   H30723221   1.595   1.065   4.779 -0.4576 -1.5755 -1.7626
   68MOL   C30823222   1.654   0.992   4.980  0.3618 -0.1014  0.4408
   68MOL   C30923223   1.578   0.859   4.997  0.3942  0.1120 -0.3404
   68MOL   C31023224   1.647   0.743   5.040  0.2786  0.5834 -0.4836
   68MOL   C31123225   1.578   0.619   5.054  0.5270 -0.6375  0.0298
   68MOL   C31223226   1.445   0.613   5.018  0.5547  0.1061  0.6882
   68MOL   O31323227   1.383   0.497   5.030 -0.1031 -0.1813  0.5914
   68MOL   C31423228   1.377   0.722   4.970 -0.8001  0.7552  0.2362
   68MOL   C31523229   1.445   0.847   4.959  0.3179  0.7262 -0.7349
   68MOL   C31623230   1.588   1.115   5.049 -0.0292 -1.0479 -0.2222
   68MOL   H31723231   1.747   0.977   5.034  0.6070  0.7990  0.2760
   68MOL   H31823232   1.753   0.760   5.053  0.3471  1.2411 -1.8233
   68MOL   H31923233   1.640   0.534   5.078 -0.1982 -0.3966  2.9351
   68MOL   H32023234   1.328   0.500   5.107  2.1777 -2.4556  2.3914
   68MOL   H32123235   1.273   0.718   4.941 -1.1909  0.3256  1.6392
   68MOL   H32223236   1.400   0.933   4.910  0.8834  2.8733  2.4026
   68MOL   H32323237   1.488   1.130   5.007 -0.6990 -0.6494  1.4227
   68MOL   H32423238   1.645   1.204   5.022 -1.5073  0.4088  1.2712
   68MOL   C32523239   1.574   1.115   5.194  0.2926 -0.3133  0.7271
   68MOL   C32623240   1.485   1.233   5.245  0.7910 -0.9361 -0.1649
   68MOL   C32723241   1.352   1.205   5.287  0.0162 -0.1426 -0.4961
   68MOL   C32823242   1.275   1.304   5.350  0.0211 -0.0459  0.4274
   68MOL   C32923243   1.325   1.433   5.379 -0.0628  0.2959  0.7878
   68MOL   O33023244   1.248   1.532   5.436 -0.4560 -0.3519  0.1187
   68MOL   C33123245   1.458   1.463   5.338  0.7129 -0.1281  0.4076
   68MOL   C33223246   1.538   1.358   5.285 -0.3830 -0.3439 -0.5232
   68MOL   C33323247   1.711   1.116   5.264  0.3768 -0.0197  0.6712
   68MOL   H33423248   1.523   1.020   5.210  0.9690 -1.2388 -2.3508
   68MOL   H33523249   1.303   1.110   5.272  0.8366 -0.3173 -2.2331
   68MOL   H33623250   1.172   1.288   5.381 -0.3491 -0.4152 -0.9354
   68MOL   H33723251   1.155   1.522   5.449 -0.2500  1.8285  4.2529
   68MOL   H33823252   1.495   1.559   5.369 -2.2336  0.6396  1.6452
   68MOL   H33923253   1.642   1.379   5.265 -0.6502 -1.5852 -3.4400
   68MOL   H34023254   1.774   1.201   5.238  0.1992  0.7213  2.5375
   68MOL   H34123255   1.780   1.032   5.252 -0.0394 -0.1939 -0.5510
   68MOL   H34223256   1.706   1.126   5.373  0.2516 -0.0783  0.6709
   69MOL     C123257   0.903   5.926   3.090  0.5568  0.0081  1.0863
   69MOL     C223258   0.977   5.840   3.196 -0.1334 -0.4389  0.2159
   69MOL     C323259   1.045   5.718   3.174  0.1105  0.0726 -0.2330
   69MOL     C423260   1.117   5.650   3.280 -0.0958 -0.4069  0.8086
   69MOL     C523261   1.123   5.716   3.405  0.0108  0.4300  0.6402
   69MOL     O623262   1.197   5.667   3.510  0.0501 -0.3835 -0.1440
   69MOL     C723263   1.055   5.835   3.428  0.3519 -0.1694 -0.9078
   69MOL     C823264   0.979   5.897   3.323  0.7200  0.2603 -0.7458
   69MOL     C923265   0.984   6.041   3.019  0.2854 -0.4083 -0.0201
   69MOL    H1023266   0.872   5.857   3.012  0.0142  3.3201 -1.7492
   69MOL    H1123267   1.039   5.679   3.074  1.4165 -1.2286  0.1751
   69MOL    H1223268   1.171   5.558   3.260  0.9782 -0.1199  2.2989
   69MOL    H1323269   1.234   5.581   3.500  0.4665 -0.4019  1.4425
   69MOL    H1423270   1.060   5.877   3.528 -0.6979  1.7148 -1.6248
   69MOL    H1523271   0.925   5.989   3.344 -0.0045 -0.2440 -0.3520
   69MOL    H1623272   1.064   6.063   3.090  0.7858 -1.6596 -0.1855
   69MOL    H1723273   0.915   6.125   3.011 -0.9966 -1.3121  1.2687
   69MOL    H1823274   0.807   5.959   3.129  0.9032  1.6232  0.6436
   69MOL    C1923275   1.025   6.015   2.872 -0.3113  0.1688  0.4010
   69MOL    C2023276   1.118   5.895   2.854 -0.7903  0.0109 -0.3744
   69MOL    C2123277   1.090   5.801   2.755  0.2717  0.0991  0.1604
   69MOL    C2223278   1.159   5.678   2.753  0.2092  0.5418 -0.2164
   69MOL    C2323279   1.260   5.649   2.842  0.4406  0.2336  0.4884
   69MOL    O2423280   1.327   5.532   2.831 -0.3973  0.7552 -0.4766
   69MOL    C2523281   1.295   5.741   2.943  0.5126  0.0891 -0.3194
   69MOL    C2623282   1.226   5.871   2.948  0.4069  0.6628  0.1839
   69MOL    C2723283   1.083   6.140   2.809  0.5243  0.4254 -0.1946
   69MOL    H2823284   0.933   5.987   2.819 -0.3867  0.9877  0.0914
   69MOL    H2923285   1.001   5.802   2.693  0.1945 -0.8285  0.2397
   69MOL    H3023286   1.134   5.600   2.683 -0.7445 -0.6810  1.4571
   69MOL    H3123287   1.355   5.513   2.742 -0.8592  1.1698 -0.7152
   69MOL    H3223288   1.371   5.717   3.016  2.0924  0.5675 -1.7797
   69MOL    H3323289   1.248   5.952   3.016  0.9767  1.3431 -0.7892
   69MOL    H3423290   1.179   6.161   2.854  1.7857 -1.1688 -2.0523
   69MOL    H3523291   1.015   6.225   2.820  1.5211  1.1228  0.6191
   69MOL    C3623292   1.104   6.126   2.650 -0.2569 -0.0870  0.1591
   69MOL    C3723293   1.194   6.238   2.612 -0.5813 -0.4527 -0.4549
   69MOL    C3823294   1.315   6.219   2.544  0.1896  0.0754  0.4499
   69MOL    C3923295   1.399   6.321   2.504  0.6152  0.0874 -0.5255
   69MOL    C4023296   1.374   6.455   2.534 -0.2471 -0.6188  0.4692
   69MOL    O4123297   1.446   6.558   2.467  0.0928 -0.1655  0.4727
   69MOL    C4223298   1.265   6.481   2.620  0.3532  0.6152 -0.1788
   69MOL    C4323299   1.176   6.374   2.654  0.3253  0.1383  0.1561
   69MOL    C4423300   0.975   6.131   2.558 -0.5581 -0.9696 -0.2326
   69MOL    H4523301   1.160   6.033   2.640  1.9059  1.1419  0.4604
   69MOL    H4623302   1.349   6.120   2.516 -1.3060  0.3223 -2.3795
   69MOL    H4723303   1.489   6.287   2.455  1.2884  0.2677  0.5594
   69MOL    H4823304   1.510   6.526   2.406  0.1532  1.3839 -0.3017
   69MOL    H4923305   1.236   6.581   2.647 -0.9223  0.2091 -0.0230
   69MOL    H5023306   1.087   6.397   2.710  1.1699 -2.7603  2.8278
   69MOL    H5123307   0.886   6.089   2.606 -1.2254  2.8572  2.0362
   69MOL    H5223308   0.939   6.233   2.542  0.1807 -0.8958 -1.5175
   69MOL    C5323309   0.989   6.073   2.411 -0.0861  0.5274 -0.0053
   69MOL    C5423310   1.012   5.922   2.404  0.4444  0.1413 -0.4726
   69MOL    C5523311   0.908   5.833   2.445  0.8648  0.0077  0.3187
   69MOL    C5623312   0.936   5.693   2.449  0.4954  0.0317 -0.0018
   69MOL    C5723313   1.058   5.643   2.410 -0.5319  0.3285 -0.3377
   69MOL    O5823314   1.081   5.511   2.420 -0.0245  0.4510 -0.1275
   69MOL    C5923315   1.162   5.734   2.381 -0.5583 -0.1367 -0.1140
   69MOL    C6023316   1.139   5.875   2.374  0.5603 -0.0025 -0.0485
   69MOL    C6123317   0.861   6.114   2.341  0.4265  0.2336  0.0745
   69MOL    H6223318   1.071   6.117   2.354  0.5482 -0.4124  0.1787
   69MOL    H6323319   0.818   5.879   2.483  0.7926  0.6584 -0.6413
   69MOL    H6423320   0.869   5.619   2.489  1.3680 -0.8614 -0.1655
   69MOL    H6523321   1.007   5.452   2.415  1.4559 -1.4043 -0.6014
   69MOL    H6623322   1.260   5.694   2.362 -0.1254  0.8382  0.0067
   69MOL    H6723323   1.211   5.952   2.353  0.9181 -0.3315 -0.0509
   69MOL    H6823324   0.859   6.223   2.347  0.2670  0.2578 -0.3760
   69MOL    H6923325   0.777   6.091   2.406 -0.0911 -0.7428 -0.9062
   69MOL    C7023326   0.820   6.068   2.194  0.4614  0.0501 -0.1857
   69MOL    C7123327   0.930   6.103   2.096 -0.8008  1.2260  0.0164
   69MOL    C7223328   1.021   6.003   2.058 -0.3681 -0.1685  0.1722
   69MOL    C7323329   1.133   6.036   1.979  0.6765 -0.6368  0.1731
   69MOL    C7423330   1.145   6.164   1.924  0.0557  0.6294 -0.2085
   69MOL    O7523331   1.250   6.203   1.842 -0.1923 -0.1309 -0.1534
   69MOL    C7623332   1.051   6.258   1.959 -0.0662  0.5314  0.6492
   69MOL    C7723333   0.948   6.232   2.044 -0.2776  0.1368  0.5373
   69MOL    C7823334   0.682   6.130   2.155  0.3465  0.4267  0.3525
   69MOL    H7923335   0.802   5.960   2.191  1.0179 -0.0600  0.3619
   69MOL    H8023336   1.011   5.909   2.109  0.7221 -0.3844  0.0028
   69MOL    H8123337   1.213   5.968   1.956  1.0335  0.8599 -3.2568
   69MOL    H8223338   1.222   6.249   1.764  0.8403 -0.1602 -0.5474
   69MOL    H8323339   1.068   6.360   1.927  0.7937 -0.9213 -3.8342
   69MOL    H8423340   0.871   6.307   2.058 -0.3755 -0.1871  1.8084
   69MOL    H8523341   0.681   6.233   2.189 -0.6727  0.7063 -0.5049
   69MOL    H8623342   0.603   6.074   2.204  0.5210 -2.4072 -2.4444
   69MOL    C8723343   0.647   6.120   1.999  0.5750  0.2970 -0.6135
   69MOL    C8823344   0.525   6.205   1.985 -0.4399 -0.6070 -0.1662
   69MOL    C8923345   0.518   6.309   1.891  0.6716  0.0945  0.4634
   69MOL    C9023346   0.421   6.410   1.889  0.4469 -0.1180 -0.8988
   69MOL    C9123347   0.310   6.392   1.974  0.9149 -0.2305  0.4080
   69MOL    O9223348   0.219   6.488   1.994  0.2495  0.1961  0.0863
   69MOL    C9323349   0.303   6.277   2.058  0.0143 -0.0524 -0.4674
   69MOL    C9423350   0.410   6.181   2.064 -0.3221  0.6604  0.2362
   69MOL    C9523351   0.631   5.973   1.946 -0.2691  0.1100 -0.1070
   69MOL    H9623352   0.728   6.171   1.946  0.0036  2.5946  0.6376
   69MOL    H9723353   0.600   6.318   1.822  0.6246 -1.3177  0.2007
   69MOL    H9823354   0.424   6.503   1.834  0.2710  0.8772  0.7353
   69MOL    H9923355   0.260   6.573   1.985  0.0672  0.4114  1.1684
   69MOL   H10023356   0.219   6.280   2.126  1.4765  0.5774  1.3522
   69MOL   H10123357   0.412   6.098   2.133 -1.8904 -1.1446 -1.8184
   69MOL   H10223358   0.722   5.917   1.969  0.3729  1.3310  0.3945
   69MOL   H10323359   0.545   5.932   1.999  0.2336 -0.7047  0.0815
   69MOL   C10423360   0.608   5.966   1.793  0.4605  0.2907  0.0304
   69MOL   C10523361   0.547   5.831   1.756  0.7452 -0.1566  0.0099
   69MOL   C10623362   0.481   5.830   1.629 -0.0870 -0.0949  0.1702
   69MOL   C10723363   0.430   5.710   1.572  0.1356 -0.4760  0.1612
   69MOL   C10823364   0.430   5.593   1.655 -0.3390  0.3510  0.1289
   69MOL   O10923365   0.377   5.479   1.607  0.2876  1.0955 -0.1497
   69MOL   C11023366   0.485   5.597   1.781  0.1378  0.3172 -0.3700
   69MOL   C11123367   0.542   5.713   1.831  0.6622  0.0111 -0.3515
   69MOL   C11223368   0.731   5.998   1.713  0.1274  0.5830  0.6588
   69MOL   H11323369   0.537   6.043   1.763 -1.2298 -1.0993  0.3851
   69MOL   H11423370   0.476   5.920   1.568  1.0370 -0.3553 -0.3136
   69MOL   H11523371   0.393   5.703   1.471 -2.5109 -0.0153  1.0511
   69MOL   H11623372   0.320   5.488   1.533  1.8224 -1.5142 -1.7187
   69MOL   H11723373   0.485   5.504   1.835 -0.5435 -0.7168 -2.1289
   69MOL   H11823374   0.580   5.707   1.931 -0.1526 -0.4374 -0.0647
   69MOL   H11923375   0.793   6.075   1.760 -0.5393 -0.1234  2.7335
   69MOL   H12023376   0.692   6.045   1.623 -0.5018  0.8355  1.0627
   69MOL   C12123377   0.832   5.882   1.665 -0.6662 -0.3830 -0.5710
   69MOL   C12223378   0.929   5.930   1.560 -0.6827 -0.0002 -0.7842
   69MOL   C12323379   1.027   6.037   1.584  0.2612  0.5146 -0.1916
   69MOL   C12423380   1.103   6.088   1.478  0.4252 -0.2997 -0.2516
   69MOL   C12523381   1.087   6.033   1.353 -0.7344  0.5791 -0.1490
   69MOL   O12623382   1.161   6.086   1.250  0.1699  0.0850 -1.2940
   69MOL   C12723383   0.997   5.930   1.325  0.4235 -0.2374 -0.0538
   69MOL   C12823384   0.912   5.885   1.429 -0.2009  0.4742 -0.1274
   69MOL   C12923385   0.911   5.818   1.782  0.0440 -0.5681  0.0794
   69MOL   H13023386   0.775   5.805   1.613  0.5577 -1.1913 -0.7290
   69MOL   H13123387   1.051   6.079   1.681 -0.7272 -0.9355  0.7024
   69MOL   H13223388   1.175   6.166   1.496  0.7582 -0.4377 -0.9542
   69MOL   H13323389   1.223   6.153   1.275  0.5598 -1.0401  0.9060
   69MOL   H13423390   1.001   5.881   1.229 -1.2679  1.9374 -1.2772
   69MOL   H13523391   0.842   5.808   1.399 -0.4336  0.8304 -0.5079
   69MOL   H13623392   0.838   5.775   1.850 -1.6102 -0.5155 -1.6178
   69MOL   H13723393   0.964   5.900   1.829  1.0883 -1.9216  1.2970
   69MOL   C13823394   1.009   5.706   1.741 -0.1337 -0.1040  0.1806
   69MOL   C13923395   0.954   5.597   1.646  0.2732  0.6134 -0.3551
   69MOL   C14023396   0.831   5.535   1.677  0.1530 -0.4028  0.3393
   69MOL   C14123397   0.764   5.456   1.579  0.0176  0.2701  1.1385
   69MOL   C14223398   0.832   5.435   1.453 -0.1087 -0.2791 -0.6098
   69MOL   O14323399   0.771   5.350   1.364 -0.3245  0.2636  0.2054
   69MOL   C14423400   0.960   5.481   1.429 -0.1647 -0.5041 -0.2779
   69MOL   C14523401   1.021   5.557   1.528  0.0480 -0.5427  0.3327
   69MOL   C14623402   1.092   5.665   1.866 -0.6197  0.4921  0.1213
   69MOL   H14723403   1.076   5.766   1.679 -0.2225 -0.4391 -0.2447
   69MOL   H14823404   0.774   5.572   1.760 -2.0122  2.9809 -2.4941
   69MOL   H14923405   0.666   5.418   1.602 -0.5232 -0.0316 -1.4474
   69MOL   H15023406   0.774   5.379   1.274  1.2638  1.7447  0.7043
   69MOL   H15123407   1.009   5.452   1.337  1.9291  0.7304  0.4321
   69MOL   H15223408   1.118   5.596   1.499  0.4225 -0.9486  1.0318
   69MOL   H15323409   1.049   5.571   1.900 -0.0743  0.2952  0.2680
   69MOL   H15423410   1.064   5.721   1.955  1.0648  0.9899  0.3486
   69MOL   C15523411   1.251   5.663   1.842  0.2809 -0.9829  0.4915
   69MOL   C15623412   1.299   5.565   1.743 -0.1912 -0.6884  0.4665
   69MOL   C15723413   1.387   5.609   1.641  0.5432  0.3053 -0.7787
   69MOL   C15823414   1.424   5.514   1.545 -0.4928 -0.1979  0.4807
   69MOL   C15923415   1.388   5.381   1.546 -0.0898  0.3871 -0.5786
   69MOL   O16023416   1.432   5.299   1.447 -0.1689  0.0271 -0.0662
   69MOL   C16123417   1.318   5.334   1.657  0.6626  0.6688 -0.2368
   69MOL   C16223418   1.274   5.423   1.757 -0.0042 -0.5684  0.3812
   69MOL   C16323419   1.327   5.662   1.977  0.0813 -0.9399  0.9021
   69MOL   H16423420   1.257   5.764   1.801 -1.2713 -0.6502  1.0394
   69MOL   H16523421   1.432   5.706   1.630 -1.3797  1.1861 -1.0957
   69MOL   H16623422   1.487   5.549   1.465  0.4651  0.1946  1.3939
   69MOL   H16723423   1.400   5.210   1.448 -0.3488  0.0829 -0.5391
   69MOL   H16823424   1.312   5.226   1.662  0.9461  0.4974 -2.9280
   69MOL   H16923425   1.221   5.390   1.845  0.1684 -0.0313  0.6881
   69MOL   H17023426   1.318   5.573   2.040 -1.6938 -1.8512 -0.5546
   69MOL   H17123427   1.288   5.747   2.032  1.6636  0.2740  0.1819
   69MOL   C17223428   1.477   5.693   1.959 -0.2176 -0.0062  0.5581
   69MOL   C17323429   1.555   5.662   2.078  0.0120  0.2338 -0.0066
   69MOL   C17423430   1.520   5.729   2.196  0.7677  0.3203 -0.6343
   69MOL   C17523431   1.591   5.697   2.315  0.3044  0.0430  0.2681
   69MOL   C17623432   1.691   5.597   2.315  0.6489  0.0813 -0.2945
   69MOL   O17723433   1.750   5.579   2.433 -0.1970  0.3073 -0.0540
   69MOL   C17823434   1.737   5.542   2.188 -0.7760 -0.1979  0.2519
   69MOL   C17923435   1.665   5.575   2.073  0.7266 -0.3295  0.2096
   69MOL   C18023436   1.509   5.838   1.901 -0.1095 -0.1560 -0.6387
   69MOL   H18123437   1.501   5.617   1.885 -1.3833 -1.2826  1.4621
   69MOL   H18223438   1.436   5.796   2.191  1.3255  0.8754 -3.4964
   69MOL   H18323439   1.563   5.753   2.403 -3.2387  0.4422 -1.0116
   69MOL   H18423440   1.821   5.517   2.430 -0.3454 -0.0067  2.3781
   69MOL   H18523441   1.820   5.474   2.175  0.2967  0.5043  3.1673
   69MOL   H18623442   1.697   5.534   1.978 -3.2835 -0.6951 -1.0489
   69MOL   H18723443   1.500   5.919   1.974 -0.8723  0.4086 -1.3530
   69MOL   H18823444   1.439   5.858   1.820 -0.1145 -0.1593 -0.6353
   69MOL   C18923445   1.662   5.846   1.847 -0.2243 -0.1847  0.2576
   69MOL   C19023446   1.673   5.824   1.698 -0.1507 -0.1277  0.3272
   69MOL   C19123447   1.715   5.704   1.655 -0.2659 -0.0232  0.0621
   69MOL   C19223448   1.738   5.695   1.521 -0.1242  0.8651 -0.3191
   69MOL   C19323449   1.730   5.802   1.432  0.2707  0.7043  0.1578
   69MOL   O19423450   1.759   5.783   1.301  0.6789 -0.4752 -0.7668
   69MOL   C19523451   1.687   5.930   1.478 -0.2413 -0.9877  0.0603
   69MOL   C19623452   1.659   5.934   1.618 -0.9462 -0.8386 -0.2866
   69MOL   C19723453   1.734   5.974   1.897  0.0997 -0.8688  0.6227
   69MOL   H19823454   1.719   5.768   1.898 -1.5849 -0.9009  0.6951
   69MOL   H19923455   1.729   5.623   1.725 -1.6796  0.7287  1.2380
   69MOL   H20023456   1.767   5.597   1.487 -1.1698  0.0365  1.1352
   69MOL   H20123457   1.769   5.869   1.261 -2.5245 -0.4935 -1.7720
   69MOL   H20223458   1.684   6.019   1.417  1.0492  0.2781  1.7984
   69MOL   H20323459   1.631   6.032   1.655  0.1274 -0.3079 -0.8747
   69MOL   H20423460   1.752   5.968   2.004 -1.0589  1.2439  0.9779
   69MOL   H20523461   1.668   6.059   1.875  0.3979 -1.0915 -1.2604
   69MOL   C20623462   1.879   6.001   1.854 -0.7959  0.1711 -0.0710
   69MOL   C20723463   1.961   5.880   1.841 -0.2574  0.3835  0.4225
   69MOL   C20823464   1.994   5.792   1.947 -0.0711  0.0374  0.5798
   69MOL   C20923465   2.079   5.682   1.940 -0.4817  0.2412  0.4727
   69MOL   C21023466   2.127   5.647   1.814  0.2569 -0.5301  0.1503
   69MOL   O21123467   2.214   5.545   1.803  0.3344  0.0422 -0.5028
   69MOL   C21223468   2.081   5.717   1.700  0.2660 -1.4116 -0.0416
   69MOL   C21323469   2.010   5.843   1.713  0.0307  0.5053 -0.3493
   69MOL   C21423470   1.947   6.109   1.941  0.0705 -0.2964 -0.4035
   69MOL   H21523471   1.866   6.048   1.757 -0.2996  3.2083  1.2337
   69MOL   H21623472   1.954   5.818   2.044  0.8286 -1.0281  1.2454
   69MOL   H21723473   2.089   5.622   2.030  1.8178  1.3070  0.9425
   69MOL   H21823474   2.249   5.517   1.886  2.8243 -0.7285 -1.7521
   69MOL   H21923475   2.115   5.682   1.604 -2.5914 -0.2870 -1.5167
   69MOL   H22023476   1.989   5.897   1.621 -0.3320 -0.4931 -0.8604
   69MOL   H22123477   1.943   6.084   2.048 -0.0455 -0.8423 -0.5299
   69MOL   H22223478   1.890   6.201   1.930 -1.9882 -1.7540 -2.2593
   69MOL   C22323479   2.087   6.163   1.887 -0.4677 -0.0260 -0.3175
   69MOL   C22423480   2.196   6.073   1.939 -0.0390 -0.6083 -0.1186
   69MOL   C22523481   2.283   6.006   1.851 -0.7321 -0.0980  0.0677
   69MOL   C22623482   2.378   5.920   1.897  0.5671 -0.1805 -0.4136
   69MOL   C22723483   2.399   5.901   2.033 -0.3850  0.3338  0.1707
   69MOL   O22823484   2.502   5.825   2.070  0.1281  0.1358  0.1993
   69MOL   C22923485   2.325   5.969   2.133  0.3061 -0.0556 -0.7797
   69MOL   C23023486   2.222   6.053   2.084  0.2988 -0.2115  1.1593
   69MOL   C23123487   2.112   6.315   1.926 -0.1571  0.1883  0.0566
   69MOL   H23223488   2.090   6.147   1.780 -0.2230 -2.6414  0.0625
   69MOL   H23323489   2.262   6.011   1.745 -2.5043  1.0423  0.4482
   69MOL   H23423490   2.440   5.881   1.817  1.1131 -0.7916  0.2946
   69MOL   H23523491   2.529   5.824   2.161 -0.5998 -0.8258  0.4094
   69MOL   H23623492   2.338   5.944   2.237  0.4778  0.8746 -0.5764
   69MOL   H23723493   2.158   6.103   2.156 -0.9558 -1.4338  0.8992
   69MOL   H23823494   2.076   6.328   2.028 -1.7396 -2.3348 -0.1537
   69MOL   H23923495   2.219   6.332   1.930 -0.1999  0.3595  0.4942
   69MOL   C24023496   2.064   6.412   1.812  0.3677  0.3801 -0.1826
   69MOL   C24123497   1.930   6.381   1.763 -0.0995 -0.3262 -1.0034
   69MOL   C24223498   1.909   6.306   1.645 -0.5666  0.1345 -0.0509
   69MOL   C24323499   1.784   6.269   1.603 -0.0228  1.0456 -0.2213
   69MOL   C24423500   1.666   6.323   1.658 -0.0304  0.2509 -0.7036
   69MOL   O24523501   1.544   6.290   1.615  0.2647 -0.2252 -0.6601
   69MOL   C24623502   1.688   6.408   1.769  0.1982  0.6838 -0.5967
   69MOL   C24723503   1.816   6.435   1.821 -0.0152  0.2638 -0.6040
   69MOL   C24823504   2.076   6.551   1.867 -1.2178  0.0541 -0.6802
   69MOL   H24923505   2.129   6.401   1.726  1.5537  0.0357  0.7523
   69MOL   H25023506   1.990   6.254   1.595 -1.5636  0.8323 -2.4618
   69MOL   H25123507   1.792   6.196   1.524  3.5972 -0.6090  1.5396
   69MOL   H25223508   1.494   6.313   1.691  1.0036  1.0578 -0.5464
   69MOL   H25323509   1.606   6.460   1.817  1.1235 -0.6717  2.5348
   69MOL   H25423510   1.816   6.500   1.908 -0.2818 -0.6035  0.0483
   69MOL   H25523511   2.018   6.569   1.957  0.8069 -2.4201  1.1978
   69MOL   H25623512   2.179   6.568   1.899 -0.7667 -0.8236 -1.6608
   69MOL   C25723513   2.045   6.660   1.759 -0.0774 -0.7608 -0.0382
   69MOL   C25823514   2.067   6.792   1.825 -0.0905 -0.1099  0.6541
   69MOL   C25923515   1.954   6.844   1.893  0.1377 -0.0589  0.0628
   69MOL   C26023516   1.962   6.971   1.950  0.0162  0.2403 -0.0544
   69MOL   C26123517   2.073   7.055   1.939  0.3326  0.0565 -0.4218
   69MOL   O26223518   2.076   7.184   1.972  0.2593 -0.2865 -0.2100
   69MOL   C26323519   2.181   7.004   1.864 -0.5432 -0.4202 -0.0126
   69MOL   C26423520   2.182   6.872   1.817 -0.0116 -0.9817  0.5104
   69MOL   C26523521   2.105   6.649   1.614  0.8177 -0.0279 -0.1658
   69MOL   H26623522   1.938   6.656   1.739 -0.7066  2.0934  2.3641
   69MOL   H26723523   1.872   6.776   1.910 -1.0815  1.7335  1.6726
   69MOL   H26823524   1.876   7.011   2.003 -0.1928 -0.2128 -0.0441
   69MOL   H26923525   2.033   7.202   2.054  0.0351 -1.1734 -0.1341
   69MOL   H27023526   2.262   7.075   1.857 -1.5505  0.6950 -0.8028
   69MOL   H27123527   2.271   6.848   1.761  0.2073 -0.2018  0.5248
   69MOL   H27223528   2.083   6.548   1.577 -1.5604  0.3675  0.1309
   69MOL   H27323529   2.214   6.651   1.623  1.0551 -3.0395 -1.6039
   69MOL   C27423530   2.054   6.748   1.505  0.1816  0.2318  0.1533
   69MOL   C27523531   1.910   6.726   1.484  0.4304  0.0820  0.1248
   69MOL   C27623532   1.822   6.815   1.543 -0.0642 -0.1158 -0.5806
   69MOL   C27723533   1.682   6.790   1.531  0.4704  0.4056  0.2528
   69MOL   C27823534   1.636   6.668   1.478  0.8378  0.4877 -0.5206
   69MOL   O27923535   1.503   6.645   1.467 -0.2038 -0.1554 -0.1642
   69MOL   C28023536   1.729   6.572   1.423 -0.1074 -0.2711 -0.1146
   69MOL   C28123537   1.864   6.603   1.426  0.1723 -0.2983 -0.3232
   69MOL   C28223538   2.141   6.735   1.380  0.2332 -1.0004 -0.0657
   69MOL   H28323539   2.063   6.849   1.545 -1.9471  1.4535 -2.2838
   69MOL   H28423540   1.858   6.907   1.587  0.5602  0.2346 -1.8126
   69MOL   H28523541   1.617   6.865   1.573 -0.9380 -1.1243  0.8488
   69MOL   H28623542   1.481   6.555   1.446 -1.2375  0.6996 -3.0355
   69MOL   H28723543   1.693   6.481   1.377  2.5420 -1.7388  0.5985
   69MOL   H28823544   1.927   6.519   1.398  0.9513  0.9594 -2.5298
   69MOL   H28923545   2.227   6.798   1.401 -0.7672  0.7569 -1.2027
   69MOL   H29023546   2.178   6.632   1.373  0.3309 -1.1699  2.4649
   69MOL   C29123547   2.077   6.791   1.246  0.1457  0.1310 -0.6576
   69MOL   C29223548   2.159   6.744   1.122  0.4085 -0.4394 -0.2682
   69MOL   C29323549   2.094   6.722   0.993  0.4108  0.0467  0.8043
   69MOL   C29423550   2.161   6.682   0.881  0.2551 -0.5464 -0.0075
   69MOL   C29523551   2.296   6.649   0.892  0.3367 -0.6175  0.5131
   69MOL   O29623552   2.358   6.594   0.784 -0.3235 -0.1121 -0.6291
   69MOL   C29723553   2.362   6.667   1.011 -0.0994 -0.4452 -0.0599
   69MOL   C29823554   2.297   6.717   1.124 -0.1149  0.1969  0.1611
   69MOL   C29923555   2.051   6.947   1.242 -0.7403 -0.7981  0.0799
   69MOL   H30023556   1.983   6.737   1.235 -0.7375  1.8206 -1.5558
   69MOL   H30123557   1.993   6.760   0.986  0.9834  1.1669 -1.7736
   69MOL   H30223558   2.105   6.683   0.789  0.0559  0.9057  0.1094
   69MOL   H30323559   2.312   6.577   0.703  2.4756 -1.4840 -1.9948
   69MOL   H30423560   2.461   6.627   1.020 -0.2129 -0.2690  2.3656
   69MOL   H30523561   2.352   6.719   1.217 -1.2374 -2.1313  0.9087
   69MOL   H30623562   2.003   6.973   1.336 -2.0201 -4.3019  0.4592
   69MOL   H30723563   1.970   6.966   1.172 -1.9639  0.1177  1.7157
   69MOL   C30823564   2.163   7.047   1.211  0.3495  0.5664  0.0473
   69MOL   C30923565   2.267   7.062   1.322  0.0618  0.6273  0.3096
   69MOL   C31023566   2.225   7.092   1.454  0.0462  0.1628  0.2868
   69MOL   C31123567   2.321   7.132   1.552  0.1627  0.4973  0.4841
   69MOL   C31223568   2.463   7.107   1.517  0.2228  0.1209  0.2061
   69MOL   O31323569   2.552   7.130   1.623 -0.6354 -0.3764  0.0046
   69MOL   C31423570   2.505   7.056   1.393 -0.1299  0.3476 -0.6552
   69MOL   C31523571   2.405   7.047   1.297 -0.1214 -0.3815 -0.5228
   69MOL   C31623572   2.099   7.189   1.171 -0.2424  0.0047 -0.1848
   69MOL   H31723573   2.211   7.013   1.120 -4.1524 -0.8754 -1.9080
   69MOL   H31823574   2.119   7.095   1.470  0.0079  1.3821 -0.1830
   69MOL   H31923575   2.284   7.165   1.648 -0.3217 -1.2651  0.9252
   69MOL   H32023576   2.511   7.166   1.700  1.8656 -0.0522  1.2139
   69MOL   H32123577   2.607   7.023   1.378  0.2254  0.3835  1.5525
   69MOL   H32223578   2.430   7.013   1.197 -1.7048 -3.8592  0.1941
   69MOL   H32323579   2.181   7.260   1.182 -0.5566  0.3510 -0.0533
   69MOL   H32423580   2.023   7.218   1.244 -0.7056 -1.7334  0.0480
   69MOL   C32523581   2.044   7.207   1.031  0.0026  0.3158 -0.1023
   69MOL   C32623582   2.120   7.136   0.921  0.5735 -0.3018  0.0829
   69MOL   C32723583   2.056   7.036   0.847  0.1047 -0.1203  0.0097
   69MOL   C32823584   2.115   6.981   0.734 -0.2675  0.1493 -0.5119
   69MOL   C32923585   2.250   7.007   0.710  0.0069  0.0452 -0.5644
   69MOL   O33023586   2.304   6.943   0.601 -0.1167 -0.1402 -0.1622
   69MOL   C33123587   2.324   7.101   0.792  0.1452 -0.0331  0.0176
   69MOL   C33223588   2.255   7.160   0.898 -0.0762 -0.1256  0.7858
   69MOL   C33323589   2.033   7.358   0.989  0.4181  0.4406  0.7883
   69MOL   H33423590   1.944   7.163   1.038  0.5065 -0.6527  1.3005
   69MOL   H33523591   1.953   7.009   0.866 -0.6416  1.7791 -1.1750
   69MOL   H33623592   2.057   6.921   0.665  1.4950 -2.0903 -0.1311
   69MOL   H33723593   2.391   6.913   0.619  1.1272  3.5167  0.3911
   69MOL   H33823594   2.427   7.122   0.770  0.1471 -0.9050 -0.8537
   69MOL   H33923595   2.305   7.221   0.971 -1.1943  1.6068  0.1337
   69MOL   H34023596   2.133   7.401   0.984  1.2215 -1.5669 -1.0602
   69MOL   H34123597   1.976   7.403   1.071 -0.9415 -0.5288  0.3934
   69MOL   H34223598   1.974   7.390   0.903  0.2425 -0.7861  0.4473
   70MOL     C123599   1.901   0.524   4.614 -0.4475 -0.1025 -0.3402
   70MOL     C223600   1.954   0.439   4.734 -0.3030 -0.1990  0.3716
   70MOL     C323601   1.994   0.308   4.715 -1.0039  0.8776 -0.4156
   70MOL     C423602   2.041   0.227   4.816  0.0337  0.7306 -0.0596
   70MOL     C523603   2.060   0.276   4.943  0.0378  0.1315 -0.2843
   70MOL     O623604   2.100   0.198   5.045  0.0097  0.7065  0.0697
   70MOL     C723605   2.019   0.407   4.967  0.6899 -0.0494  0.1628
   70MOL     C823606   1.967   0.492   4.862 -0.3121 -0.5494 -0.0673
   70MOL     C923607   1.816   0.442   4.519  0.5469 -0.2195  0.1254
   70MOL    H1023608   1.848   0.609   4.657 -0.3208 -0.5053  0.6054
   70MOL    H1123609   2.013   0.271   4.615  1.2217  3.0682 -0.8478
   70MOL    H1223610   2.077   0.127   4.801 -0.2410  0.2060  2.4983
   70MOL    H1323611   2.100   0.247   5.127 -1.7418 -2.7167  2.2294
   70MOL    H1423612   2.034   0.448   5.066 -1.2392 -1.6062  1.1259
   70MOL    H1523613   1.934   0.592   4.887  1.2112  0.0034 -0.1898
   70MOL    H1623614   1.742   0.378   4.568 -0.2517  0.3255 -0.3658
   70MOL    H1723615   1.893   0.375   4.480  1.0012 -0.4412  1.3859
   70MOL    H1823616   1.984   0.573   4.563  0.3547  0.2097  1.2324
   70MOL    C1923617   1.741   0.524   4.405 -0.1019 -0.2215  0.5958
   70MOL    C2023618   1.854   0.583   4.319  0.1952 -0.2207  0.4220
   70MOL    C2123619   1.910   0.507   4.217  0.2286 -0.0155  0.3270
   70MOL    C2223620   2.009   0.558   4.133  0.0786  0.5975 -0.9772
   70MOL    C2323621   2.046   0.692   4.149  0.1679  0.2425  1.2205
   70MOL    O2423622   2.130   0.751   4.059  0.6678  0.1701  0.8355
   70MOL    C2523623   1.984   0.774   4.242  0.5649 -0.3014  0.3587
   70MOL    C2623624   1.890   0.719   4.334 -0.7019 -0.0974 -0.2945
   70MOL    C2723625   1.638   0.618   4.478 -0.1146 -0.5780  0.0124
   70MOL    H2823626   1.679   0.461   4.343 -0.2323 -0.1338  0.6367
   70MOL    H2923627   1.887   0.402   4.211 -0.9319  0.1533  1.6821
   70MOL    H3023628   2.051   0.490   4.060 -0.4181 -1.8956  0.9920
   70MOL    H3123629   2.127   0.844   4.073  1.3287  0.3744 -0.3408
   70MOL    H3223630   2.010   0.879   4.245 -0.5535  0.0064 -0.4208
   70MOL    H3323631   1.846   0.781   4.411  0.9663  0.6748  0.0623
   70MOL    H3423632   1.687   0.687   4.547  0.3646  0.2701 -1.1481
   70MOL    H3523633   1.575   0.563   4.547 -1.0358 -0.2769 -0.5818
   70MOL    C3623634   1.555   0.705   4.387 -0.0603 -0.5964  0.2951
   70MOL    C3723635   1.490   0.824   4.457 -0.1123 -0.0618  0.4206
   70MOL    C3823636   1.372   0.796   4.533 -0.9358  0.3612 -0.0026
   70MOL    C3923637   1.296   0.906   4.580 -0.2884  0.0194  0.7833
   70MOL    C4023638   1.344   1.034   4.563 -0.4805  0.2042  0.9196
   70MOL    O4123639   1.278   1.143   4.607  0.8253  0.4817  0.7447
   70MOL    C4223640   1.468   1.060   4.493  0.8176 -0.0941 -0.8660
   70MOL    C4323641   1.540   0.956   4.430 -0.3540 -0.2269 -0.6094
   70MOL    C4423642   1.471   0.629   4.290 -0.3336 -0.3663  0.0611
   70MOL    H4523643   1.627   0.752   4.320  0.2668 -3.7879 -1.6712
   70MOL    H4623644   1.340   0.700   4.570  0.6676  0.4150  1.5918
   70MOL    H4723645   1.201   0.878   4.622 -1.0486 -0.7934 -1.3873
   70MOL    H4823646   1.334   1.219   4.601  0.4329  0.6369 -1.1910
   70MOL    H4923647   1.503   1.160   4.470 -0.3316  1.3441  3.3527
   70MOL    H5023648   1.626   0.981   4.370  1.5466  2.3521  2.9843
   70MOL    H5123649   1.511   0.539   4.244  0.1310  0.4851 -1.2412
   70MOL    H5223650   1.380   0.595   4.339 -0.3297 -0.4414  0.0174
   70MOL    C5323651   1.417   0.719   4.177  0.2508 -1.0143 -0.3206
   70MOL    C5423652   1.518   0.754   4.071  0.2127 -0.3659  0.6473
   70MOL    C5523653   1.572   0.884   4.061 -0.3328  0.1563 -1.0905
   70MOL    C5623654   1.660   0.915   3.962 -0.0920 -0.0481 -0.1766
   70MOL    C5723655   1.708   0.815   3.871  0.0526  0.2023  0.2846
   70MOL    O5823656   1.791   0.852   3.767 -0.3624  0.4228 -0.0800
   70MOL    C5923657   1.656   0.684   3.874  0.4934 -0.5124 -0.1004
   70MOL    C6023658   1.566   0.654   3.980 -0.4687  1.0540 -1.1109
   70MOL    C6123659   1.284   0.672   4.117 -0.5672  0.3584 -0.0666
   70MOL    H6223660   1.388   0.815   4.220  0.6464 -0.3877 -1.4519
   70MOL    H6323661   1.549   0.955   4.140  1.1236 -1.3184  0.7174
   70MOL    H6423662   1.703   1.011   3.938  0.3024 -0.2458 -0.2710
   70MOL    H6523663   1.807   0.778   3.710 -1.9347 -1.5600  1.9598
   70MOL    H6623664   1.687   0.613   3.798  2.6094  1.2413 -0.9471
   70MOL    H6723665   1.516   0.559   3.992 -0.7334  1.1406 -1.5253
   70MOL    H6823666   1.214   0.667   4.200  1.4812  0.1004  1.6816
   70MOL    H6923667   1.306   0.571   4.082  2.1666  0.4919  1.1505
   70MOL    C7023668   1.234   0.770   4.010 -0.9675  0.7885  1.0470
   70MOL    C7123669   1.228   0.913   4.057 -0.5591  0.3639  0.4827
   70MOL    C7223670   1.282   1.018   3.976  0.0811  0.1946  0.5141
   70MOL    C7323671   1.299   1.150   4.031 -0.7276 -0.2434  0.6450
   70MOL    C7423672   1.248   1.177   4.160  0.0308  0.6875 -0.8818
   70MOL    O7523673   1.275   1.297   4.215 -0.4814  0.6391 -0.1836
   70MOL    C7623674   1.186   1.076   4.235 -0.6022  0.3166 -0.4813
   70MOL    C7723675   1.176   0.945   4.184 -0.4644 -0.5047 -0.6434
   70MOL    C7823676   1.091   0.716   3.958 -0.0869 -0.7172  0.1694
   70MOL    H7923677   1.313   0.763   3.935 -1.9950 -4.0646  0.2342
   70MOL    H8023678   1.324   0.999   3.878  1.1981  2.5230  0.5096
   70MOL    H8123679   1.360   1.214   3.970 -0.2773 -1.1962  0.0886
   70MOL    H8223680   1.228   1.306   4.296  1.4571  1.3284  0.8815
   70MOL    H8323681   1.164   1.098   4.339  0.5625  2.7275 -0.7295
   70MOL    H8423682   1.143   0.873   4.258  0.4416 -0.0882  0.1825
   70MOL    H8523683   1.039   0.801   3.915  0.7781  0.2971  1.1128
   70MOL    H8623684   1.027   0.703   4.046 -0.0495 -0.6729  0.2028
   70MOL    C8723685   1.077   0.588   3.874  0.1629 -1.1146  0.3892
   70MOL    C8823686   1.208   0.567   3.794  0.4503  0.3452  0.0525
   70MOL    C8923687   1.251   0.652   3.690  0.0538 -0.6945 -0.6495
   70MOL    C9023688   1.358   0.624   3.608  0.0745 -0.7856  0.5672
   70MOL    C9123689   1.438   0.516   3.631 -1.0749 -0.0469 -0.5860
   70MOL    O9223690   1.547   0.484   3.555 -0.0830 -0.7707 -0.3598
   70MOL    C9323691   1.404   0.433   3.740  0.3547 -0.3302 -0.5892
   70MOL    C9423692   1.292   0.457   3.822  0.6811 -0.1870  0.2040
   70MOL    C9523693   0.954   0.594   3.787 -0.2856 -0.2778  0.4055
   70MOL    H9623694   1.054   0.503   3.938 -1.8757 -0.7541  0.1918
   70MOL    H9723695   1.197   0.744   3.672  1.2961  0.5613  1.6831
   70MOL    H9823696   1.387   0.689   3.526 -1.3030  0.4783  1.0684
   70MOL    H9923697   1.600   0.414   3.592 -1.9656 -1.1547  1.7620
   70MOL   H10023698   1.460   0.345   3.769  0.5839 -0.5516 -1.7148
   70MOL   H10123699   1.268   0.381   3.895  0.6897 -2.2273 -1.8426
   70MOL   H10223700   0.970   0.680   3.722 -0.9164 -0.0625  0.5355
   70MOL   H10323701   0.950   0.514   3.712  0.2634 -0.3963  0.4962
   70MOL   C10423702   0.817   0.585   3.846 -0.2845 -0.1205  0.6428
   70MOL   C10523703   0.796   0.447   3.915  0.6987 -0.0645  0.6931
   70MOL   C10623704   0.765   0.440   4.051 -0.1267  0.1031 -0.7947
   70MOL   C10723705   0.758   0.310   4.114  0.4826 -0.6527  0.3649
   70MOL   C10823706   0.765   0.189   4.041 -0.4320  0.0113 -0.3135
   70MOL   O10923707   0.787   0.073   4.111 -0.5594 -0.3113  0.1923
   70MOL   C11023708   0.777   0.196   3.902 -0.5100 -0.4517 -0.6639
   70MOL   C11123709   0.809   0.322   3.841  0.5243  0.1565 -0.2308
   70MOL   C11223710   0.713   0.607   3.732  0.0695  0.2585 -0.1547
   70MOL   H11323711   0.808   0.670   3.914 -0.4970 -0.2587  0.7852
   70MOL   H11423712   0.750   0.529   4.110 -0.0653  0.3871 -1.2076
   70MOL   H11523713   0.743   0.302   4.221  2.2957 -1.0268  0.6103
   70MOL   H11623714   0.813   0.081   4.201  2.0740  2.9237 -0.7651
   70MOL   H11723715   0.772   0.104   3.845 -0.0054 -0.4363 -0.7404
   70MOL   H11823716   0.814   0.336   3.734  0.5742  1.5228 -0.0511
   70MOL   H11923717   0.628   0.552   3.772  0.8731 -1.0409 -0.2014
   70MOL   H12023718   0.737   0.537   3.651  2.2195  1.4094 -0.5617
   70MOL   C12123719   0.689   0.759   3.700 -0.9545 -0.0878 -0.5978
   70MOL   C12223720   0.801   0.808   3.608 -0.0062 -0.6232  1.1092
   70MOL   C12323721   0.881   0.917   3.648 -0.8459 -0.1501  0.2757
   70MOL   C12423722   0.985   0.970   3.575 -0.5641  0.1118  0.1157
   70MOL   C12523723   1.007   0.924   3.447  0.0908  1.4588  0.3035
   70MOL   O12623724   1.107   0.966   3.368  0.1058 -0.5169 -0.1072
   70MOL   C12723725   0.918   0.825   3.392 -0.2400 -0.0831  0.2060
   70MOL   C12823726   0.824   0.759   3.477  0.5071  0.4235  0.7525
   70MOL   C12923727   0.549   0.777   3.640 -0.1214  0.7061  0.7556
   70MOL   H13023728   0.693   0.814   3.794  1.5667 -2.4341  0.7606
   70MOL   H13123729   0.862   0.956   3.748  1.9036  0.8598  0.4530
   70MOL   H13223730   1.042   1.055   3.608 -2.2408  0.5482  1.9545
   70MOL   H13323731   1.170   1.005   3.426  0.7905 -1.6315 -0.0809
   70MOL   H13423732   0.932   0.796   3.289  1.6912  0.0639  0.4125
   70MOL   H13523733   0.747   0.692   3.445 -1.0577  2.5153  0.0361
   70MOL   H13623734   0.485   0.751   3.725  0.1911 -1.0983  0.4414
   70MOL   H13723735   0.528   0.711   3.557 -1.7149 -0.1485  1.8048
   70MOL   C13823736   0.505   0.919   3.595 -0.7298  0.5103 -0.1702
   70MOL   C13923737   0.504   1.022   3.708 -0.8879 -0.9547  0.7209
   70MOL   C14023738   0.595   1.135   3.704  0.0575 -0.5845 -0.2270
   70MOL   C14123739   0.590   1.233   3.808 -0.1119  0.1299  0.7183
   70MOL   C14223740   0.489   1.225   3.905 -0.2106  0.3776  0.1326
   70MOL   O14323741   0.473   1.316   3.999  0.3259  0.0536  0.7177
   70MOL   C14423742   0.398   1.122   3.899  0.0042 -0.0617 -0.8079
   70MOL   C14523743   0.405   1.018   3.809  0.1480 -0.0096 -0.6314
   70MOL   C14623744   0.376   0.916   3.513  0.1233  0.0304  0.3217
   70MOL   H14723745   0.590   0.947   3.532  1.6060 -0.4298  2.4320
   70MOL   H14823746   0.668   1.134   3.624 -2.7229 -3.5571 -2.8912
   70MOL   H14923747   0.662   1.313   3.820 -0.5733  0.8027 -0.8502
   70MOL   H15023748   0.540   1.379   3.977  1.6059 -1.4925  0.1268
   70MOL   H15123749   0.313   1.133   3.966 -1.8995  1.5050 -3.3983
   70MOL   H15223750   0.331   0.940   3.809  0.3683 -0.2406 -3.1241
   70MOL   H15323751   0.296   0.924   3.586  0.9484 -0.1926  1.2640
   70MOL   H15423752   0.374   0.821   3.461  2.5217  0.5900 -0.8671
   70MOL   C15523753   0.375   1.022   3.401  0.6930 -0.5205  0.0378
   70MOL   C15623754   0.374   1.168   3.450  0.4344  0.6707  0.3543
   70MOL   C15723755   0.460   1.263   3.397  0.3279 -0.0656  0.5244
   70MOL   C15823756   0.467   1.394   3.452 -0.8050  0.2803 -0.6917
   70MOL   C15923757   0.371   1.433   3.547  0.3578  0.1226 -0.4292
   70MOL   O16023758   0.370   1.564   3.590 -0.3336  0.7723 -0.0850
   70MOL   C16123759   0.286   1.340   3.603 -0.1776  0.7489  0.4883
   70MOL   C16223760   0.281   1.204   3.554  0.5478 -0.6184 -0.4239
   70MOL   C16323761   0.247   0.986   3.317 -0.0791  1.5800  0.6972
   70MOL   H16423762   0.469   1.001   3.350  1.5356  1.1634  0.8558
   70MOL   H16523763   0.516   1.235   3.309 -0.1311  0.6526 -0.0011
   70MOL   H16623764   0.534   1.467   3.408  0.1508 -1.5482 -2.3419
   70MOL   H16723765   0.356   1.627   3.522 -2.1381 -2.1602 -2.5293
   70MOL   H16823766   0.220   1.363   3.686  0.9716  0.4361  1.5098
   70MOL   H16923767   0.209   1.130   3.586  0.6936  0.6088  2.9026
   70MOL   H17023768   0.233   1.069   3.248  0.7459  1.3771  0.2716
   70MOL   H17123769   0.156   0.982   3.377 -0.9996 -0.0459 -0.7540
   70MOL   C17223770   0.252   0.856   3.235  0.0149 -0.0344  0.0021
   70MOL   C17323771   0.380   0.836   3.156 -0.1679 -0.4989 -0.3794
   70MOL   C17423772   0.470   0.738   3.190  0.1233  1.2524  0.1538
   70MOL   C17523773   0.587   0.717   3.120 -0.8535  0.1652 -0.3080
   70MOL   C17623774   0.612   0.801   3.010 -0.4911  0.6262 -0.1711
   70MOL   O17723775   0.721   0.785   2.937 -0.5283 -0.0524  0.1007
   70MOL   C17823776   0.526   0.912   2.978 -0.4827  0.0434  0.0652
   70MOL   C17923777   0.407   0.921   3.043 -0.7378 -0.4762  0.0579
   70MOL   C18023778   0.121   0.831   3.151 -0.2331 -0.6904 -0.2069
   70MOL   H18123779   0.253   0.767   3.297  1.0997 -1.3692 -1.8724
   70MOL   H18223780   0.457   0.673   3.275  1.1444  1.2428  0.3081
   70MOL   H18323781   0.661   0.644   3.147 -1.4635 -0.4865 -0.3994
   70MOL   H18423782   0.757   0.703   2.967  0.6832  1.3683  2.7051
   70MOL   H18523783   0.564   0.982   2.905 -1.5281 -1.7599 -2.2616
   70MOL   H18623784   0.342   1.005   3.023 -0.0182  0.0545 -0.1019
   70MOL   H18723785   0.121   0.920   3.087  1.4539  1.2791  2.4642
   70MOL   H18823786   0.030   0.824   3.210 -0.9242  0.7928 -1.0412
   70MOL   C18923787   0.121   0.704   3.057  0.4942  0.4751  0.5812
   70MOL   C19023788   0.044   0.591   3.112  0.1580 -0.6589  0.0722
   70MOL   C19123789   0.110   0.478   3.158  0.1306 -1.2102  0.6011
   70MOL   C19223790   0.035   0.369   3.198 -0.0436  0.6557  0.0626
   70MOL   C19323791   7.935   0.375   3.212  0.3923 -0.5084 -0.4162
   70MOL   O19423792   7.876   0.264   3.254 -0.4086 -0.1751 -0.4817
   70MOL   C19523793   7.868   0.491   3.176  1.1573  0.0033  0.2422
   70MOL   C19623794   7.940   0.602   3.123 -0.1259  0.2305 -0.2105
   70MOL   C19723795   0.087   0.742   2.914  0.1760 -0.4344  0.0938
   70MOL   H19823796   0.222   0.664   3.057  0.6442  0.8497  0.4818
   70MOL   H19923797   0.217   0.465   3.165  0.5082  0.0390 -2.3424
   70MOL   H20023798   0.081   0.276   3.231  1.2986  1.5964  0.9286
   70MOL   H20123799   7.921   0.190   3.291 -2.9888 -2.3374 -1.5229
   70MOL   H20223800   7.762   0.509   3.189  1.3890  2.2058 -0.6875
   70MOL   H20323801   7.893   0.694   3.091  2.0080  1.9210  1.3321
   70MOL   H20423802   0.155   0.819   2.877  1.8379 -1.4307  1.0081
   70MOL   H20523803   8.027   0.791   2.917  0.0150 -0.8299  1.8903
   70MOL   C20623804   0.093   0.633   2.800 -0.5540 -0.0938 -0.1370
   70MOL   C20723805   0.226   0.552   2.800  1.0862 -0.9077 -0.2911
   70MOL   C20823806   0.217   0.417   2.847  0.0022 -0.5104 -0.4403
   70MOL   C20923807   0.320   0.331   2.846 -0.2179 -1.2424 -0.5022
   70MOL   C21023808   0.449   0.372   2.808 -0.5276  0.0721 -0.3146
   70MOL   O21123809   0.541   0.274   2.814 -0.1071  0.3109  0.1553
   70MOL   C21223810   0.465   0.509   2.759 -0.0092 -0.4523  0.2507
   70MOL   C21323811   0.356   0.595   2.761  0.5519 -0.0586 -0.1171
   70MOL   C21423812   0.067   0.693   2.660  0.1697  0.0868 -0.1328
   70MOL   H21523813   0.017   0.557   2.819  0.2578 -1.1087 -0.8874
   70MOL   H21623814   0.120   0.384   2.880 -0.2619 -0.1251 -0.8176
   70MOL   H21723815   0.314   0.235   2.895 -0.2392 -0.8228  0.3268
   70MOL   H21823816   0.624   0.315   2.795 -0.7806  1.9824  0.7364
   70MOL   H21923817   0.562   0.541   2.726 -0.6479  1.5240  0.2070
   70MOL   H22023818   0.365   0.698   2.728 -1.9356  0.0148 -0.7057
   70MOL   H22123819   0.121   0.618   2.601  1.1273  0.7443 -0.0952
   70MOL   H22223820   0.124   0.785   2.646 -0.9623  0.8738  0.3611
   70MOL   C22323821   7.959   0.716   2.602 -0.1840  0.1494  0.4463
   70MOL   C22423822   7.973   0.729   2.449 -0.2138 -0.1889  0.3052
   70MOL   C22523823   7.943   0.615   2.373 -0.3301 -0.1254 -0.0599
   70MOL   C22623824   7.965   0.608   2.231  0.5146  0.1547 -0.0013
   70MOL   C22723825   0.002   0.714   2.174  0.7066 -0.1667 -0.6150
   70MOL   O22823826   0.026   0.712   2.043  0.4369  0.2677  0.6725
   70MOL   C22923827   0.039   0.826   2.249  0.9457  0.0870 -0.1012
   70MOL   C23023828   0.017   0.827   2.388 -0.3141 -1.2412 -0.8526
   70MOL   C23123829   7.890   0.842   2.660 -0.4126  0.8014  1.2338
   70MOL   H23223830   7.901   0.625   2.622  1.3224 -0.3962  2.4726
   70MOL   H23323831   7.891   0.536   2.425 -1.5104  1.6126  1.4816
   70MOL   H23423832   7.925   0.533   2.164  2.6338 -1.9362  0.9998
   70MOL   H23523833   0.071   0.784   2.001 -0.3894  0.7165  0.5392
   70MOL   H23623834   0.098   0.908   2.213  2.8608 -0.7483  1.0522
   70MOL   H23723835   0.043   0.912   2.449 -0.7785  0.0023 -2.3458
   70MOL   H23823836   7.900   0.841   2.768  2.4552 -0.3921  1.0204
   70MOL   H23923837   7.936   0.934   2.624 -1.2780  0.3493 -1.1615
   70MOL   C24023838   7.737   0.842   2.631  0.2882 -0.5657 -0.3592
   70MOL   C24123839   7.665   0.710   2.659  0.1087  0.3909 -0.2221
   70MOL   C24223840   7.670   0.642   2.786 -0.0969  0.2054 -0.6502
   70MOL   C24323841   7.600   0.520   2.808  0.1369  0.2382  0.2411
   70MOL   C24423842   7.516   0.473   2.706 -0.6895 -0.1681  0.1629
   70MOL   O24523843   7.430   0.367   2.728  0.0211  0.1551 -0.1366
   70MOL   C24623844   7.497   0.543   2.581 -0.2368  0.7849 -0.8996
   70MOL   C24723845   7.573   0.658   2.559  0.0243 -0.3908 -0.3454
   70MOL   C24823846   7.667   0.956   2.714 -0.0340 -0.3178  0.2389
   70MOL   H24923847   7.727   0.855   2.523  4.0095 -1.1193 -0.8115
   70MOL   H25023848   7.730   0.688   2.863 -0.9287 -3.1266  2.1325
   70MOL   H25123849   7.613   0.465   2.900 -1.3728 -0.0827  0.2675
   70MOL   H25223850   7.401   0.347   2.816  0.9163 -0.8951 -0.0686
   70MOL   H25323851   7.413   0.515   2.519 -0.9816 -0.7878  0.7605
   70MOL   H25423852   7.557   0.698   2.461  0.7744 -0.3791 -0.4621
   70MOL   H25523853   7.569   0.970   2.669  0.0767 -0.0357  0.0832
   70MOL   H25623854   7.643   0.915   2.812 -1.9662 -0.3620 -0.2433
   70MOL   C25723855   7.750   1.086   2.746 -0.1698 -0.6208 -0.2192
   70MOL   C25823856   7.753   1.179   2.628 -0.4353  0.3277 -0.9059
   70MOL   C25923857   7.876   1.220   2.569  0.1742 -0.3343  0.0649
   70MOL   C26023858   7.876   1.333   2.483 -0.0423 -0.3634  0.2235
   70MOL   C26123859   7.757   1.401   2.445  0.2020  0.1858  0.1749
   70MOL   O26223860   7.770   1.512   2.362 -0.2308  1.0430 -0.3928
   70MOL   C26323861   7.637   1.352   2.494 -0.2886 -0.1030  0.7766
   70MOL   C26423862   7.638   1.244   2.587  0.6191  0.1691  0.3011
   70MOL   C26523863   7.695   1.161   2.874  0.2417 -0.3445 -0.1297
   70MOL   H26623864   7.855   1.076   2.774 -0.7704 -0.9264  2.0989
   70MOL   H26723865   7.960   1.153   2.585  0.0176 -0.6874 -0.5549
   70MOL   H26823866   7.971   1.361   2.440  0.6948 -1.7297  0.9301
   70MOL   H26923867   7.683   1.540   2.337 -2.3461 -2.1504  2.8339
   70MOL   H27023868   7.544   1.404   2.479 -0.4911 -0.0143  2.3058
   70MOL   H27123869   7.547   1.216   2.637 -1.8141  0.7599 -3.5834
   70MOL   H27223870   7.679   1.095   2.959 -1.2184 -1.0492 -0.9293
   70MOL   H27323871   7.589   1.167   2.852  0.7038 -1.0493 -2.7171
   70MOL   C27423872   7.750   1.296   2.904  0.0149 -0.3483 -0.2266
   70MOL   C27523873   7.885   1.292   2.978  0.1788  0.0076 -0.4635
   70MOL   C27623874   7.904   1.226   3.102 -0.2566  0.0030  0.7108
   70MOL   C27723875   8.025   1.240   3.169 -0.1094  0.3247 -0.6458
   70MOL   C27823876   0.098   1.308   3.109 -0.5833  0.5825  0.2636
   70MOL   O27923877   0.222   1.307   3.167  0.0510  0.3551  0.2438
   70MOL   C28023878   0.078   1.376   2.982 -0.1717  0.4967 -0.2635
   70MOL   C28123879   7.993   1.360   2.915 -0.1847 -0.3491  0.0444
   70MOL   C28223880   7.639   1.372   2.985  0.5381  0.3002  0.2782
   70MOL   H28323881   7.762   1.359   2.815 -1.0648  1.4252  0.8485
   70MOL   H28423882   7.822   1.169   3.142 -0.7301 -0.3026 -0.6772
   70MOL   H28523883   8.035   1.186   3.262 -0.8772  0.1428 -0.6646
   70MOL   H28623884   0.219   1.259   3.248  2.8020  0.3144  0.3804
   70MOL   H28723885   0.149   1.438   2.928 -0.3099 -1.0987 -2.3825
   70MOL   H28823886   7.997   1.400   2.815  1.4955  2.0495  1.0148
   70MOL   H28923887   7.548   1.365   2.925  1.5605 -1.2607 -1.1224
   70MOL   H29023888   7.599   1.321   3.073 -1.1875 -0.7764 -1.1031
   70MOL   C29123889   7.653   1.531   2.998 -0.1877 -0.2095 -0.3739
   70MOL   C29223890   7.666   1.597   2.860 -0.7504  0.3113 -0.0130
   70MOL   C29323891   7.567   1.605   2.765 -0.3065 -0.0619  0.3165
   70MOL   C29423892   7.588   1.662   2.637  0.0117 -0.3366  0.2384
   70MOL   C29523893   7.707   1.726   2.609 -0.5325 -0.2435 -0.1164
   70MOL   O29623894   7.716   1.797   2.491 -0.8131  0.1768 -0.1665
   70MOL   C29723895   7.813   1.718   2.701  0.5180 -0.1967 -0.5163
   70MOL   C29823896   7.793   1.642   2.819  0.5436 -0.2427  0.5808
   70MOL   C29923897   7.753   1.593   3.106 -0.4912  0.0232 -0.4968
   70MOL   H30023898   7.556   1.573   3.026  2.1064  3.3108  2.9269
   70MOL   H30123899   7.467   1.570   2.786  0.1151 -1.0535  0.6712
   70MOL   H30223900   7.519   1.665   2.553 -0.0392  1.4657  0.3123
   70MOL   H30323901   7.802   1.807   2.453  0.3719 -0.4187  2.3093
   70MOL   H30423902   7.902   1.771   2.671  1.0710 -1.8670 -1.9314
   70MOL   H30523903   7.882   1.635   2.879  0.6773  1.8757  0.6588
   70MOL   H30623904   7.769   1.699   3.087 -0.1233 -0.1760 -1.3245
   70MOL   H30723905   7.855   1.558   3.088 -0.3369  0.6075 -0.7534
   70MOL   C30823906   7.715   1.560   3.255 -0.1334  0.1160  0.0863
   70MOL   C30923907   7.577   1.623   3.285  0.1609  0.8486  0.3482
   70MOL   C31023908   7.463   1.548   3.292  0.3004  0.5154 -0.3750
   70MOL   C31123909   7.339   1.611   3.301 -0.7210 -0.9439 -0.0441
   70MOL   C31223910   7.331   1.753   3.311 -0.5566  0.4131  0.4849
   70MOL   O31323911   7.203   1.802   3.311  0.4532  0.0524  0.1603
   70MOL   C31423912   7.448   1.834   3.305 -0.1491  0.2751 -0.3711
   70MOL   C31523913   7.570   1.762   3.286 -0.0433  0.3010 -0.2575
   70MOL   C31623914   7.821   1.596   3.351 -0.1172 -0.3623 -0.0964
   70MOL   H31723915   7.698   1.452   3.259 -0.7766  0.1106 -1.9323
   70MOL   H31823916   7.468   1.440   3.296  0.4209  0.5233 -0.3074
   70MOL   H31923917   7.260   1.539   3.318 -1.2942 -0.1832  0.5425
   70MOL   H32023918   7.186   1.832   3.399  2.3313 -2.6007  1.4833
   70MOL   H32123919   7.447   1.942   3.306  0.9061  0.2944 -0.8492
   70MOL   H32223920   7.661   1.819   3.274  0.9528 -1.0104  0.8927
   70MOL   H32323921   7.828   1.701   3.325  1.4195 -0.8730 -1.8137
   70MOL   H32423922   7.916   1.552   3.321  0.3057 -0.3006  1.1390
   70MOL   C32523923   7.797   1.560   3.499 -0.2016  0.2951  0.5723
   70MOL   C32623924   7.862   1.648   3.601 -0.9086 -0.0778  0.1921
   70MOL   C32723925   7.819   1.655   3.735 -0.2838  0.0171  0.2565
   70MOL   C32823926   7.874   1.741   3.829  0.1669 -0.6721  0.2038
   70MOL   C32923927   7.996   1.814   3.792  0.0865  0.4073 -0.2917
   70MOL   O33023928   0.014   1.899   3.884  0.0100  0.3738 -0.0722
   70MOL   C33123929   0.011   1.798   3.663  0.4287  0.8016 -0.4285
   70MOL   C33223930   7.984   1.713   3.568 -0.0464 -0.5359 -0.2642
   70MOL   C33323931   7.835   1.414   3.524 -0.1617  0.0259  0.1051
   70MOL   H33423932   7.689   1.572   3.513 -0.3558 -0.0340 -0.2914
   70MOL   H33523933   7.730   1.602   3.766  0.6283 -1.1423  0.9355
   70MOL   H33623934   7.846   1.744   3.933 -0.8468 -2.0753 -0.0108
   70MOL   H33723935   7.989   1.938   3.943  0.7705 -0.5919  1.4280
   70MOL   H33823936   0.089   1.871   3.647  1.2022  0.9634  3.6072
   70MOL   H33923937   8.026   1.707   3.469 -1.8673 -0.6290 -1.0471
   70MOL   H34023938   7.809   1.391   3.627 -0.2062 -0.9107 -0.1145
   70MOL   H34123939   7.943   1.409   3.512 -0.1092 -1.7129  1.2839
   70MOL   H34223940   7.792   1.350   3.447 -0.1540  1.7573 -1.3833
   71MOL     C123941   1.743   3.905   5.275 -0.1130  0.9330  0.3436
   71MOL     C223942   1.692   3.789   5.189 -0.5912 -0.6775  0.3679
   71MOL     C323943   1.782   3.698   5.124 -0.3140  0.5081  0.4077
   71MOL     C423944   1.743   3.595   5.038  0.9639 -0.8181  0.0015
   71MOL     C523945   1.607   3.592   5.007  0.5761 -0.6358 -0.3902
   71MOL     O623946   1.560   3.494   4.919  0.8033  0.2184 -0.2619
   71MOL     C723947   1.517   3.683   5.069  0.4463 -0.4132  0.5149
   71MOL     C823948   1.554   3.778   5.172 -0.6381  0.0345  0.3104
   71MOL     C923949   1.702   4.044   5.227 -0.2080  0.5284  0.1253
   71MOL    H1023950   1.706   3.886   5.376 -2.6973  1.4380 -0.4743
   71MOL    H1123951   1.888   3.713   5.142 -0.1953  0.3217 -0.1306
   71MOL    H1223952   1.811   3.527   4.989 -1.9310 -0.7415 -4.3322
   71MOL    H1323953   1.469   3.503   4.893 -0.3843  0.7770  3.7470
   71MOL    H1423954   1.412   3.677   5.044  0.1478 -0.2999  1.7195
   71MOL    H1523955   1.485   3.841   5.226 -1.4477 -2.5384  2.3746
   71MOL    H1623956   1.598   4.039   5.196  0.5298 -1.6639 -2.0796
   71MOL    H1723957   1.779   4.068   5.153  0.6775 -1.7410  0.2818
   71MOL    H1823958   1.852   3.910   5.268 -0.0892 -0.7988 -1.1213
   71MOL    C1923959   1.710   4.159   5.339  0.5264  0.2370 -0.1929
   71MOL    C2023960   1.627   4.135   5.465 -0.4075 -0.3361  0.4627
   71MOL    C2123961   1.675   4.169   5.592 -0.1541  0.3091  0.1736
   71MOL    C2223962   1.602   4.135   5.707  0.1774 -0.9542 -0.1471
   71MOL    C2323963   1.482   4.062   5.699 -0.4113 -0.5383 -0.7049
   71MOL    O2423964   1.419   4.025   5.816 -0.1599 -0.0667  0.1223
   71MOL    C2523965   1.433   4.035   5.575  0.5174  0.2306 -0.0592
   71MOL    C2623966   1.502   4.065   5.460  0.2794  0.5984  0.2900
   71MOL    C2723967   1.669   4.295   5.271  0.6010  0.7095  0.1249
   71MOL    H2823968   1.813   4.146   5.372 -0.4279 -3.3074  1.5655
   71MOL    H2923969   1.766   4.220   5.620 -0.1947 -0.1418  1.1458
   71MOL    H3023970   1.631   4.168   5.805  2.0131 -1.5185 -0.4878
   71MOL    H3123971   1.476   4.041   5.889 -0.7111  1.6811  0.1920
   71MOL    H3223972   1.336   3.988   5.565  0.3898  0.7024 -1.2200
   71MOL    H3323973   1.445   4.037   5.373 -0.6686 -0.4370  1.2306
   71MOL    H3423974   1.561   4.297   5.281  0.3821  1.1107 -2.1021
   71MOL    H3523975   1.695   4.296   5.165  2.0702  1.0949  0.4744
   71MOL    C3623976   1.727   4.427   5.333 -0.7620 -0.3109  0.2219
   71MOL    C3723977   1.668   4.545   5.275  0.5721  0.2811 -0.4426
   71MOL    C3823978   1.606   4.650   5.353 -0.0317 -0.0800  0.2153
   71MOL    C3923979   1.539   4.756   5.293  0.0406 -0.3950  0.3412
   71MOL    C4023980   1.528   4.772   5.151  0.8087 -0.2440 -0.0169
   71MOL    O4123981   1.448   4.864   5.094 -0.1393 -0.0292  0.4601
   71MOL    C4223982   1.598   4.675   5.073  0.2383 -0.1999  0.5160
   71MOL    C4323983   1.658   4.559   5.130  0.3655 -0.9946  0.5035
   71MOL    C4423984   1.879   4.427   5.329  0.1358  0.7399  0.1713
   71MOL    H4523985   1.704   4.416   5.439  0.4980 -0.8518  0.4470
   71MOL    H4623986   1.600   4.651   5.461  0.6671  0.8394  0.2490
   71MOL    H4723987   1.486   4.831   5.351 -1.1364 -1.2524  0.3920
   71MOL    H4823988   1.455   4.876   5.001  2.2931  0.6474  0.7095
   71MOL    H4923989   1.582   4.674   4.966  0.4151  0.3691  0.4819
   71MOL    H5023990   1.694   4.476   5.071 -2.3058 -2.1660  0.4160
   71MOL    H5123991   1.910   4.364   5.412 -2.4832 -1.1986 -0.2387
   71MOL    H5223992   1.911   4.376   5.238 -1.8713 -2.6438  1.2285
   71MOL    C5323993   1.963   4.556   5.339  0.3654  0.0026 -0.3013
   71MOL    C5423994   1.943   4.651   5.454 -0.4872  0.1042  0.9792
   71MOL    C5523995   1.943   4.601   5.587  1.2564  0.2940  0.2009
   71MOL    C5623996   1.926   4.693   5.688 -0.2109 -0.2800 -0.2450
   71MOL    C5723997   1.906   4.834   5.658  0.1037  0.4873 -0.6449
   71MOL    O5823998   1.886   4.936   5.755 -0.4773  1.0764 -0.6785
   71MOL    C5923999   1.909   4.885   5.528 -0.6809 -0.1864  0.3360
   71MOL    C6024000   1.932   4.789   5.426 -0.0092 -0.1176  0.0350
   71MOL    C6124001   2.115   4.516   5.325  0.8839  0.0664  0.8209
   71MOL    H6224002   1.932   4.608   5.248  3.1307 -1.1100 -1.9475
   71MOL    H6324003   1.970   4.499   5.613  1.5998  0.7948  1.8540
   71MOL    H6424004   1.921   4.660   5.791 -0.9906  0.5377 -0.0096
   71MOL    H6524005   1.843   5.012   5.719  1.3661  2.1716 -0.6263
   71MOL    H6624006   1.901   4.990   5.503  0.6916  0.3456  1.9915
   71MOL    H6724007   1.934   4.822   5.323  0.9816  0.0258  0.0960
   71MOL    H6824008   2.156   4.432   5.381  1.0696 -0.4539 -0.0852
   71MOL    H6924009   2.155   4.606   5.371  0.1955  2.0085 -2.2000
   71MOL    C7024010   2.164   4.509   5.178 -0.6985  0.6423  0.5881
   71MOL    C7124011   2.131   4.366   5.122 -0.0396 -0.0122 -0.0446
   71MOL    C7224012   2.030   4.351   5.027 -0.0705  0.3089 -0.4995
   71MOL    C7324013   1.992   4.223   4.982  0.6099 -0.1681  0.1493
   71MOL    C7424014   2.044   4.108   5.046  0.7405  0.3434 -0.3471
   71MOL    O7524015   1.995   3.984   5.008 -0.7976 -0.5069  0.0847
   71MOL    C7624016   2.161   4.122   5.129  1.2443  0.0586 -0.8482
   71MOL    C7724017   2.197   4.248   5.172  0.3910 -0.2940  0.2639
   71MOL    C7824018   2.317   4.539   5.176 -0.6314  0.0581 -0.0071
   71MOL    H7924019   2.119   4.583   5.113  0.2393  1.0312  0.3674
   71MOL    H8024020   1.994   4.445   4.988  1.6002  1.0446 -0.2944
   71MOL    H8124021   1.916   4.213   4.906 -0.2151  0.0022  0.9420
   71MOL    H8224022   1.999   3.922   5.080  1.7666 -1.6388 -0.9596
   71MOL    H8324023   2.209   4.033   5.167 -0.1779 -0.2892  0.1902
   71MOL    H8424024   2.273   4.249   5.249 -0.1807  1.0400  0.8135
   71MOL    H8524025   2.369   4.502   5.087 -1.7342 -0.9156 -0.2442
   71MOL    H8624026   2.366   4.487   5.258  0.0913 -0.4701 -0.7701
   71MOL    C8724027   2.344   4.692   5.196 -0.8015  0.2897 -0.1210
   71MOL    C8824028   2.316   4.783   5.074  0.3521  0.8756  0.2377
   71MOL    C8924029   2.384   4.764   4.952 -0.4842 -0.3275  0.3068
   71MOL    C9024030   2.346   4.843   4.839 -1.0766  0.2762  0.0543
   71MOL    C9124031   2.256   4.952   4.851  0.1565  0.1962 -0.3465
   71MOL    O9224032   2.228   5.023   4.739  0.0435  0.0660  0.0955
   71MOL    C9324033   2.188   4.972   4.973 -0.2650 -1.3757 -0.0382
   71MOL    C9424034   2.218   4.882   5.080  0.4788 -0.8405 -0.9467
   71MOL    C9524035   2.482   4.740   5.259  0.4139  0.1518  0.1369
   71MOL    H9624036   2.265   4.724   5.264 -1.5527 -2.1471  0.1851
   71MOL    H9724037   2.464   4.692   4.947  0.5450  0.8641 -0.6630
   71MOL    H9824038   2.394   4.840   4.742 -1.7065 -0.5708 -0.2451
   71MOL    H9924039   2.166   5.093   4.750  0.3202  0.3238  0.0146
   71MOL   H10024040   2.110   5.045   4.985 -0.6952 -2.0909  1.6224
   71MOL   H10124041   2.170   4.887   5.177  1.8875 -2.3465 -0.1279
   71MOL   H10224042   2.561   4.696   5.198  0.3093 -0.4114  0.4159
   71MOL   H10324043   2.497   4.847   5.243 -1.5559  0.3821 -0.2210
   71MOL   C10424044   2.499   4.694   5.405 -0.1107 -0.7944  0.7498
   71MOL   C10524045   2.462   4.810   5.500  1.1221  0.2128 -0.0443
   71MOL   C10624046   2.335   4.821   5.570  0.4114 -0.2424  0.1126
   71MOL   C10724047   2.299   4.925   5.653  0.1169 -0.9583  0.6092
   71MOL   C10824048   2.390   5.036   5.658  0.1218  0.4661 -0.5456
   71MOL   O10924049   2.358   5.150   5.724  0.4165 -0.6241 -0.5809
   71MOL   C11024050   2.518   5.020   5.606 -0.3625 -0.6331 -0.2901
   71MOL   C11124051   2.552   4.910   5.524 -0.3538  0.0506 -0.3586
   71MOL   C11224052   2.629   4.617   5.426 -0.6614  0.1260  0.0566
   71MOL   H11324053   2.419   4.623   5.425 -1.6830  0.6571 -0.2332
   71MOL   H11424054   2.265   4.743   5.544  1.1035 -0.4615 -1.1647
   71MOL   H11524055   2.202   4.939   5.697  0.0107 -1.1908  0.4491
   71MOL   H11624056   2.432   5.173   5.777 -1.4748  1.9123  1.0986
   71MOL   H11724057   2.596   5.095   5.605  0.0066 -1.0216 -0.4640
   71MOL   H11824058   2.647   4.923   5.473 -0.0008 -1.5599 -0.1586
   71MOL   H11924059   2.709   4.689   5.408  0.1415 -1.1319 -1.4695
   71MOL   H12024060   2.637   4.549   5.342 -0.0435 -0.7968  0.8501
   71MOL   C12124061   2.646   4.536   5.555  0.3406 -0.4726 -0.2441
   71MOL   C12224062   2.531   4.432   5.571  0.1711  0.4078  0.6581
   71MOL   C12324063   2.447   4.435   5.680 -0.3088 -0.2460 -0.2567
   71MOL   C12424064   2.360   4.329   5.702  0.3412 -0.4477 -0.0029
   71MOL   C12524065   2.344   4.223   5.616  0.4098 -0.4724  0.6862
   71MOL   O12624066   2.272   4.115   5.643  0.9221  0.0864 -0.1060
   71MOL   C12724067   2.425   4.225   5.495 -0.3505 -0.3164  0.3264
   71MOL   C12824068   2.510   4.335   5.471  0.7531 -0.8559 -0.5093
   71MOL   C12924069   2.787   4.468   5.561 -0.0887 -0.2369  0.5078
   71MOL   H13024070   2.647   4.598   5.645  1.4251  1.0052 -1.2573
   71MOL   H13124071   2.461   4.507   5.760  0.5828 -0.5347 -0.1454
   71MOL   H13224072   2.294   4.338   5.787  1.2977  0.8142  0.6187
   71MOL   H13324073   2.226   4.135   5.723  1.1498 -0.0924  0.0696
   71MOL   H13424074   2.409   4.142   5.428 -0.6307 -0.2089  0.2633
   71MOL   H13524075   2.564   4.334   5.377  0.1908 -0.9679 -0.8320
   71MOL   H13624076   2.858   4.550   5.565 -1.1261  0.6848  0.1141
   71MOL   H13724077   2.811   4.414   5.470 -0.1204  2.2131 -0.9806
   71MOL   C13824078   2.803   4.367   5.680 -0.1522  0.1493 -0.3506
   71MOL   C13924079   2.778   4.444   5.810 -0.5092  0.6061  0.3295
   71MOL   C14024080   2.678   4.409   5.902 -0.0007  0.4405 -0.1615
   71MOL   C14124081   2.654   4.492   6.016 -0.5666  0.6855  0.0755
   71MOL   C14224082   2.735   4.609   6.039  0.5525  0.1372  0.5839
   71MOL   O14324083   2.712   4.689   6.150 -0.2191  0.0198  0.0629
   71MOL   C14424084   2.838   4.633   5.946  0.5717 -0.4027 -0.7683
   71MOL   C14524085   2.865   4.554   5.835 -0.3153  0.0147 -0.1810
   71MOL   C14624086   2.937   4.282   5.684  0.0086 -0.5457  0.0782
   71MOL   H14724087   2.722   4.295   5.677 -0.3350  0.2619  1.1306
   71MOL   H14824088   2.626   4.317   5.880 -3.0034  1.7364  1.2263
   71MOL   H14924089   2.577   4.465   6.087 -2.4965 -2.4645 -3.1156
   71MOL   H15024090   2.625   4.667   6.182  0.5726 -2.0764  0.8289
   71MOL   H15124091   2.903   4.714   5.973 -1.1652  0.2086  1.8198
   71MOL   H15224092   2.936   4.581   5.758 -0.3990 -1.3922 -0.7775
   71MOL   H15324093   2.950   4.240   5.783 -0.1537 -0.6716  0.0482
   71MOL   H15424094   3.009   4.364   5.677  2.0859 -2.4558 -1.4564
   71MOL   C15524095   2.943   4.177   5.575 -0.2177  1.0313 -0.0115
   71MOL   C15624096   2.857   4.058   5.610 -0.2130 -0.3725  0.4200
   71MOL   C15724097   2.733   4.055   5.550  0.5279 -0.4244  0.0210
   71MOL   C15824098   2.646   3.949   5.577 -0.2791  0.2950  0.6263
   71MOL   C15924099   2.679   3.846   5.665  0.5626  1.0156  0.1668
   71MOL   O16024100   2.582   3.750   5.689 -0.1144  0.1896 -0.3783
   71MOL   C16124101   2.806   3.845   5.721 -0.4836 -0.5962  1.0497
   71MOL   C16224102   2.894   3.954   5.695 -0.0188 -0.2019 -0.7086
   71MOL   C16324103   3.086   4.135   5.527  0.1279  0.8559  0.1638
   71MOL   H16424104   2.895   4.219   5.487 -0.5599  0.6140 -0.0248
   71MOL   H16524105   2.693   4.125   5.478 -2.5126 -1.7621  0.3387
   71MOL   H16624106   2.546   3.957   5.537  0.7182 -0.1357 -2.0439
   71MOL   H16724107   2.614   3.684   5.749  2.3728  0.0064 -1.8008
   71MOL   H16824108   2.826   3.768   5.793 -0.8334 -0.2122  1.5617
   71MOL   H16924109   2.990   3.956   5.745  1.3821 -0.6841 -3.3371
   71MOL   H17024110   3.138   4.096   5.615 -0.5100  1.5493  0.8475
   71MOL   H17124111   3.145   4.220   5.494 -0.6405  1.1333 -0.5240
   71MOL   C17224112   3.090   4.024   5.414 -0.4803 -0.2085  0.0124
   71MOL   C17324113   3.229   3.964   5.408  0.2381  0.1160  0.1590
   71MOL   C17424114   3.328   4.025   5.330  0.1086 -0.2851  0.0739
   71MOL   C17524115   3.463   3.982   5.345 -0.5388 -0.1212 -0.6339
   71MOL   C17624116   3.496   3.884   5.440  0.7568 -0.2861  0.0536
   71MOL   O17724117   3.629   3.847   5.440  0.1281 -0.2852  0.3700
   71MOL   C17824118   3.391   3.804   5.501 -0.6469  0.2314 -0.1510
   71MOL   C17924119   3.258   3.849   5.483  0.5153  0.0807 -0.2004
   71MOL   C18024120   3.032   4.077   5.277  0.5430 -0.8718  0.3350
   71MOL   H18124121   3.029   3.939   5.446 -0.3501 -0.1847  0.3251
   71MOL   H18224122   3.301   4.109   5.268  0.1185 -0.9863 -0.8965
   71MOL   H18324123   3.538   4.039   5.293 -0.1703  1.3136  1.3876
   71MOL   H18424124   3.667   3.887   5.517 -0.9035  3.0779 -0.7499
   71MOL   H18524125   3.409   3.723   5.569 -0.1538  1.8375  1.6835
   71MOL   H18624126   3.172   3.813   5.537  0.2498 -0.5797 -1.0500
   71MOL   H18724127   3.101   4.137   5.217 -0.2546 -1.7035 -1.4397
   71MOL   H18824128   2.961   4.152   5.312  0.3923 -1.5418  1.4946
   71MOL   C18924129   2.955   3.981   5.185  0.4227 -0.6744 -0.3516
   71MOL   C19024130   2.882   4.062   5.079 -0.0518  0.0026  0.5236
   71MOL   C19124131   2.946   4.122   4.973 -0.7709 -0.6088 -0.1437
   71MOL   C19224132   2.885   4.218   4.895  0.2400 -0.0124 -0.6902
   71MOL   C19324133   2.750   4.250   4.914  0.1350 -0.0702  0.4134
   71MOL   O19424134   2.687   4.335   4.825 -0.0614  0.1885 -0.1118
   71MOL   C19524135   2.680   4.183   5.014  0.8528  0.4762 -0.3369
   71MOL   C19624136   2.746   4.090   5.096  0.4042 -0.2380  0.2407
   71MOL   C19724137   3.027   3.851   5.124  0.0808 -0.1162 -0.5650
   71MOL   H19824138   2.885   3.941   5.260  0.3580 -0.1049 -0.1054
   71MOL   H19924139   3.050   4.091   4.965  0.2751  2.3334  1.4345
   71MOL   H20024140   2.948   4.267   4.822  1.5732  0.2351  0.6243
   71MOL   H20124141   2.595   4.358   4.833 -0.6148 -1.0966 -2.3578
   71MOL   H20224142   2.575   4.201   5.033  0.8846 -0.0926  0.4377
   71MOL   H20324143   2.700   4.047   5.184  0.3415 -2.2753 -0.7677
   71MOL   H20424144   3.085   3.808   5.205  1.2829 -1.1554 -1.9423
   71MOL   H20524145   3.095   3.883   5.044  2.1040 -1.1957  0.6764
   71MOL   C20624146   2.917   3.750   5.066  0.4978 -0.3507  0.4674
   71MOL   C20724147   2.831   3.689   5.175 -0.0646 -0.3703  0.3345
   71MOL   C20824148   2.882   3.580   5.246  0.5833 -0.6959 -0.8823
   71MOL   C20924149   2.807   3.527   5.355  0.6209  0.7633 -0.1645
   71MOL   C21024150   2.682   3.579   5.396  0.0035 -0.3817 -0.8325
   71MOL   O21124151   2.618   3.533   5.510 -0.4093  0.0977 -0.3736
   71MOL   C21224152   2.630   3.680   5.318 -0.2560  0.7213  0.1321
   71MOL   C21324153   2.702   3.734   5.205  0.4958  0.7865  0.2503
   71MOL   C21424154   2.986   3.651   4.970  0.5506  1.0306  0.0279
   71MOL   H21524155   2.850   3.803   4.998  1.1147 -1.0637 -0.7191
   71MOL   H21624156   2.980   3.541   5.221  1.5558  0.8532  0.3808
   71MOL   H21724157   2.849   3.450   5.418  1.2719  0.3792 -1.0496
   71MOL   H21824158   2.572   3.599   5.560 -1.3439 -0.8329  0.0099
   71MOL   H21924159   2.540   3.727   5.354 -0.7126  0.5792 -0.8062
   71MOL   H22024160   2.666   3.814   5.142  2.1499 -0.1574 -1.9854
   71MOL   H22124161   2.915   3.572   4.942  1.6512 -0.3202  0.9965
   71MOL   H22224162   3.069   3.588   5.002  0.8972 -0.4148 -3.5142
   71MOL   C22324163   3.039   3.710   4.836  0.8923  0.7237 -0.0319
   71MOL   C22424164   2.961   3.670   4.717 -0.2125 -0.0962 -0.3817
   71MOL   C22524165   2.856   3.754   4.671  0.2165 -0.4962 -0.1169
   71MOL   C22624166   2.780   3.718   4.557  0.7257  0.2102 -0.2197
   71MOL   C22724167   2.813   3.599   4.496  0.1872 -0.0568  0.2844
   71MOL   O22824168   2.750   3.556   4.382 -0.1059  0.0634  0.1362
   71MOL   C22924169   2.919   3.514   4.546  0.4780 -0.2163  0.1676
   71MOL   C23024170   2.989   3.546   4.656 -0.3342 -0.4535 -0.1552
   71MOL   C23124171   3.194   3.689   4.822 -0.2018  0.0675  0.1742
   71MOL   H23224172   3.026   3.818   4.837  0.8404  0.7014  1.6630
   71MOL   H23324173   2.832   3.843   4.728 -1.6256 -0.7109 -0.5239
   71MOL   H23424174   2.698   3.782   4.527  0.0730 -1.0917 -1.2592
   71MOL   H23524175   2.734   3.632   4.327  0.1810  0.4899  0.6351
   71MOL   H23624176   2.942   3.421   4.497  2.3897  0.2916  0.0804
   71MOL   H23724177   3.052   3.469   4.699  1.4550 -0.6988 -3.0695
   71MOL   H23824178   3.251   3.736   4.901  1.3901  3.3622 -2.8035
   71MOL   H23924179   3.211   3.583   4.840 -0.1376  0.4784  2.6196
   71MOL   C24024180   3.257   3.728   4.686  0.3414 -0.6329 -0.2410
   71MOL   C24124181   3.226   3.876   4.668  0.1566 -0.0145 -0.5030
   71MOL   C24224182   3.296   3.973   4.741  0.4820  0.4797  0.1273
   71MOL   C24324183   3.258   4.112   4.727 -0.2447 -0.9079 -0.5901
   71MOL   C24424184   3.165   4.150   4.630 -0.3986 -0.6887  0.1983
   71MOL   O24524185   3.123   4.282   4.618  0.0881 -0.4072 -0.0910
   71MOL   C24624186   3.104   4.054   4.549 -0.4478 -0.3364  0.1595
   71MOL   C24724187   3.132   3.919   4.575  0.5161  0.0090 -0.5403
   71MOL   C24824188   3.398   3.702   4.663  0.2053  0.0970 -0.3023
   71MOL   H24924189   3.202   3.667   4.615 -1.3474  0.4205  0.1394
   71MOL   H25024190   3.364   3.948   4.821  0.8380  1.9898  0.3035
   71MOL   H25124191   3.302   4.184   4.794  0.9492  0.5522 -2.8785
   71MOL   H25224192   3.074   4.297   4.539 -0.4414  1.2649  0.5365
   71MOL   H25324193   3.043   4.076   4.463 -0.8507 -0.9912  0.2762
   71MOL   H25424194   3.076   3.856   4.508 -0.7548  1.6893 -1.1032
   71MOL   H25524195   3.435   3.749   4.572 -1.1888  1.8682  0.0232
   71MOL   H25624196   3.453   3.759   4.737 -2.6514  1.2381  0.9690
   71MOL   C25724197   3.456   3.561   4.679  0.6598  0.0643  1.0482
   71MOL   C25824198   3.367   3.453   4.603 -1.7404  0.0661  0.2453
   71MOL   C25924199   3.328   3.336   4.668 -0.2138 -0.1190  0.3158
   71MOL   C26024200   3.248   3.239   4.603 -0.2150 -0.4552  0.5884
   71MOL   C26124201   3.216   3.252   4.470  0.0825 -0.0983  0.4589
   71MOL   O26224202   3.146   3.155   4.412 -0.6307  0.4262  0.2845
   71MOL   C26324203   3.266   3.362   4.402 -0.8695 -0.1470  0.6542
   71MOL   C26424204   3.338   3.463   4.465  0.7814  0.1332 -0.1120
   71MOL   C26524205   3.608   3.546   4.657 -0.3506 -0.4848  0.0926
   71MOL   H26624206   3.450   3.539   4.785  1.8421  0.5105  1.2212
   71MOL   H26724207   3.349   3.324   4.773 -2.1702 -0.2252  0.7190
   71MOL   H26824208   3.211   3.166   4.673 -0.7096 -1.4344 -0.6698
   71MOL   H26924209   3.067   3.114   4.443 -0.7739 -0.7649 -1.5887
   71MOL   H27024210   3.234   3.385   4.301 -2.4911  2.6451  1.7351
   71MOL   H27124211   3.372   3.547   4.407 -1.1889  1.2365  0.3048
   71MOL   H27224212   3.655   3.638   4.621  0.7005 -0.6304  1.0857
   71MOL   H27324213   3.613   3.481   4.569  0.5144 -1.8945  1.1518
   71MOL   C27424214   3.697   3.485   4.771 -0.3158 -0.2581  0.1907
   71MOL   C27524215   3.706   3.587   4.881 -0.0329 -0.0123  0.3528
   71MOL   C27624216   3.626   3.567   4.996  0.6031  0.0199  0.1915
   71MOL   C27724217   3.624   3.663   5.100  0.4199  0.0056  0.4550
   71MOL   C27824218   3.685   3.790   5.078  0.5085 -0.4635 -0.0601
   71MOL   O27924219   3.695   3.892   5.168 -0.3484  0.5942  0.3589
   71MOL   C28024220   3.744   3.813   4.952 -0.4196 -0.6338 -0.2220
   71MOL   C28124221   3.764   3.713   4.860  0.5092  0.3056 -0.3891
   71MOL   C28224222   3.833   3.438   4.721  0.0999 -0.1379  0.2738
   71MOL   H28324223   3.640   3.404   4.817 -0.1586  0.0671  0.9671
   71MOL   H28424224   3.561   3.482   5.006  0.6638  0.0450  0.7920
   71MOL   H28524225   3.564   3.645   5.188 -0.4773  0.8417  0.0306
   71MOL   H28624226   3.665   3.864   5.253 -2.1045  1.0135 -0.0956
   71MOL   H28724227   3.790   3.908   4.929  0.4363 -1.1199 -0.5315
   71MOL   H28824228   3.805   3.746   4.765  0.3610  1.0357 -0.2015
   71MOL   H28924229   3.832   3.350   4.657 -0.3383  0.7553 -0.9602
   71MOL   H29024230   3.867   3.516   4.652  1.0922  1.3722  2.3905
   71MOL   C29124231   3.941   3.435   4.836  0.4027  0.3471 -0.7191
   71MOL   C29224232   4.084   3.415   4.788 -0.3608  0.0207 -0.1101
   71MOL   C29324233   4.120   3.302   4.715  0.2426 -1.1244 -0.2331
   71MOL   C29424234   4.246   3.273   4.677 -0.4541 -0.3641  0.4788
   71MOL   C29524235   4.347   3.367   4.712  0.3460  0.4129  0.6782
   71MOL   O29624236   4.468   3.346   4.661 -0.0456  0.7328  0.1067
   71MOL   C29724237   4.317   3.481   4.788 -0.0303 -0.0451 -0.5676
   71MOL   C29824238   4.189   3.504   4.821  1.4122 -0.4491  0.2508
   71MOL   C29924239   3.907   3.327   4.950  0.6202 -0.9178 -0.3363
   71MOL   H30024240   3.939   3.532   4.886 -2.2189 -0.9493  1.8772
   71MOL   H30124241   4.040   3.230   4.708 -0.8145  0.1968 -2.2350
   71MOL   H30224242   4.269   3.194   4.607 -2.0534 -0.6599  0.2792
   71MOL   H30324243   4.492   3.255   4.661 -1.2328  0.4146  0.0337
   71MOL   H30424244   4.397   3.550   4.809  0.0386  0.5455 -2.6537
   71MOL   H30524245   4.164   3.594   4.874 -0.5111  0.3545 -1.9373
   71MOL   H30624246   3.919   3.231   4.900 -0.2702 -0.9294 -0.5442
   71MOL   H30724247   3.801   3.332   4.975  1.0646  2.2655  1.0970
   71MOL   C30824248   4.005   3.326   5.073 -0.1173 -0.7559 -0.4255
   71MOL   C30924249   3.985   3.207   5.159 -0.9683 -0.4707  0.1458
   71MOL   C31024250   3.886   3.194   5.268 -0.7858 -0.3670  0.0703
   71MOL   C31124251   3.882   3.071   5.334 -0.5556  0.8222 -0.6251
   71MOL   C31224252   3.940   2.955   5.280  0.1459  0.0278  0.1763
   71MOL   O31324253   3.928   2.838   5.345 -0.1623 -0.7288  0.0156
   71MOL   C31424254   4.027   2.960   5.170  0.9147 -0.4084 -0.6028
   71MOL   C31524255   4.052   3.092   5.118  0.1492 -0.1965 -0.0114
   71MOL   C31624256   3.991   3.452   5.157  0.3189 -1.1257  0.0698
   71MOL   H31724257   4.104   3.315   5.031  0.3150  0.7359  0.1694
   71MOL   H31824258   3.822   3.276   5.297 -2.9240 -2.1099  0.3505
   71MOL   H31924259   3.810   3.054   5.413 -1.4276  1.9582 -1.1552
   71MOL   H32024260   3.900   2.848   5.434  0.3990 -3.7702  0.5806
   71MOL   H32124261   4.069   2.869   5.130 -0.3986 -1.5639  0.6001
   71MOL   H32224262   4.128   3.101   5.042  1.1906  0.3127  1.0570
   71MOL   H32324263   3.892   3.450   5.202  0.2719  0.1773  0.0484
   71MOL   H32424264   3.991   3.535   5.086  0.5847 -3.4721 -2.7202
   71MOL   C32524265   4.094   3.489   5.262 -0.7053  0.5308  0.2759
   71MOL   C32624266   4.041   3.603   5.351 -0.8483  0.2962  0.0761
   71MOL   C32724267   4.081   3.598   5.486  0.7425 -0.3440  0.4783
   71MOL   C32824268   4.049   3.698   5.573 -0.3898 -0.0113 -0.4030
   71MOL   C32924269   3.978   3.811   5.528  0.1143 -0.2270  0.6100
   71MOL   O33024270   3.948   3.918   5.607 -0.1802  0.0868 -0.0053
   71MOL   C33124271   3.933   3.811   5.394  0.1940  0.6771 -0.0862
   71MOL   C33224272   3.962   3.707   5.306 -0.0640  0.1528  0.4899
   71MOL   C33324273   4.231   3.538   5.197  0.4480  0.2457  0.2026
   71MOL   H33424274   4.116   3.401   5.323  1.8402  0.1713 -1.0814
   71MOL   H33524275   4.138   3.511   5.515 -0.0687 -2.0270 -2.7116
   71MOL   H33624276   4.081   3.692   5.676  0.2343 -0.3022 -0.6155
   71MOL   H33724277   3.873   3.895   5.660  0.0628  2.4314  1.4412
   71MOL   H33824278   3.885   3.896   5.347  1.1642  0.8564 -0.7814
   71MOL   H33924279   3.933   3.717   5.202 -1.3137 -0.3178  0.7838
   71MOL   H34024280   4.292   3.582   5.276 -0.0603  2.6843 -0.7331
   71MOL   H34124281   4.227   3.623   5.129  2.2516 -0.3794 -0.7141
   71MOL   H34224282   4.292   3.458   5.153  0.0336  0.9056 -1.5978
   72MOL     C124283   3.745   7.143   7.972  0.3873 -0.3722  0.7154
   72MOL     C224284   3.636   7.229   8.030 -0.0146 -0.2819 -0.1331
   72MOL     C324285   3.508   7.176   0.026 -0.0240  0.2802 -0.0470
   72MOL     C424286   3.410   7.264   0.069  0.1965  0.4083 -0.0683
   72MOL     C524287   3.440   7.400   0.076  0.5250  0.3108  0.0831
   72MOL     O624288   3.339   7.481   0.115  0.0807 -0.1601 -0.0318
   72MOL     C724289   3.569   7.453   0.041  0.2692  0.3538  0.6536
   72MOL     C824290   3.664   7.365   0.003  0.0037  0.6768 -0.2720
   72MOL     C924291   3.752   7.141   7.814 -0.0278 -0.5170 -0.1826
   72MOL    H1024292   3.842   7.179   8.007 -1.4079  2.1370  3.4106
   72MOL    H1124293   3.486   7.070   0.019 -1.4551  0.5850 -0.3412
   72MOL    H1224294   3.310   7.229   0.088  0.2235 -0.1301 -0.9256
   72MOL    H1324295   3.355   7.574   0.116 -0.6162  0.0143 -2.2350
   72MOL    H1424296   3.598   7.557   0.051  0.4342  0.3069  0.6724
   72MOL    H1524297   3.760   7.403   8.007  0.8239 -0.8951  0.2697
   72MOL    H1624298   3.768   7.244   7.783 -0.0380 -0.6679 -0.6872
   72MOL    H1724299   3.658   7.107   7.771  0.9568 -0.7099 -2.2684
   72MOL    H1824300   3.723   7.045   8.015  1.5020 -2.1013 -2.5519
   72MOL    C1924301   3.882   7.076   7.755 -0.1390  0.5232 -0.0744
   72MOL    C2024302   4.000   7.128   7.827 -0.4843 -0.2265  0.5943
   72MOL    C2124303   4.087   7.038   7.899  0.4031 -0.0499 -0.1421
   72MOL    C2224304   4.185   7.089   7.985  0.2634  0.3048  0.7462
   72MOL    C2324305   4.219   7.222   7.971  0.4902 -0.0479  0.6330
   72MOL    O2424306   4.318   7.274   0.007  0.1981 -0.4325 -0.0406
   72MOL    C2524307   4.144   7.306   7.887 -0.3872  0.2145  0.0494
   72MOL    C2624308   4.031   7.260   7.819 -0.4377  0.0630 -0.3226
   72MOL    C2724309   3.894   7.097   7.600 -0.2055  0.1869 -0.2351
   72MOL    H2824310   3.873   6.969   7.776  0.1862  0.2255 -1.3989
   72MOL    H2924311   4.063   6.933   7.905 -3.3333  0.6659 -1.4696
   72MOL    H3024312   4.242   7.020   0.007  2.3858 -0.9383 -2.5924
   72MOL    H3124313   4.330   7.366   8.030  1.7890 -0.8845 -1.8026
   72MOL    H3224314   4.172   7.408   7.864  0.2162 -0.3696 -1.9801
   72MOL    H3324315   3.979   7.326   7.751 -1.8133  0.7746  1.3923
   72MOL    H3424316   3.999   7.094   7.569  0.8750  1.2259  3.1203
   72MOL    H3524317   3.874   7.204   7.587  0.7925  0.2797 -1.1201
   72MOL    C3624318   3.800   7.024   7.501 -0.0433 -0.3809 -0.1048
   72MOL    C3724319   3.796   6.875   7.531  0.7002  0.4604  0.1514
   72MOL    C3824320   3.672   6.827   7.583  0.4144  0.0975 -0.5401
   72MOL    C3924321   3.658   6.694   7.624  0.6031  0.2140  0.0387
   72MOL    C4024322   3.770   6.607   7.621 -0.1990  0.2270  0.0252
   72MOL    O4124323   3.765   6.472   7.637 -0.4343 -0.0812  0.1338
   72MOL    C4224324   3.900   6.664   7.581  0.1181  0.0142 -0.6550
   72MOL    C4324325   3.911   6.792   7.529  0.2077  0.5810  0.0908
   72MOL    C4424326   3.824   7.048   7.353 -0.4478 -0.5740 -0.0798
   72MOL    H4524327   3.702   7.065   7.527  0.3815 -1.2005  3.0530
   72MOL    H4624328   3.584   6.889   7.590 -0.1367 -0.4178 -2.4464
   72MOL    H4724329   3.560   6.656   7.649  0.6676  0.9650  1.4758
   72MOL    H4824330   3.792   6.424   7.560 -1.7281 -0.2624 -0.2088
   72MOL    H4924331   3.980   6.593   7.569 -0.4865 -0.5145 -1.6678
   72MOL    H5024332   4.011   6.825   7.504  0.1341 -0.0533 -1.0881
   72MOL    H5124333   3.830   7.155   7.335 -1.3201 -0.4524  0.3345
   72MOL    H5224334   3.925   7.015   7.327  0.5726  3.1636 -1.0761
   72MOL    C5324335   3.730   6.992   7.243  0.5055  0.3872 -0.5741
   72MOL    C5424336   3.588   7.036   7.262  0.1480  0.2360  0.2453
   72MOL    C5524337   3.483   6.946   7.311  0.1018  0.3404  0.3610
   72MOL    C5624338   3.346   6.983   7.307 -0.2404  0.8798  0.2038
   72MOL    C5724339   3.309   7.116   7.276  0.2669  0.4259 -0.3209
   72MOL    O5824340   3.190   7.174   7.302 -0.3274 -0.0866  0.4096
   72MOL    C5924341   3.411   7.203   7.232  0.5583  0.1598 -0.1352
   72MOL    C6024342   3.548   7.165   7.222 -0.0252  0.3877 -0.7813
   72MOL    C6124343   3.779   7.013   7.096 -0.2458 -0.1297  0.6941
   72MOL    H6224344   3.731   6.885   7.265  1.2830  0.4788 -0.1795
   72MOL    H6324345   3.517   6.850   7.346  0.2668 -0.2239 -1.2998
   72MOL    H6424346   3.274   6.916   7.351 -2.4100  3.5092  0.7763
   72MOL    H6524347   3.116   7.121   7.328 -1.2993  0.3406 -1.3897
   72MOL    H6624348   3.390   7.309   7.223  1.6939  0.6701  2.8016
   72MOL    H6724349   3.620   7.239   7.192 -1.0342  0.7178 -2.4620
   72MOL    H6824350   3.820   7.114   7.098  1.9837 -1.0164  1.3288
   72MOL    H6924351   3.688   7.003   7.037 -1.3264 -0.2284  2.3515
   72MOL    C7024352   3.878   6.914   7.032 -0.0871 -0.0093  0.3775
   72MOL    C7124353   4.001   6.985   6.996 -0.1909  0.1031 -0.7631
   72MOL    C7224354   4.107   6.992   7.084 -0.0545 -0.3940 -0.0825
   72MOL    C7324355   4.229   7.051   7.044  0.2391  0.5183  0.1029
   72MOL    C7424356   4.241   7.119   6.921  0.4030  0.3621  0.7466
   72MOL    O7524357   4.349   7.185   6.882  0.2978 -0.1537 -0.1318
   72MOL    C7624358   4.127   7.121   6.838  0.1757 -0.4296 -0.2788
   72MOL    C7724359   4.003   7.053   6.874  0.5085  0.3439 -0.5763
   72MOL    C7824360   3.801   6.821   6.932  0.1108  0.2251 -0.1312
   72MOL    H7924361   3.907   6.859   7.122 -0.0945 -1.4394 -0.4733
   72MOL    H8024362   4.095   6.928   7.170  0.1225 -1.2542 -0.6946
   72MOL    H8124363   4.313   7.053   7.112  0.6676  1.3796 -0.4458
   72MOL    H8224364   4.414   7.203   6.948  2.3620 -0.2529 -2.1038
   72MOL    H8324365   4.120   7.177   6.746 -0.3853  0.2571  0.1691
   72MOL    H8424366   3.919   7.052   6.806 -0.4144 -0.8360  0.5537
   72MOL    H8524367   3.869   6.748   6.889  0.0754 -0.2456  0.6026
   72MOL    H8624368   3.764   6.886   6.853  1.5808 -0.1470 -1.1341
   72MOL    C8724369   3.689   6.732   6.985  0.4314 -0.0149  0.6516
   72MOL    C8824370   3.722   6.639   7.106 -0.0116  0.5445  0.2029
   72MOL    C8924371   3.643   6.617   7.219 -0.6579 -0.3008 -0.4633
   72MOL    C9024372   3.665   6.514   7.310  0.3141  0.3198 -0.4750
   72MOL    C9124373   3.789   6.448   7.305  0.5038  0.2148 -0.5611
   72MOL    O9224374   3.832   6.356   7.393  0.6624  0.2732 -0.6887
   72MOL    C9324375   3.874   6.481   7.199  0.4399  1.4625 -0.4535
   72MOL    C9424376   3.845   6.574   7.102  0.1627  1.0620  0.6357
   72MOL    C9524377   3.637   6.638   6.873  0.6604 -0.0235  0.1660
   72MOL    H9624378   3.608   6.797   7.018  1.7968  2.7535 -1.3065
   72MOL    H9724379   3.551   6.674   7.228 -0.5269 -0.3272  1.1951
   72MOL    H9824380   3.603   6.511   7.398 -0.1359  0.1566 -0.7930
   72MOL    H9924381   3.765   6.292   7.410 -1.4361  2.5644  0.0598
   72MOL   H10024382   3.973   6.438   7.198 -0.5044 -0.8109  0.3311
   72MOL   H10124383   3.914   6.593   7.022 -0.6384  1.0765 -0.0607
   72MOL   H10224384   3.614   6.709   6.794  2.8552 -0.3216 -0.7848
   72MOL   H10324385   3.725   6.580   6.845  0.1589 -1.8756  2.2362
   72MOL   C10424386   3.507   6.559   6.889  0.3212 -1.2430  0.4991
   72MOL   C10524387   3.498   6.459   6.771 -0.9069 -1.3382 -0.1460
   72MOL   C10624388   3.481   6.504   6.641  0.3378  1.1039  0.7590
   72MOL   C10724389   3.453   6.417   6.536 -0.3773  0.2184  0.1392
   72MOL   C10824390   3.457   6.275   6.563 -0.5679 -0.5534 -0.4195
   72MOL   O10924391   3.427   6.183   6.469 -0.8247 -0.5416 -0.3387
   72MOL   C11024392   3.486   6.227   6.691  0.1225  0.5196  0.0761
   72MOL   C11124393   3.503   6.319   6.795  0.5179 -0.6714  0.7341
   72MOL   C11224394   3.379   6.648   6.899 -0.2962 -0.8944  0.3380
   72MOL   H11324395   3.514   6.494   6.977 -0.8862 -0.2668  1.3248
   72MOL   H11424396   3.482   6.612   6.635 -0.3397  0.9901 -1.8256
   72MOL   H11524397   3.430   6.456   6.438  0.0040  0.2345  0.0533
   72MOL   H11624398   3.415   6.093   6.494  0.6639  0.0318  2.7176
   72MOL   H11724399   3.482   6.120   6.706  1.8998  0.5858  1.2095
   72MOL   H11824400   3.517   6.284   6.896 -0.4071 -1.6468  0.5269
   72MOL   H11924401   3.368   6.707   6.808 -0.6299 -1.3627  0.0703
   72MOL   H12024402   3.389   6.728   6.972 -0.5693 -1.2089  0.7235
   72MOL   C12124403   3.248   6.573   6.919  0.6480  0.4965  0.6688
   72MOL   C12224404   3.234   6.529   7.066 -0.4616  0.8526  0.7528
   72MOL   C12324405   3.212   6.398   7.099  0.5511 -0.3576  0.3807
   72MOL   C12424406   3.198   6.353   7.228  0.0506 -0.0908 -0.0242
   72MOL   C12524407   3.221   6.450   7.330 -0.2413 -0.3121  0.6234
   72MOL   O12624408   3.211   6.412   7.458 -0.3671  0.4180  0.2182
   72MOL   C12724409   3.239   6.585   7.305  0.4203 -0.8104  0.3462
   72MOL   C12824410   3.244   6.630   7.167 -0.0591  0.1282 -0.2407
   72MOL   C12924411   3.131   6.658   6.872 -0.4271 -0.4979 -0.5178
   72MOL   H13024412   3.254   6.481   6.861  1.9384  2.1889 -1.9901
   72MOL   H13124413   3.195   6.321   7.025  0.8704 -0.1481  0.0821
   72MOL   H13224414   3.173   6.249   7.241 -1.6086  0.3555  0.4965
   72MOL   H13324415   3.222   6.319   7.447  1.3697  0.9632 -3.5212
   72MOL   H13424416   3.249   6.648   7.392  0.3940 -0.4785  0.1099
   72MOL   H13524417   3.255   6.733   7.138  0.7757  0.3585  0.9003
   72MOL   H13624418   3.154   6.737   6.801 -2.2208  1.8219  1.3638
   72MOL   H13724419   3.099   6.720   6.956  0.5491  0.4758 -0.8565
   72MOL   C13824420   3.004   6.576   6.838  0.1257 -0.0085 -0.2370
   72MOL   C13924421   3.046   6.485   6.718 -0.6932 -0.4609  0.2156
   72MOL   C14024422   3.046   6.339   6.728 -0.2967 -0.3906  0.4367
   72MOL   C14124423   3.062   6.267   6.605 -0.4506 -0.4670 -0.0017
   72MOL   C14224424   3.080   6.328   6.485 -0.5731 -0.2509  0.5333
   72MOL   O14324425   3.086   6.254   6.365 -0.4331 -0.7085 -0.2499
   72MOL   C14424426   3.111   6.465   6.483 -0.1291  0.7023 -0.5178
   72MOL   C14524427   3.093   6.547   6.598 -0.5892  0.3012  0.5934
   72MOL   C14624428   2.883   6.667   6.799 -0.1311 -0.9725 -0.0226
   72MOL   H14724429   2.984   6.502   6.916 -0.7549  0.6905  0.2047
   72MOL   H14824430   3.016   6.294   6.821 -2.2956  0.8376  0.4046
   72MOL   H14924431   3.067   6.159   6.606 -4.3483 -0.7238 -0.8579
   72MOL   H15024432   3.146   6.298   6.307  0.5879 -1.6847  0.0365
   72MOL   H15124433   3.140   6.514   6.391  0.1757  1.2467 -0.1381
   72MOL   H15224434   3.116   6.652   6.590  1.9985 -0.3141 -0.5107
   72MOL   H15324435   2.837   6.633   6.707  0.6421 -0.1345 -0.7205
   72MOL   H15424436   2.927   6.764   6.778  0.0886 -0.6050  1.9782
   72MOL   C15524437   2.778   6.686   6.903 -0.0599  0.9291 -0.1409
   72MOL   C15624438   2.821   6.747   7.034 -0.5741 -0.0214  0.0385
   72MOL   C15724439   2.854   6.669   7.150  0.5471  0.3912 -0.7416
   72MOL   C15824440   2.888   6.723   7.272 -0.1196  0.3091  0.0456
   72MOL   C15924441   2.905   6.867   7.278 -0.3864 -0.4877  0.1554
   72MOL   O16024442   2.941   6.932   7.390  0.2230  0.1681  0.1730
   72MOL   C16124443   2.891   6.941   7.160  0.4904  0.4621  0.2600
   72MOL   C16224444   2.843   6.882   7.046 -0.3779 -0.1580  0.1859
   72MOL   C16324445   2.689   6.565   6.931  0.2076 -0.7344 -0.0407
   72MOL   H16424446   2.712   6.758   6.854  0.4482  0.4860 -1.5212
   72MOL   H16524447   2.842   6.562   7.147  0.6495  0.3370  0.4503
   72MOL   H16624448   2.910   6.662   7.358 -2.0057  0.3173  0.5579
   72MOL   H16724449   2.929   6.880   7.468  0.6368 -1.0845 -0.5869
   72MOL   H16824450   2.891   7.048   7.174 -0.3620  0.3460  1.2003
   72MOL   H16924451   2.827   6.944   6.960  2.3282  2.7023  1.6425
   72MOL   H17024452   2.612   6.595   7.003 -0.4242 -1.3658 -0.4449
   72MOL   H17124453   2.753   6.489   6.976  1.3963  0.3887  0.1858
   72MOL   C17224454   2.620   6.504   6.808 -0.3783  0.2414 -0.2666
   72MOL   C17324455   2.557   6.607   6.716 -0.3306  0.1342 -0.0747
   72MOL   C17424456   2.469   6.710   6.761  0.6536 -0.2047 -0.0422
   72MOL   C17524457   2.418   6.797   6.667  0.7097  0.3578  0.5191
   72MOL   C17624458   2.431   6.778   6.526 -0.1376 -0.4760  0.6711
   72MOL   O17724459   2.383   6.873   6.443 -0.3062 -0.0797  0.2099
   72MOL   C17824460   2.529   6.682   6.489  0.8650 -0.3021 -0.2821
   72MOL   C17924461   2.595   6.597   6.577  0.4988  1.3387 -0.7064
   72MOL   C18024462   2.507   6.404   6.843 -0.2019  0.1610  0.0916
   72MOL   H18124463   2.703   6.451   6.760  0.9628 -0.2210  2.4689
   72MOL   H18224464   2.463   6.722   6.868 -0.2758  2.0086 -0.3121
   72MOL   H18324465   2.360   6.884   6.698 -1.0002 -0.1472 -1.1674
   72MOL   H18424466   2.352   6.956   6.476 -1.9128 -0.1582 -0.9841
   72MOL   H18524467   2.558   6.667   6.386 -1.4135 -3.2129 -0.5806
   72MOL   H18624468   2.667   6.524   6.543  0.7764  3.5768 -5.2545
   72MOL   H18724469   2.413   6.439   6.800  0.3859 -0.0705 -1.3779
   72MOL   H18824470   2.489   6.419   6.950 -2.5115 -2.4851  0.1250
   72MOL   C18924471   2.524   6.254   6.803  0.3205  0.2668  0.5467
   72MOL   C19024472   2.571   6.242   6.661 -0.4203  0.7454  0.2710
   72MOL   C19124473   2.467   6.262   6.569  1.0390 -0.5730 -0.3816
   72MOL   C19224474   2.498   6.234   6.433 -0.2119 -0.4635  0.0034
   72MOL   C19324475   2.629   6.234   6.382 -0.8659 -0.1943 -1.2885
   72MOL   O19424476   2.662   6.218   6.257 -0.6989 -0.0953  0.2424
   72MOL   C19524477   2.735   6.225   6.479  0.2810 -0.7110 -0.6797
   72MOL   C19624478   2.706   6.226   6.618  0.0737 -0.1427 -0.0084
   72MOL   C19724479   2.604   6.162   6.902 -0.3920 -0.1149  0.2779
   72MOL   H19824480   2.420   6.224   6.814  0.1045 -0.3606 -2.8598
   72MOL   H19924481   2.368   6.280   6.608  1.6060  0.0039  0.8221
   72MOL   H20024482   2.410   6.210   6.374  0.3489 -0.2974 -0.9130
   72MOL   H20124483   2.590   6.227   6.197 -0.3230 -0.7695 -0.3114
   72MOL   H20224484   2.835   6.215   6.439 -0.3322  0.1402 -2.4683
   72MOL   H20324485   2.784   6.221   6.693 -0.2669 -0.0637  0.3521
   72MOL   H20424486   2.674   6.221   6.962  0.7725  0.4061 -1.5305
   72MOL   H20524487   2.673   6.097   6.848 -0.0560 -1.3311  2.1249
   72MOL   C20624488   2.516   6.082   7.007  0.6081 -0.2294 -0.3162
   72MOL   C20724489   2.420   6.167   7.084  0.0001  0.8291  0.2225
   72MOL   C20824490   2.462   6.276   7.159  0.0476  0.6685  0.1138
   72MOL   C20924491   2.374   6.357   7.242 -0.6541 -0.4973  0.4037
   72MOL   C21024492   2.243   6.315   7.256 -0.1003  0.1419 -0.2463
   72MOL   O21124493   2.167   6.382   7.343  0.4068 -0.3219 -0.1082
   72MOL   C21224494   2.200   6.204   7.183  0.3930  0.2760  0.1198
   72MOL   C21324495   2.286   6.134   7.096 -0.3733  0.1633 -0.0635
   72MOL   C21424496   2.597   5.988   7.107 -0.0617  1.1480 -0.1771
   72MOL   H21524497   2.467   6.020   6.933 -1.4209  2.3706 -1.2283
   72MOL   H21624498   2.563   6.313   7.145  0.1954  1.3939  2.8900
   72MOL   H21724499   2.404   6.437   7.308 -0.0786  1.4512 -2.1513
   72MOL   H21824500   2.077   6.356   7.355 -0.4053  0.8242 -3.1635
   72MOL   H21924501   2.098   6.168   7.184  1.6063 -3.3281 -0.3230
   72MOL   H22024502   2.247   6.055   7.034  0.5737  0.2681 -0.8023
   72MOL   H22124503   2.532   5.954   7.187  0.0032  0.6114 -0.3521
   72MOL   H22224504   2.664   6.051   7.165  1.4429 -1.9174  1.5521
   72MOL   C22324505   2.660   5.858   7.046  1.1195 -0.4667 -0.0884
   72MOL   C22424506   2.558   5.748   7.059 -0.2068  0.1715  0.1377
   72MOL   C22524507   2.548   5.652   7.164  0.3116  0.6284 -0.2064
   72MOL   C22624508   2.462   5.542   7.154 -0.3993 -0.6633 -0.4750
   72MOL   C22724509   2.380   5.523   7.043  0.4945 -0.0623 -0.2807
   72MOL   O22824510   2.306   5.412   7.032 -0.2135 -0.2469 -0.3812
   72MOL   C22924511   2.378   5.614   6.943  0.5185  0.1671 -0.3479
   72MOL   C23024512   2.471   5.724   6.952  0.5949 -0.2457  0.5775
   72MOL   C23124513   2.787   5.812   7.125  0.1317 -0.4463 -0.1000
   72MOL   H23224514   2.687   5.856   6.940  0.5290 -0.3933 -0.2420
   72MOL   H23324515   2.600   5.668   7.257 -2.9263 -2.9667  2.3706
   72MOL   H23424516   2.449   5.470   7.234 -0.3914 -0.0646  0.0671
   72MOL   H23524517   2.246   5.422   6.960 -0.6396  0.5412  0.0682
   72MOL   H23624518   2.309   5.610   6.861  0.6906  1.2039 -0.5587
   72MOL   H23724519   2.484   5.795   6.871 -0.6364 -0.0854  0.5193
   72MOL   H23824520   2.769   5.810   7.233  2.3209 -0.9941  0.2584
   72MOL   H23924521   2.816   5.716   7.084  0.3843  0.8107 -2.9400
   72MOL   C24024522   2.914   5.897   7.107 -0.4004 -0.4524 -0.2899
   72MOL   C24124523   2.910   6.030   7.173  0.2445  0.3201 -0.7422
   72MOL   C24224524   2.922   6.147   7.100 -0.1404  0.0538 -0.5639
   72MOL   C24324525   2.907   6.268   7.168  0.8238  0.0824 -0.2422
   72MOL   C24424526   2.862   6.275   7.297  0.3791 -0.2973  0.2057
   72MOL   O24524527   2.839   6.390   7.361  0.6597 -0.4603 -0.1261
   72MOL   C24624528   2.861   6.161   7.375 -0.0902  0.4755  0.2150
   72MOL   C24724529   2.886   6.036   7.314 -0.8828  0.2916  0.3912
   72MOL   C24824530   3.031   5.804   7.163  0.3820 -0.0287 -0.1849
   72MOL   H24924531   2.919   5.911   6.999 -0.5442 -0.3296 -0.2807
   72MOL   H25024532   2.938   6.134   6.994 -2.1215  0.6758 -0.9486
   72MOL   H25124533   2.921   6.362   7.116  0.4326 -0.1413 -0.7547
   72MOL   H25224534   2.864   6.398   7.452 -0.8187 -2.4776  0.4892
   72MOL   H25324535   2.826   6.171   7.476  0.7969 -1.4976  0.7322
   72MOL   H25424536   2.893   5.944   7.371 -0.7855  0.0216 -0.0609
   72MOL   H25524537   2.995   5.782   7.263  0.3854  3.0139  0.5452
   72MOL   H25624538   3.054   5.716   7.104  3.6877  0.2967  0.5249
   72MOL   C25724539   3.171   5.861   7.199  0.2424  0.1355 -0.0130
   72MOL   C25824540   3.231   5.750   7.296 -0.0029  0.0155 -0.6065
   72MOL   C25924541   3.295   5.635   7.236  0.0326  0.4244  0.3662
   72MOL   C26024542   3.353   5.544   7.326  0.1989  0.1386  0.5870
   72MOL   C26124543   3.352   5.565   7.460 -0.8758  0.2378 -0.1414
   72MOL   O26224544   3.431   5.486   7.542  0.5901  0.1749 -0.3430
   72MOL   C26324545   3.293   5.671   7.517 -0.3577 -0.1676  0.0794
   72MOL   C26424546   3.226   5.764   7.437 -0.3562 -0.6275 -0.2205
   72MOL   C26524547   3.268   5.903   7.090  0.9565 -0.1793 -0.0031
   72MOL   H26624548   3.166   5.946   7.267 -1.8808 -1.2171  1.6152
   72MOL   H26724549   3.313   5.643   7.130  0.6220  1.3161  0.5262
   72MOL   H26824550   3.410   5.462   7.284  2.3407  1.1794  1.3949
   72MOL   H26924551   3.501   5.468   7.480  0.8901  0.1423  0.0042
   72MOL   H27024552   3.285   5.688   7.624  1.1680 -0.1998  0.2100
   72MOL   H27124553   3.179   5.850   7.482  1.9737 -0.2063  1.4879
   72MOL   H27224554   3.243   6.003   7.056  0.3969  0.0553  1.0595
   72MOL   H27324555   3.254   5.847   6.998  1.0800 -1.2571  0.6160
   72MOL   C27424556   3.417   5.897   7.124 -0.8760 -0.5792  0.5396
   72MOL   C27524557   3.462   5.997   7.230 -0.1384 -0.5716  0.3212
   72MOL   C27624558   3.529   5.947   7.341 -0.6161 -0.0829  0.4556
   72MOL   C27724559   3.571   6.034   7.442  0.5946  0.2252  0.0093
   72MOL   C27824560   3.553   6.175   7.423  0.5355  0.0997  0.1404
   72MOL   O27924561   3.597   6.267   7.508  0.2477  0.4836 -0.2717
   72MOL   C28024562   3.497   6.222   7.307  0.1767 -0.0817  0.2100
   72MOL   C28124563   3.446   6.136   7.211  0.1315 -0.0870 -0.3127
   72MOL   C28224564   3.505   5.915   6.995  0.5104 -0.8582 -0.6482
   72MOL   H28324565   3.454   5.800   7.159  0.1556 -0.3028  0.2300
   72MOL   H28424566   3.541   5.840   7.349  1.7006  0.2096  1.4070
   72MOL   H28524567   3.624   6.000   7.530  1.8887  0.8146 -0.5181
   72MOL   H28624568   3.580   6.246   7.599  0.8292  1.0635 -0.0257
   72MOL   H28724569   3.489   6.329   7.295  0.7668 -0.0510  0.1076
   72MOL   H28824570   3.392   6.169   7.123  0.0009 -1.4178 -0.7468
   72MOL   H28924571   3.486   5.843   6.915 -1.2457 -0.3418 -0.7076
   72MOL   H29024572   3.457   5.996   6.941 -1.1652 -0.7540  0.9262
   72MOL   C29124573   3.658   5.937   7.011 -0.3235 -0.1225  0.4427
   72MOL   C29224574   3.714   5.969   6.876  0.7452  0.0827  0.4224
   72MOL   C29324575   3.770   6.100   6.858  0.3600  0.0434  0.8185
   72MOL   C29424576   3.821   6.151   6.736 -0.4656 -0.4750 -0.4323
   72MOL   C29524577   3.821   6.064   6.626  0.1373  0.0491  0.0553
   72MOL   O29624578   3.867   6.106   6.502 -0.5325  0.1730 -0.0339
   72MOL   C29724579   3.774   5.932   6.640  0.5673 -0.5250  0.4453
   72MOL   C29824580   3.727   5.876   6.760 -0.4341  0.0848  0.0424
   72MOL   C29924581   3.725   5.813   7.076  0.5931  0.4122 -0.2587
   72MOL   H30024582   3.676   6.022   7.077 -1.9242 -0.4256  1.2773
   72MOL   H30124583   3.763   6.163   6.945  1.5586 -0.7593  1.5039
   72MOL   H30224584   3.852   6.255   6.733 -0.3418 -0.5460 -1.4596
   72MOL   H30324585   3.867   6.200   6.496 -0.6904  0.0390 -2.5301
   72MOL   H30424586   3.777   5.875   6.548 -0.8050 -0.8610  0.6035
   72MOL   H30524587   3.689   5.775   6.759 -0.4573  0.0988 -0.7689
   72MOL   H30624588   3.704   5.725   7.016  1.9329  1.2570 -2.0162
   72MOL   H30724589   3.685   5.792   7.175 -0.1025  1.6062 -0.2820
   72MOL   C30824590   3.882   5.829   7.086  0.4893 -0.1185 -0.4729
   72MOL   C30924591   3.950   5.702   7.032  0.0068 -0.9683  0.4463
   72MOL   C31024592   4.003   5.694   6.906  0.8973  0.4610 -0.4321
   72MOL   C31124593   4.056   5.579   6.846 -0.1265  0.0280 -0.4084
   72MOL   C31224594   4.050   5.459   6.920  0.6018  0.4989  0.2581
   72MOL   O31324595   4.105   5.338   6.870  0.3173 -0.0326 -0.2711
   72MOL   C31424596   3.994   5.455   7.048 -0.8061 -0.6230  0.0808
   72MOL   C31524597   3.938   5.579   7.097  0.3318  0.4608 -0.4722
   72MOL   C31624598   3.924   5.858   7.233 -0.6149  0.4747  0.3346
   72MOL   H31724599   3.916   5.917   7.032 -1.1857  0.0103 -1.3486
   72MOL   H31824600   3.987   5.782   6.845  1.6442  1.5301  0.8872
   72MOL   H31924601   4.092   5.586   6.744 -1.3860  0.2798 -0.8359
   72MOL   H32024602   4.109   5.346   6.775  2.5661  0.2070 -0.1682
   72MOL   H32124603   3.993   5.365   7.107  0.0245  0.2340  1.4281
   72MOL   H32224604   3.905   5.576   7.199 -0.9358 -1.0793 -0.9025
   72MOL   H32324605   3.930   5.771   7.298  2.9325  0.2835 -0.1388
   72MOL   H32424606   3.848   5.928   7.268 -1.6575 -1.1170  1.3200
   72MOL   C32524607   4.044   5.959   7.254  0.0765 -0.2909 -0.3213
   72MOL   C32624608   4.182   5.916   7.204  0.0355 -0.4040  0.2883
   72MOL   C32724609   4.225   5.781   7.205 -0.2881  0.8675 -0.1708
   72MOL   C32824610   4.353   5.743   7.162 -0.5241  0.0803  0.3880
   72MOL   C32924611   4.436   5.847   7.109 -0.1250  0.6066  0.4284
   72MOL   O33024612   4.561   5.819   7.069  0.1905  0.5190 -0.3116
   72MOL   C33124613   4.392   5.981   7.110 -0.0940  0.2927  0.1895
   72MOL   C33224614   4.263   6.015   7.154  0.1386 -0.4393 -0.2975
   72MOL   C33324615   4.046   6.006   7.401  0.1765  0.0967  0.2421
   72MOL   H33424616   4.015   6.045   7.193 -0.0491 -0.2151 -0.1573
   72MOL   H33524617   4.163   5.704   7.249  1.2405 -1.0253 -1.2228
   72MOL   H33624618   4.388   5.641   7.161  2.6771  1.1057 -1.1787
   72MOL   H33724619   4.566   5.732   7.032 -0.9319  0.5456 -0.5363
   72MOL   H33824620   4.462   6.056   7.074  0.6030  0.3714  1.6548
   72MOL   H33924621   4.231   6.117   7.140  0.1565 -0.5457 -1.1990
   72MOL   H34024622   3.960   6.071   7.420 -1.2664 -1.2577 -1.4740
   72MOL   H34124623   4.131   6.073   7.410  0.5746 -0.4356  0.4853
   72MOL   H34224624   4.054   5.926   7.474 -0.6102  0.2762  0.5390
   73MOL     C124625   5.331   7.794   4.165 -0.2370 -0.1783  0.5065
   73MOL     C224626   5.371   7.784   4.019  1.1944  0.2637  0.0208
   73MOL     C324627   5.365   7.662   3.948 -0.2987 -0.7322 -0.0854
   73MOL     C424628   5.411   7.655   3.810 -0.2158 -0.2867 -0.3174
   73MOL     C524629   5.453   7.770   3.744  0.3387 -0.0007  0.2429
   73MOL     O624630   5.503   7.758   3.621 -0.5896  0.2593 -0.3737
   73MOL     C724631   5.465   7.887   3.820 -0.3624  0.3962 -0.5635
   73MOL     C824632   5.418   7.897   3.953  0.6954  0.4924  0.1127
   73MOL     C924633   5.189   7.744   4.188 -0.4128  0.7064 -0.3382
   73MOL    H1024634   5.394   7.730   4.226 -0.7698  0.0219  1.2716
   73MOL    H1124635   5.319   7.577   3.997  0.1891 -0.4913  0.8097
   73MOL    H1224636   5.402   7.554   3.773 -0.8490 -0.6238  0.7161
   73MOL    H1324637   5.538   7.839   3.587 -0.8404  0.7540  0.5237
   73MOL    H1424638   5.498   7.977   3.770 -1.6863  0.7799 -0.7743
   73MOL    H1524639   5.426   7.993   4.002  1.3104 -0.3471  1.7120
   73MOL    H1624640   5.178   7.642   4.150  2.0772  0.0479  0.5806
   73MOL    H1724641   5.131   7.800   4.115 -0.0364  1.6213  0.0510
   73MOL    H1824642   5.346   7.895   4.202  2.2999 -0.2640 -0.2015
   73MOL    C1924643   5.133   7.747   4.331  0.4552 -0.6074 -0.1393
   73MOL    C2024644   5.222   7.683   4.429  0.4162  0.6176 -0.3074
   73MOL    C2124645   5.209   7.547   4.469  0.3240  0.1040 -0.4095
   73MOL    C2224646   5.294   7.493   4.572 -0.6832 -0.3936 -0.6104
   73MOL    C2324647   5.378   7.583   4.644  0.3080 -0.2789  0.2964
   73MOL    O2424648   5.452   7.535   4.743  0.2337 -0.0302  0.1815
   73MOL    C2524649   5.399   7.709   4.593 -0.3621 -0.1384 -0.1015
   73MOL    C2624650   5.321   7.759   4.492 -0.2664  0.6098 -0.2753
   73MOL    C2724651   4.989   7.689   4.334 -0.0395 -0.0635  0.2814
   73MOL    H2824652   5.128   7.853   4.354 -1.2138 -0.8181  0.5503
   73MOL    H2924653   5.139   7.483   4.418 -0.7674  0.4832  0.5926
   73MOL    H3024654   5.269   7.395   4.609  2.3494 -1.4053 -1.0794
   73MOL    H3124655   5.542   7.566   4.742  0.7275 -1.4130  0.4278
   73MOL    H3224656   5.487   7.763   4.625  0.7330 -2.7351  1.4385
   73MOL    H3324657   5.338   7.859   4.455  0.3265 -0.0562 -1.8435
   73MOL    H3424658   4.960   7.683   4.439 -2.2422 -1.6077 -0.3869
   73MOL    H3524659   4.995   7.589   4.292  0.4674  0.6538 -1.3783
   73MOL    C3624660   4.881   7.776   4.268 -0.2174  0.3748  0.1222
   73MOL    C3724661   4.877   7.917   4.319 -1.1062  0.5300 -0.3911
   73MOL    C3824662   4.888   8.030   4.238 -0.2763 -0.4993  0.6226
   73MOL    C3924663   4.873   0.121   4.290  0.4047 -0.2856 -0.1056
   73MOL    C4024664   4.844   0.137   4.427 -0.3504  0.1740  0.9331
   73MOL    O4124665   4.816   0.258   4.479  0.4596 -0.0549 -0.8736
   73MOL    C4224666   4.835   0.026   4.507 -0.5701 -0.5139 -0.1326
   73MOL    C4324667   4.847   7.937   4.457  0.3171 -0.5405  0.3485
   73MOL    C4424668   4.739   7.715   4.272 -1.1870 -0.6272 -0.5791
   73MOL    H4524669   4.920   7.782   4.167  0.5796  1.4668  0.4848
   73MOL    H4624670   4.895   8.030   4.130  0.5167  0.7744  0.6574
   73MOL    H4724671   4.876   0.206   4.223 -3.8592 -1.0859 -1.4819
   73MOL    H4824672   4.806   0.324   4.412 -0.6190 -0.1857 -0.8527
   73MOL    H4924673   4.820   0.028   4.613 -3.6499  0.7119 -0.5272
   73MOL    H5024674   4.825   7.852   4.520 -2.1835 -0.0615  0.1751
   73MOL    H5124675   4.745   7.609   4.246 -3.4656 -0.5491 -1.5536
   73MOL    H5224676   4.716   7.733   4.377  1.6177 -0.3825  0.0176
   73MOL    C5324677   4.636   7.778   4.181  0.3056 -0.6799  0.2446
   73MOL    C5424678   4.661   7.768   4.034  0.0104 -0.3201 -0.1934
   73MOL    C5524679   4.664   7.638   3.975  0.5571 -0.7427 -0.1446
   73MOL    C5624680   4.692   7.626   3.840 -0.2147 -0.3657  0.8424
   73MOL    C5724681   4.702   7.744   3.758  0.6659  0.2981  0.0851
   73MOL    O5824682   4.710   7.739   3.622  0.7628  0.0516  0.4093
   73MOL    C5924683   4.711   7.873   3.821  0.0071  0.0022 -0.4465
   73MOL    C6024684   4.686   7.884   3.958  0.0617  0.5718  0.4898
   73MOL    C6124685   4.493   7.729   4.206  1.0902 -0.1869  0.0296
   73MOL    H6224686   4.649   7.884   4.201 -5.6121  0.1573  0.2882
   73MOL    H6324687   4.639   7.554   4.038 -0.4242 -0.7382 -0.5176
   73MOL    H6424688   4.693   7.527   3.797  2.7833  0.8488 -2.1385
   73MOL    H6524689   4.721   7.650   3.592 -0.0854  0.0903 -0.0331
   73MOL    H6624690   4.729   7.963   3.763  2.8055 -0.4523 -0.3625
   73MOL    H6724691   4.693   7.982   4.002 -1.8542  0.6860  0.5991
   73MOL    H6824692   4.493   7.623   4.232  0.7832 -0.4165 -0.9142
   73MOL    H6924693   4.436   7.739   4.114 -0.3616  0.3874  0.9680
   73MOL    C7024694   4.411   7.809   4.311  0.0967  0.0749  0.1256
   73MOL    C7124695   4.409   7.964   4.269  0.0422 -0.6034 -0.5461
   73MOL    C7224696   4.512   0.012   4.313 -0.4807  0.3084  0.4704
   73MOL    C7324697   4.518   0.143   4.262 -0.4501 -0.3016  0.5490
   73MOL    C7424698   4.411   0.197   4.187  0.4156  0.2899 -0.2361
   73MOL    O7524699   4.409   0.328   4.162 -0.6539  0.1065 -0.6075
   73MOL    C7624700   4.311   0.115   4.146  0.1012 -0.6347 -0.0758
   73MOL    C7724701   4.311   8.017   4.181 -0.5719  0.4031 -0.4455
   73MOL    C7824702   4.449   7.787   4.458  0.2605  0.6141 -0.3900
   73MOL    H7924703   4.316   7.760   4.288 -0.3317  1.7298 -1.7691
   73MOL    H8024704   4.596   8.012   4.370 -0.3245 -0.6567 -0.3974
   73MOL    H8124705   4.595   0.208   4.301 -1.5834  1.1664  0.3803
   73MOL    H8224706   4.490   0.376   4.159 -1.6265  1.7859 -0.0897
   73MOL    H8324707   4.237   0.154   4.077  0.4915  0.1104 -0.0730
   73MOL    H8424708   4.224   7.957   4.158  0.2994 -1.1456  0.2292
   73MOL    H8524709   4.417   7.875   4.514 -0.0749 -0.1121  0.5714
   73MOL    H8624710   4.553   7.796   4.489 -0.0402  0.9990  0.5149
   73MOL    C8724711   4.401   7.669   4.534  0.0452  0.0314  1.0561
   73MOL    C8824712   4.261   7.624   4.508 -0.3269 -0.1531 -0.0422
   73MOL    C8924713   4.149   7.704   4.551  0.5551  0.2787  0.5768
   73MOL    C9024714   4.022   7.664   4.521  0.5303 -0.4019 -0.6045
   73MOL    C9124715   4.002   7.551   4.448 -0.8253  0.0214  0.3300
   73MOL    O9224716   3.881   7.506   4.421  0.0141  0.2805  0.2203
   73MOL    C9324717   4.111   7.473   4.400 -0.1008  0.1721 -0.0308
   73MOL    C9424718   4.243   7.508   4.428 -0.0478 -0.1259 -0.5621
   73MOL    C9524719   4.422   7.684   4.687  0.1490  0.5029  0.9811
   73MOL    H9624720   4.470   7.587   4.515 -1.5199 -0.6645 -1.8924
   73MOL    H9724721   4.166   7.797   4.602  0.5025  1.6117 -1.7872
   73MOL    H9824722   3.937   7.719   4.558  0.6212 -1.1152  0.6736
   73MOL    H9924723   3.808   7.533   4.474 -1.7627 -1.3128 -1.3077
   73MOL   H10024724   4.094   7.385   4.340 -1.2729 -0.2058  0.8333
   73MOL   H10124725   4.320   7.439   4.398 -1.3453 -1.2566 -1.3479
   73MOL   H10224726   4.379   7.779   4.717 -2.8593 -0.5347  0.1568
   73MOL   H10324727   4.371   7.603   4.739  2.1141 -1.1784  0.3832
   73MOL   C10424728   4.559   7.659   4.736 -0.7754 -0.4395 -0.2325
   73MOL   C10524729   4.594   7.504   4.736  0.0692  0.7683  0.6922
   73MOL   C10624730   4.522   7.409   4.820 -0.2366  0.5174  0.8703
   73MOL   C10724731   4.556   7.269   4.817 -0.3708 -0.1260 -0.0610
   73MOL   C10824732   4.649   7.222   4.725  0.7005  1.0510 -0.0286
   73MOL   O10924733   4.675   7.089   4.719  0.5679  0.7299  0.6599
   73MOL   C11024734   4.720   7.318   4.642 -0.3414  0.1495 -0.4917
   73MOL   C11124735   4.695   7.453   4.648  0.5010  0.1971  0.1415
   73MOL   C11224736   4.557   7.710   4.885  1.5940  0.4559 -0.0629
   73MOL   H11324737   4.629   7.713   4.672 -0.2074  0.5326  1.1699
   73MOL   H11424738   4.439   7.437   4.883 -1.1976 -0.4384  0.0352
   73MOL   H11524739   4.502   7.203   4.884 -0.5936 -0.8104 -0.8987
   73MOL   H11624740   4.714   7.056   4.799  2.3584  0.1434 -0.4113
   73MOL   H11724741   4.800   7.274   4.584  0.0418  1.3845 -0.9015
   73MOL   H11824742   4.759   7.523   4.596  0.4718  1.6949  2.0232
   73MOL   H11924743   4.475   7.666   4.943  2.3499 -0.6115  0.2251
   73MOL   H12024744   4.530   7.815   4.880 -2.0483 -0.3583  0.7013
   73MOL   C12124745   4.688   7.677   4.966 -0.1478  0.2446 -0.0734
   73MOL   C12224746   4.807   7.757   4.915 -0.5424  0.0557  0.0371
   73MOL   C12324747   4.908   7.684   4.859  0.6366 -0.4900  0.2121
   73MOL   C12424748   5.027   7.745   4.806  0.3204  0.3386 -0.0748
   73MOL   C12524749   5.027   7.886   4.801  0.8526 -0.0900  0.0158
   73MOL   O12624750   5.129   7.954   4.740 -0.2181 -0.1383 -0.1028
   73MOL   C12724751   4.916   7.965   4.846  0.2554  0.1716 -0.7463
   73MOL   C12824752   4.810   7.897   4.912 -0.1155 -0.7656  0.5366
   73MOL   C12924753   4.673   7.697   5.111 -0.0346  0.6411  0.0149
   73MOL   H13024754   4.710   7.572   4.950 -1.7797 -0.4338  1.9709
   73MOL   H13124755   4.905   7.577   4.844 -2.1265 -0.2135 -1.4970
   73MOL   H13224756   5.114   7.693   4.771 -0.1507  0.1992 -1.0703
   73MOL   H13324757   5.148   0.006   4.766 -0.5062 -0.0419 -0.2204
   73MOL   H13424758   4.906   0.034   4.832  0.6837  0.2036 -0.8143
   73MOL   H13524759   4.723   7.944   4.956  1.3059 -0.8060  3.4901
   73MOL   H13624760   4.581   7.646   5.140  1.1490 -0.9235  1.0617
   73MOL   H13724761   4.660   7.801   5.143  0.0941  0.0572  2.0793
   73MOL   C13824762   4.791   7.631   5.186 -1.1034  0.1405 -0.1931
   73MOL   C13924763   4.778   7.482   5.206 -0.1299 -0.2802 -0.5657
   73MOL   C14024764   4.669   7.431   5.284  0.1791 -0.2939 -1.3893
   73MOL   C14124765   4.657   7.294   5.292 -0.1640  0.6983  0.2462
   73MOL   C14224766   4.755   7.206   5.229  0.3149  0.1344 -0.4257
   73MOL   O14324767   4.746   7.069   5.224  0.1100  0.9352 -0.1979
   73MOL   C14424768   4.862   7.258   5.150  0.5365  0.3648  0.8582
   73MOL   C14524769   4.873   7.398   5.139 -0.4379  0.0550  0.3222
   73MOL   C14624770   4.815   7.702   5.321  0.4210  0.2023 -0.2381
   73MOL   H14724771   4.886   7.644   5.135 -0.3120  2.2756  1.7487
   73MOL   H14824772   4.605   7.503   5.332  3.3274  0.8877  1.2646
   73MOL   H14924773   4.581   7.243   5.349  1.8333 -2.5920  0.1371
   73MOL   H15024774   4.665   7.038   5.264 -0.5098  0.7324 -1.5929
   73MOL   H15124775   4.919   7.186   5.094  0.4310  1.2218 -0.3587
   73MOL   H15224776   4.953   7.432   5.074 -0.0783 -1.4939 -0.0767
   73MOL   H15324777   4.880   7.640   5.384 -1.4826 -1.8242 -0.1858
   73MOL   H15424778   4.717   7.713   5.367  0.8097 -0.4010  0.7520
   73MOL   C15524779   4.879   7.839   5.303  0.7588 -0.3472  0.2183
   73MOL   C15624780   5.031   7.836   5.291 -0.2925  0.2759  0.6463
   73MOL   C15724781   5.090   7.879   5.174 -0.1484 -0.2742 -0.2151
   73MOL   C15824782   5.234   7.870   5.158  0.9636  0.0829 -0.2596
   73MOL   C15924783   5.310   7.825   5.270 -0.1101 -1.0697  0.2190
   73MOL   O16024784   5.446   7.832   5.271 -0.3939 -1.2574  0.2698
   73MOL   C16124785   5.250   7.790   5.391 -0.2606 -0.5036  0.5077
   73MOL   C16224786   5.113   7.788   5.399 -0.4132  0.6518 -0.2095
   73MOL   C16324787   4.851   7.937   5.415 -0.6719 -0.4807 -0.2230
   73MOL   H16424788   4.850   7.887   5.209  0.9142 -1.3446 -0.3446
   73MOL   H16524789   5.032   7.930   5.098  0.1394 -0.6571 -0.6967
   73MOL   H16624790   5.274   7.903   5.063  0.7277 -0.1311 -0.4316
   73MOL   H16724791   5.488   7.819   5.187  0.5368  0.5792  0.4182
   73MOL   H16824792   5.305   7.773   5.482 -0.4157  0.2331  0.7434
   73MOL   H16924793   5.071   7.754   5.492 -0.3738  2.5702  0.5343
   73MOL   H17024794   4.936   8.004   5.431 -0.3833 -0.7532 -0.6150
   73MOL   H17124795   4.844   7.873   5.503 -1.5896  1.3457  1.0567
   73MOL   C17224796   4.744   0.004   5.394 -0.1065  0.5860  0.2172
   73MOL   C17324797   4.756   0.091   5.265 -0.3245 -0.3753 -0.8568
   73MOL   C17424798   4.875   0.168   5.242 -0.0237  0.9920 -0.3796
   73MOL   C17524799   4.884   0.236   5.120 -0.7643 -0.3423 -0.1366
   73MOL   C17624800   4.782   0.232   5.025 -0.7198  0.7661 -0.3438
   73MOL   O17724801   4.801   0.313   4.915  0.3047  0.4286 -0.5417
   73MOL   C17824802   4.660   0.152   5.049 -0.0678  0.1653  0.8903
   73MOL   C17924803   4.661   0.076   5.167 -0.1300  0.1641 -0.2021
   73MOL   C18024804   4.719   0.087   5.522  0.1920 -0.7117  0.1165
   73MOL   H18124805   4.651   7.988   5.375  0.2213  0.6374 -1.6204
   73MOL   H18224806   4.961   0.171   5.306  0.7011  1.8501 -1.3726
   73MOL   H18324807   4.974   0.294   5.104 -0.8613 -0.2931 -0.5077
   73MOL   H18424808   4.728   0.336   4.860  0.2400  2.5789  0.3788
   73MOL   H18524809   4.568   0.157   4.992  0.1415  2.0646  0.6850
   73MOL   H18624810   4.571   0.026   5.198 -0.3232 -0.4244 -1.6804
   73MOL   H18724811   4.809   0.088   5.583  0.7351  1.7442 -0.6594
   73MOL   H18824812   4.646   0.028   5.577 -0.6537 -1.2432 -1.5286
   73MOL   C18924813   4.657   0.226   5.508 -0.0858  0.3340 -0.9513
   73MOL   C19024814   4.525   0.221   5.435  0.3252 -1.0959  0.2957
   73MOL   C19124815   4.424   0.131   5.472 -0.0351  0.0522 -0.1462
   73MOL   C19224816   4.297   0.135   5.415 -0.1686 -0.2184  0.7798
   73MOL   C19324817   4.277   0.230   5.309  0.5403  0.4948 -0.2157
   73MOL   O19424818   4.158   0.245   5.248 -0.2074 -0.2007 -0.2457
   73MOL   C19524819   4.382   0.314   5.273 -0.3416  0.6364 -0.0649
   73MOL   C19624820   4.510   0.311   5.328  0.4058 -0.2594 -0.5488
   73MOL   C19724821   4.635   0.289   5.642 -0.3163 -0.7464  0.4639
   73MOL   H19824822   4.722   0.293   5.451  1.8956 -1.5227 -0.9605
   73MOL   H19924823   4.446   0.049   5.538  1.6339 -0.9640 -1.9256
   73MOL   H20024824   4.220   0.065   5.446 -0.2422 -0.5734 -0.1831
   73MOL   H20124825   4.180   0.329   5.210  1.5092 -0.5335 -0.0272
   73MOL   H20224826   4.368   0.379   5.188 -1.7750 -0.8621 -0.9992
   73MOL   H20324827   4.582   0.382   5.289 -2.5019  2.3207 -1.3903
   73MOL   H20424828   4.611   0.209   5.712 -0.9215 -0.3422  0.7180
   73MOL   H20524829   4.546   0.351   5.637 -1.1545 -2.0384 -1.3831
   73MOL   C20624830   4.737   0.381   5.715 -0.0117 -0.0938 -0.0145
   73MOL   C20724831   4.699   0.420   5.857  0.5307  0.4456  0.7471
   73MOL   C20824832   4.789   0.396   5.960 -0.1298 -0.6958  0.0504
   73MOL   C20924833   4.748   0.422   6.093  0.3554  0.3886  0.0805
   73MOL   C21024834   4.623   0.481   6.119  1.1644  0.3493 -0.5933
   73MOL   O21124835   4.574   0.501   6.247  0.2962  0.0324  0.1309
   73MOL   C21224836   4.537   0.515   6.013 -0.5440 -0.5178  0.1847
   73MOL   C21324837   4.574   0.484   5.882  0.3488  0.0688 -0.0733
   73MOL   C21424838   4.781   0.506   5.635 -0.1837 -0.3282  0.4762
   73MOL   H21524839   4.829   0.326   5.734 -0.2759 -0.3953  0.4201
   73MOL   H21624840   4.887   0.354   5.943 -0.0114  0.2969 -1.9281
   73MOL   H21724841   4.815   0.389   6.170 -2.6694 -1.3903  2.0412
   73MOL   H21824842   4.602   0.434   6.307 -2.2647 -0.2457  1.0676
   73MOL   H21924843   4.446   0.567   6.039  0.9733  1.8826  0.7855
   73MOL   H22024844   4.509   0.508   5.798  3.6003 -1.4650 -3.1706
   73MOL   H22124845   4.804   0.592   5.699 -1.1652  0.6566 -0.4709
   73MOL   H22224846   4.691   0.533   5.579 -0.9034 -1.1374  1.2289
   73MOL   C22324847   4.910   0.490   5.544  0.4997  0.5551 -0.5819
   73MOL   C22424848   5.033   0.426   5.606 -0.4152 -0.1600  0.2756
   73MOL   C22524849   5.111   0.339   5.535 -0.8542  0.1921 -0.2036
   73MOL   C22624850   5.230   0.284   5.594  0.1086  0.0586  0.1355
   73MOL   C22724851   5.262   0.307   5.730  0.7645 -0.1832  0.1072
   73MOL   O22824852   5.378   0.256   5.775  0.3797  0.4891 -0.5368
   73MOL   C22924853   5.179   0.392   5.808  0.4327 -0.1285 -0.5368
   73MOL   C23024854   5.069   0.459   5.739  0.3748  0.2835 -1.2278
   73MOL   C23124855   4.951   0.623   5.482  0.1261 -0.7523  0.0340
   73MOL   H23224856   4.887   0.424   5.461  0.6046  0.0585 -0.2209
   73MOL   H23324857   5.098   0.311   5.431 -0.9830  0.1433 -0.1759
   73MOL   H23424858   5.305   0.226   5.542 -0.7072  0.0582 -1.0821
   73MOL   H23524859   5.438   0.215   5.715  0.8699 -0.6086  0.6759
   73MOL   H23624860   5.207   0.414   5.910 -1.5986  3.3303 -0.6598
   73MOL   H23724861   5.026   0.546   5.787  2.3653  0.4817  0.2549
   73MOL   H23824862   4.857   0.655   5.438  1.0145 -0.0099 -1.3761
   73MOL   H23924863   4.979   0.694   5.560  2.7127  0.2705 -1.7491
   73MOL   C24024864   5.073   0.617   5.378 -0.0628 -0.2348 -0.1455
   73MOL   C24124865   5.045   0.709   5.260  0.6149 -0.5656  0.3684
   73MOL   C24224866   5.000   0.841   5.295  0.3323 -0.0719  0.2218
   73MOL   C24324867   4.962   0.936   5.195  0.5466  0.0907  0.1017
   73MOL   C24424868   4.958   0.896   5.065 -0.2798 -0.0581 -0.2871
   73MOL   O24524869   4.918   0.979   4.972 -0.3432 -0.1142  0.1031
   73MOL   C24624870   5.009   0.771   5.027 -0.0694 -0.4559  1.0035
   73MOL   C24724871   5.052   0.678   5.122  0.2151  0.2336  0.4290
   73MOL   C24824872   5.210   0.642   5.422 -0.1885  0.4677  0.1087
   73MOL   H24924873   5.074   0.518   5.332 -0.4258 -1.3146  2.1475
   73MOL   H25024874   5.000   0.871   5.399  0.1330 -0.1052  0.2302
   73MOL   H25124875   4.937   1.037   5.224  0.3252  0.6853 -2.0659
   73MOL   H25224876   4.906   0.922   4.898  1.2176 -0.0505 -0.2165
   73MOL   H25324877   5.008   0.746   4.922  1.6172 -0.5154  0.9876
   73MOL   H25424878   5.098   0.586   5.088  1.9406  0.0944  2.9933
   73MOL   H25524879   5.215   0.749   5.445 -0.3742  0.8253 -1.4891
   73MOL   H25624880   5.228   0.596   5.519  2.5211  0.9212 -0.1480
   73MOL   C25724881   5.330   0.618   5.325 -0.0753 -0.0479 -0.4417
   73MOL   C25824882   5.445   0.717   5.366  0.6366 -0.0048  0.4932
   73MOL   C25924883   5.452   0.849   5.312 -0.2220  0.2282  0.3143
   73MOL   C26024884   5.559   0.939   5.335  0.1452 -0.7499  0.6339
   73MOL   C26124885   5.671   0.886   5.409  0.7096 -0.0235 -0.4133
   73MOL   O26224886   5.780   0.966   5.425  0.0422  0.0115 -0.8886
   73MOL   C26324887   5.670   0.754   5.458  0.7957  0.1514  0.6347
   73MOL   C26424888   5.553   0.679   5.450  0.0842 -0.0615  0.1633
   73MOL   C26524889   5.373   0.471   5.316 -0.2561 -0.0828  0.1629
   73MOL   H26624890   5.300   0.647   5.224 -0.2603  0.6593 -0.1875
   73MOL   H26724891   5.377   0.879   5.240 -0.3324 -2.0161 -0.5582
   73MOL   H26824892   5.564   1.032   5.280 -0.4738 -1.1032 -0.0253
   73MOL   H26924893   5.846   0.935   5.484 -0.9210 -0.0576  0.1691
   73MOL   H27024894   5.753   0.715   5.514  0.9013 -1.2661 -0.4751
   73MOL   H27124895   5.569   0.579   5.487 -2.0095 -0.1339  0.8983
   73MOL   H27224896   5.278   0.420   5.300 -0.1718  0.3140 -1.7666
   73MOL   H27324897   5.415   0.446   5.413 -0.2661  1.0174  0.4606
   73MOL   C27424898   5.470   0.457   5.192  0.2400  0.0981  0.0083
   73MOL   C27524899   5.386   0.383   5.087 -0.1784  0.1663 -1.1409
   73MOL   C27624900   5.334   0.256   5.111  0.2524 -0.1978  0.5714
   73MOL   C27724901   5.255   0.186   5.015  0.8084  0.1156  0.2287
   73MOL   C27824902   5.224   0.252   4.894 -0.5189  0.7656 -0.0002
   73MOL   O27924903   5.148   0.198   4.795 -0.0162  0.4265 -0.0566
   73MOL   C28024904   5.293   0.372   4.863 -0.0863  0.0817 -0.3350
   73MOL   C28124905   5.372   0.438   4.963 -0.6239  0.3348  0.1882
   73MOL   C28224906   5.592   0.373   5.241  0.5624 -1.2488 -0.4732
   73MOL   H28324907   5.509   0.550   5.151 -1.1742 -0.8707 -3.7816
   73MOL   H28424908   5.331   0.219   5.212  2.9072  0.4499  0.9197
   73MOL   H28524909   5.212   0.092   5.047  2.6464 -0.7644  0.2056
   73MOL   H28624910   5.086   0.259   4.759 -0.6690 -0.4663 -0.4731
   73MOL   H28724911   5.284   0.423   4.768  0.2079  0.9570  0.1080
   73MOL   H28824912   5.415   0.537   4.952  1.6154 -0.2754  2.9029
   73MOL   H28924913   5.630   0.417   5.333 -0.8047  0.4043 -0.6593
   73MOL   H29024914   5.552   0.274   5.262 -2.1754 -0.2927 -0.9765
   73MOL   C29124915   5.716   0.376   5.158  0.3171 -0.7223 -0.5714
   73MOL   C29224916   5.775   0.514   5.152  0.3336  0.1923 -0.4054
   73MOL   C29324917   5.843   0.567   5.264  0.1101  0.0933 -0.0745
   73MOL   C29424918   5.890   0.700   5.264 -0.4080  0.5433  0.1609
   73MOL   C29524919   5.871   0.783   5.152  0.1265  0.7303  0.7679
   73MOL   O29624920   5.912   0.911   5.152  0.2416  0.3462 -0.2927
   73MOL   C29724921   5.815   0.730   5.034 -0.0444  0.3601 -0.1028
   73MOL   C29824922   5.766   0.598   5.040 -0.2979 -0.2030  0.4449
   73MOL   C29924923   5.702   0.305   5.025  0.6664  0.4701 -1.1093
   73MOL   H30024924   5.786   0.320   5.220  0.0920  0.3595  0.6775
   73MOL   H30124925   5.855   0.508   5.353  0.9941 -0.6362 -0.6765
   73MOL   H30224926   5.938   0.734   5.354 -0.1995 -2.3504  1.1974
   73MOL   H30324927   5.919   0.949   5.238 -0.9698  0.2374 -0.1482
   73MOL   H30424928   5.814   0.785   4.941 -0.2363  0.1903 -0.2008
   73MOL   H30524929   5.720   0.562   4.949  1.6878 -1.9702  0.1107
   73MOL   H30624930   5.791   0.337   4.972  0.6975 -0.6287 -1.7333
   73MOL   H30724931   5.620   0.339   4.962 -1.1862  0.1220  1.0284
   73MOL   C30824932   5.693   0.145   5.035  0.1016 -0.0624 -1.0013
   73MOL   C30924933   5.795   0.075   5.127  0.1039  0.2705  0.8637
   73MOL   C31024934   5.930   0.112   5.132 -0.0810 -0.2835 -0.5168
   73MOL   C31124935   6.020   0.047   5.220 -0.5730 -0.2806 -0.7350
   73MOL   C31224936   5.979   7.988   5.312  0.3642  0.1461 -0.1173
   73MOL   O31324937   6.067   7.925   5.396  0.0183  0.1810  0.1317
   73MOL   C31424938   5.839   7.944   5.296  0.5555 -0.8397 -0.1527
   73MOL   C31524939   5.752   8.000   5.205 -0.5086  0.1528 -0.4089
   73MOL   C31624940   5.688   0.099   4.885  0.0367 -0.0336  0.1953
   73MOL   H31724941   5.603   0.106   5.083 -0.6677  1.4070 -1.2247
   73MOL   H31824942   5.959   0.193   5.067 -1.8228  0.6952 -0.0985
   73MOL   H31924943   6.124   0.073   5.210 -0.7412 -0.1937 -2.4508
   73MOL   H32024944   6.157   7.932   5.369  0.9558  0.3120  3.1326
   73MOL   H32124945   5.796   7.869   5.360  1.6145 -1.9765 -0.7677
   73MOL   H32224946   5.646   7.981   5.199 -0.9974  2.5566  0.3460
   73MOL   H32324947   5.786   0.114   4.841 -0.5957  0.0864 -1.2008
   73MOL   H32424948   5.622   0.165   4.829  0.4250 -0.4551 -0.7647
   73MOL   C32524949   5.660   7.982   4.859 -0.1945 -0.3205  0.9973
   73MOL   C32624950   5.655   7.960   4.708 -0.1711 -0.2181  0.3386
   73MOL   C32724951   5.553   8.029   4.640  0.6569 -0.4097  0.8229
   73MOL   C32824952   5.546   8.027   4.500 -0.3048 -0.0466 -0.3434
   73MOL   C32924953   5.622   7.929   4.427  0.8705 -0.6172  0.4914
   73MOL   O33024954   5.600   7.918   4.295 -0.5513  0.6579 -0.0353
   73MOL   C33124955   5.727   7.863   4.495  0.3040  0.5782  0.1443
   73MOL   C33224956   5.744   7.878   4.632 -0.4332  0.5062 -0.1914
   73MOL   C33324957   5.530   7.935   4.926 -0.1499 -0.4773 -0.2757
   73MOL   H33424958   5.742   7.931   4.909 -2.3756 -2.6755  2.2448
   73MOL   H33524959   5.491   0.065   4.689 -0.2707 -0.6046 -0.0384
   73MOL   H33624960   5.466   0.046   4.455  1.2234  1.9281 -0.6281
   73MOL   H33724961   5.639   7.849   4.243  0.8611  0.1364  1.7025
   73MOL   H33824962   5.803   7.808   4.440  0.4299 -0.3783  1.2625
   73MOL   H33924963   5.818   7.833   4.696 -1.3424 -0.4690  0.1928
   73MOL   H34024964   5.519   7.829   4.904 -0.3667 -0.5527  0.1879
   73MOL   H34124965   5.439   7.983   4.891 -1.3459 -1.1785  1.7630
   73MOL   H34224966   5.533   7.943   5.035  1.5211  0.8667 -0.3983
   74MOL     C124967   0.126   7.410   0.611  0.4045 -0.4214 -0.4530
   74MOL     C224968   0.063   7.525   0.686  0.7739 -0.6727 -0.4229
   74MOL     C324969   0.122   7.653   0.688 -0.9764  0.1740  0.2193
   74MOL     C424970   0.081   7.744   0.777 -0.8114 -1.2958 -0.0891
   74MOL     C524971   8.001   7.718   0.855  0.1826 -0.2791 -0.7667
   74MOL     O624972   7.964   7.812   0.946 -0.1524 -0.2820  0.2086
   74MOL     C724973   7.924   7.603   0.836  0.0855  0.2402 -0.0863
   74MOL     C824974   7.984   7.507   0.756 -0.1343  0.4105 -0.2724
   74MOL     C924975   0.123   7.417   0.459  0.6140 -0.2595 -0.2734
   74MOL    H1024976   0.226   7.419   0.654  0.4491 -0.8063 -0.4727
   74MOL    H1124977   0.205   7.679   0.624 -1.0549 -1.1471 -0.4556
   74MOL    H1224978   0.146   7.831   0.779 -2.1186 -0.2874 -0.7223
   74MOL    H1324979   7.913   7.775   1.017  0.9239 -1.7645  0.2501
   74MOL    H1424980   7.832   7.590   0.892  0.8507  0.3656  1.2193
   74MOL    H1524981   7.936   7.410   0.759 -1.5063  1.0501 -0.9191
   74MOL    H1624982   0.142   7.521   0.432  1.4119 -0.5559 -0.8495
   74MOL    H1724983   0.017   7.407   0.434  0.3955 -0.5332  0.7302
   74MOL    H1824984   0.092   7.309   0.636  0.7937  0.4156  3.8833
   74MOL    C1924985   0.218   7.321   0.391 -0.6139  0.5693 -0.0261
   74MOL    C2024986   0.356   7.372   0.382  0.0727  0.2625 -0.0445
   74MOL    C2124987   0.462   7.304   0.451  0.5759  0.4862  0.2319
   74MOL    C2224988   0.593   7.355   0.435  0.2121  0.3511  0.1162
   74MOL    C2324989   0.618   7.476   0.366 -0.4071  0.1665 -0.1252
   74MOL    O2424990   0.744   7.521   0.359 -0.9268 -0.0574  0.3542
   74MOL    C2524991   0.511   7.549   0.309 -0.1374  0.1565  0.5160
   74MOL    C2624992   0.378   7.497   0.319 -0.0999  0.2475  0.7268
   74MOL    C2724993   0.170   7.272   0.257 -0.0667 -0.2800 -0.3434
   74MOL    H2824994   0.231   7.241   0.463 -2.3830 -0.6199 -0.9869
   74MOL    H2924995   0.432   7.213   0.501  0.8713 -0.2709 -0.9493
   74MOL    H3024996   0.675   7.295   0.471 -1.6111 -1.0801  2.0012
   74MOL    H3124997   0.759   7.578   0.285  0.2946  0.3967  0.9410
   74MOL    H3224998   0.532   7.649   0.274  0.8142  0.4474  1.8992
   74MOL    H3324999   0.295   7.551   0.278  1.3588  2.2315  0.2942
   74MOL    H3425000   0.248   7.285   0.182 -1.5524  1.1282 -1.6926
   74MOL    H3525001   0.088   7.328   0.211 -1.1812 -0.6241  1.1679
   74MOL    C3625002   0.118   7.123   0.249  0.3017  0.6114 -0.5265
   74MOL    C3725003   0.207   7.029   0.329  0.0926  0.4429 -0.0860
   74MOL    C3825004   0.163   6.991   0.456  0.2724  0.1510  0.2232
   74MOL    C3925005   0.250   6.920   0.542  0.5465  0.7511 -0.5651
   74MOL    C4025006   0.388   6.903   0.510 -0.2417  0.1997  0.3922
   74MOL    O4125007   0.477   6.843   0.598 -0.5996  0.1727 -0.0823
   74MOL    C4225008   0.431   6.945   0.388  0.4401  0.5354 -0.6982
   74MOL    C4325009   0.338   7.002   0.291 -0.2601  0.5050 -0.0939
   74MOL    C4425010   0.099   7.080   0.101  0.5627  0.3253 -0.0218
   74MOL    H4525011   0.026   7.123   0.308  1.0149 -0.7180  0.6135
   74MOL    H4625012   0.064   7.021   0.489  0.2928 -0.9771  1.3205
   74MOL    H4725013   0.222   6.903   0.645 -0.6112  1.1064 -0.8115
   74MOL    H4825014   0.560   6.816   0.564 -0.5320 -1.2155  1.1252
   74MOL    H4925015   0.528   6.918   0.349 -0.4583  0.6341 -3.1029
   74MOL    H5025016   0.375   7.025   0.192 -1.8969  0.0298 -0.8408
   74MOL    H5125017   0.201   7.081   0.062  1.5884  0.7202  2.5414
   74MOL    H5225018   0.072   6.974   0.107 -2.3819  1.0648  0.9494
   74MOL    C5325019   8.035   7.150   0.008  0.7450 -0.2628  0.3719
   74MOL    C5425020   0.015   7.105   7.905  0.0173  0.2041 -0.2381
   74MOL    C5525021   0.017   6.963   7.888 -0.0935  0.1195  0.0247
   74MOL    C5625022   0.041   6.911   7.758  0.6105  0.4179 -0.0680
   74MOL    C5725023   0.052   7.002   7.649  0.2930  0.0688  0.5836
   74MOL    O5825024   0.063   6.972   7.515  0.1044  0.0077 -0.0767
   74MOL    C5925025   0.060   7.140   7.672 -0.4123  0.0975  0.6636
   74MOL    C6025026   0.032   7.192   7.796 -0.5518  0.1319 -0.2873
   74MOL    C6125027   7.882   7.141   0.044 -0.9405  0.1400  0.4077
   74MOL    H6225028   0.034   7.252   0.021  0.3518 -0.3341  2.1583
   74MOL    H6325029   0.010   6.889   7.967  1.1249 -1.2516 -1.1147
   74MOL    H6425030   0.045   6.804   7.746  0.9415  0.3537  0.6147
   74MOL    H6525031   0.011   6.899   7.482  2.3009 -1.3965 -0.5541
   74MOL    H6625032   0.067   7.215   7.596 -0.5672 -1.5260 -0.9892
   74MOL    H6725033   0.012   7.297   7.813 -1.7481 -0.2667  0.9238
   74MOL    H6825034   7.864   7.132   0.151  2.0930  0.5615  1.0075
   74MOL    H6925035   7.860   7.042   0.002 -1.3831  1.3054 -2.1834
   74MOL    C7025036   7.803   7.257   8.022  0.0251  0.0610 -0.0155
   74MOL    C7125037   7.834   7.396   0.045  0.5078  0.1193 -0.0966
   74MOL    C7225038   7.823   7.511   7.998 -0.5274  0.6985  0.5025
   74MOL    C7325039   7.868   7.628   0.012 -0.0406 -0.0341 -0.1221
   74MOL    C7425040   7.899   7.647   0.149 -0.0019  0.0636  0.0010
   74MOL    O7525041   7.936   7.770   0.203 -0.2800 -0.1071 -0.2645
   74MOL    C7625042   7.899   7.540   0.235 -0.3296 -0.4760 -0.2396
   74MOL    C7725043   7.861   7.411   0.185 -0.7057  0.2431  0.0164
   74MOL    C7825044   7.655   7.223   8.026 -0.0185 -0.5841  0.7416
   74MOL    H7925045   7.826   7.268   7.916 -1.7974 -3.0708 -0.8002
   74MOL    H8025046   7.786   7.501   7.897 -0.8518 -0.6172  0.7430
   74MOL    H8125047   7.873   7.716   7.988 -0.6562  0.2220  0.1876
   74MOL    H8225048   7.891   7.842   0.161  0.0603  0.8061  0.9198
   74MOL    H8325049   7.923   7.555   0.339 -1.8633 -3.4183  0.5850
   74MOL    H8425050   7.868   7.323   0.246 -2.6097 -0.4404 -0.7341
   74MOL    H8525051   7.596   7.312   0.007  0.0874 -0.6289  1.3143
   74MOL    H8625052   7.633   7.167   0.080  1.4102 -1.1653  0.7442
   74MOL    C8725053   7.599   7.146   7.898  0.1682 -0.1536 -0.0145
   74MOL    C8825054   7.600   7.233   7.773 -0.0265  0.6416 -0.0655
   74MOL    C8925055   7.696   7.226   7.679  0.1106 -0.7538  0.3060
   74MOL    C9025056   7.693   7.309   7.565 -0.3541  0.0800  0.7957
   74MOL    C9125057   7.593   7.409   7.550  0.1552 -0.8370  0.1528
   74MOL    O9225058   7.593   7.496   7.443  0.3232  0.1632  0.2065
   74MOL    C9325059   7.494   7.415   7.644 -0.1837 -0.4781  0.4540
   74MOL    C9425060   7.503   7.332   7.762 -0.2992 -0.1478 -0.1368
   74MOL    C9525061   7.466   7.081   7.926 -0.7364  0.2980  0.7877
   74MOL    H9625062   7.665   7.059   7.896 -1.4401 -1.6271  4.5241
   74MOL    H9725063   7.768   7.148   7.696  0.6325 -0.6772 -1.4438
   74MOL    H9825064   7.771   7.284   7.495  0.2049 -0.0176  1.4427
   74MOL    H9925065   7.680   7.487   7.407  0.2078  0.5532 -0.1664
   74MOL   H10025066   7.417   7.490   7.630  0.1751 -0.6089 -2.6309
   74MOL   H10125067   7.428   7.339   7.839  1.6627 -1.1763  1.8990
   74MOL   H10225068   7.384   7.152   7.935 -0.4712  0.8188 -0.8045
   74MOL   H10325069   7.434   7.017   7.843  0.8163  1.2101 -0.5530
   74MOL   C10425070   7.472   6.979   0.009 -0.4177 -0.2638 -0.3491
   74MOL   C10525071   7.553   6.859   8.027  0.5423  0.5072  0.1719
   74MOL   C10625072   7.510   6.777   7.919  0.2298 -0.1773  0.2523
   74MOL   C10725073   7.579   6.653   7.899 -0.4266 -0.6030 -0.5380
   74MOL   C10825074   7.672   6.607   7.989 -0.9876 -0.8463  0.3717
   74MOL   O10925075   7.717   6.478   7.974 -0.0941 -0.6579  0.6990
   74MOL   C11025076   7.712   6.686   0.059 -0.3515 -0.7379  0.1564
   74MOL   C11125077   7.654   6.816   0.076 -0.0458 -0.3847  0.2107
   74MOL   C11225078   7.318   6.935   0.041 -0.4387 -0.3828  0.3954
   74MOL   H11325079   7.501   7.024   0.104  0.5358  1.0835 -1.2581
   74MOL   H11425080   7.431   6.801   7.850 -0.8067 -0.7018  1.2394
   74MOL   H11525081   7.538   6.593   7.819 -0.1854 -0.6760 -0.6077
   74MOL   H11625082   7.688   6.418   7.906  0.9044 -2.1876  1.5783
   74MOL   H11725083   7.789   6.659   0.130 -1.5615 -0.4554  1.6152
   74MOL   H11825084   7.691   6.876   0.157  0.2239  1.6919 -1.4018
   74MOL   H11925085   7.262   6.879   8.004 -0.1909 -0.4243  0.2419
   74MOL   H12025086   7.270   7.033   0.038  2.5490  1.1356 -0.0425
   74MOL   C12125087   7.301   6.889   0.188  0.2870 -0.4822 -0.2569
   74MOL   C12225088   7.183   6.959   0.257  0.0207 -0.5077 -0.8238
   74MOL   C12325089   7.046   6.951   0.216  0.5407 -0.2057 -0.4006
   74MOL   C12425090   6.942   7.005   0.299 -0.8235  1.0961  0.8950
   74MOL   C12525091   6.970   7.085   0.410 -0.1985 -0.5511 -0.0904
   74MOL   O12625092   6.874   7.149   0.487  0.8614 -0.1774 -0.1297
   74MOL   C12725093   7.109   7.105   0.439  0.0274 -0.2198  0.6864
   74MOL   C12825094   7.207   7.041   0.367  0.1565  0.2058  0.5063
   74MOL   C12925095   7.286   6.739   0.190  0.3804  0.2345 -0.0797
   74MOL   H13025096   7.390   6.909   0.249  0.7385  1.0384 -1.3916
   74MOL   H13125097   7.027   6.898   0.124 -1.3458 -0.9318  0.3862
   74MOL   H13225098   6.842   6.995   0.259  0.1834 -1.3040 -1.1482
   74MOL   H13325099   6.784   7.152   0.459  0.5283  1.8188  1.0702
   74MOL   H13425100   7.142   7.172   0.517  0.2738  0.9705 -0.4261
   74MOL   H13525101   7.302   7.083   0.395 -0.0794  2.0190 -1.3036
   74MOL   H13625102   7.362   6.695   0.125 -0.7063  0.9503 -1.8608
   74MOL   H13725103   7.193   6.708   0.142 -0.7080  0.3528  1.8898
   74MOL   C13825104   7.294   6.677   0.334 -0.2275  0.0255  0.0207
   74MOL   C13925105   7.423   6.715   0.402  0.1180 -0.1196  0.0690
   74MOL   C14025106   7.546   6.662   0.358  0.8256 -0.3512 -0.3646
   74MOL   C14125107   7.667   6.675   0.432 -0.2124 -0.9469  0.0340
   74MOL   C14225108   7.662   6.742   0.558 -0.4852 -0.1497 -0.1152
   74MOL   O14325109   7.768   6.747   0.644  0.0310 -0.1022 -0.7421
   74MOL   C14425110   7.540   6.808   0.591 -0.3675  0.8342  0.1260
   74MOL   C14525111   7.418   6.794   0.519 -0.1343 -0.3067 -0.2722
   74MOL   C14625112   7.275   6.521   0.332  0.5556 -0.2864 -0.0494
   74MOL   H14725113   7.214   6.723   0.391 -0.5782 -1.2385  0.5607
   74MOL   H14825114   7.547   6.617   0.260  2.4944 -0.0236 -0.5170
   74MOL   H14925115   7.752   6.618   0.396  0.5676 -0.0989  0.5024
   74MOL   H15025116   7.730   6.765   0.729 -1.0983 -0.9854 -1.0435
   74MOL   H15125117   7.529   6.856   0.687  0.4894  0.7659  0.2598
   74MOL   H15225118   7.323   6.835   0.550  0.2554  0.6046 -0.2727
   74MOL   H15325119   7.357   6.471   0.383 -0.1199 -0.6756  0.6586
   74MOL   H15425120   7.296   6.500   0.227 -1.6523 -1.1893 -0.3366
   74MOL   C15525121   7.141   6.459   0.357 -0.2671 -0.0182  0.1391
   74MOL   C15625122   7.020   6.550   0.318  0.0308 -0.7094  0.4188
   74MOL   C15725123   6.962   6.638   0.411  0.2384 -0.1183  1.0932
   74MOL   C15825124   6.855   6.724   0.383 -0.0012 -0.2517 -0.2722
   74MOL   C15925125   6.801   6.714   0.254  0.5401  0.0298  0.4680
   74MOL   O16025126   6.693   6.798   0.229  0.1807  0.4467 -0.1511
   74MOL   C16125127   6.862   6.638   0.157 -0.4639 -0.0377  0.1680
   74MOL   C16225128   6.968   6.550   0.186  0.2900  0.5010  0.0762
   74MOL   C16325129   7.150   6.381   0.494  0.0970  0.9923 -0.0139
   74MOL   H16425130   7.140   6.375   0.288  0.2309  0.1926 -0.1332
   74MOL   H16525131   7.009   6.642   0.508  1.2026  0.3155  0.6088
   74MOL   H16625132   6.812   6.797   0.450 -1.0238 -0.5166 -0.6157
   74MOL   H16725133   6.639   6.781   0.153 -0.2425  0.2836  0.1822
   74MOL   H16825134   6.821   6.650   0.058 -1.8526 -2.7478  0.3770
   74MOL   H16925135   7.012   6.494   0.105  0.1814 -1.7010  1.4786
   74MOL   H17025136   7.227   6.304   0.491 -0.0271  0.9072 -1.3737
   74MOL   H17125137   7.060   6.322   0.513  1.0250 -0.2134  0.7697
   74MOL   C17225138   7.180   6.458   0.628 -0.0672 -0.1658  0.6770
   74MOL   C17325139   7.300   6.398   0.703  0.8991 -0.3502  0.4629
   74MOL   C17425140   7.281   6.287   0.783  0.0956 -1.0483 -0.3931
   74MOL   C17525141   7.388   6.226   0.855  0.2875  0.6583 -0.2811
   74MOL   C17625142   7.514   6.286   0.846  0.0663  0.3824 -0.5356
   74MOL   O17725143   7.617   6.232   0.921 -0.0215  0.3831  0.0948
   74MOL   C17825144   7.530   6.407   0.769  0.5247 -0.2423 -0.3400
   74MOL   C17925145   7.421   6.459   0.696 -0.6609 -0.1731  0.3485
   74MOL   C18025146   7.062   6.480   0.721 -0.2690  0.2637 -0.0486
   74MOL   H18125147   7.209   6.557   0.593  1.5651 -0.9024 -0.1591
   74MOL   H18225148   7.185   6.241   0.795 -1.3750  1.5345 -1.8146
   74MOL   H18325149   7.370   6.128   0.898 -5.0671  0.2199 -3.1718
   74MOL   H18425150   7.674   6.306   0.933 -1.3828  1.2618  1.3720
   74MOL   H18525151   7.626   6.455   0.757 -0.1550  1.2635  0.1456
   74MOL   H18625152   7.437   6.539   0.625 -3.0133 -0.0250 -0.0487
   74MOL   H18725153   7.024   6.380   0.745  2.5267 -0.2742  2.5776
   74MOL   H18825154   6.985   6.538   0.671 -1.5939 -0.8761  0.6048
   74MOL   C18925155   7.101   6.559   0.852 -0.1099 -0.3875 -0.6273
   74MOL   C19025156   7.153   6.707   0.824  0.1817  0.4483 -0.6002
   74MOL   C19125157   7.070   6.806   0.767  0.0518 -0.4201  0.3716
   74MOL   C19225158   7.112   6.937   0.752 -0.3693  0.8145 -0.1615
   74MOL   C19325159   7.242   6.972   0.786 -0.7028  0.0544  0.5691
   74MOL   O19425160   7.278   7.100   0.754  0.3419 -0.7692 -0.2941
   74MOL   C19525161   7.330   6.878   0.854  0.3386 -0.9074 -0.4323
   74MOL   C19625162   7.284   6.740   0.863  0.0628  0.1585 -0.0253
   74MOL   C19725163   6.986   6.565   0.956 -0.2246  0.0086 -0.0348
   74MOL   H19825164   7.181   6.508   0.905 -0.4868 -0.2124  0.1220
   74MOL   H19925165   6.971   6.792   0.729  0.6072  0.0063 -1.2762
   74MOL   H20025166   7.049   7.006   0.698 -2.8302 -0.7951  0.5637
   74MOL   H20125167   7.357   7.125   0.798 -0.0127  0.4795 -0.3431
   74MOL   H20225168   7.420   6.917   0.900  0.3904  0.1387 -1.4004
   74MOL   H20325169   7.348   6.669   0.913 -2.2853 -0.8441  1.6276
   74MOL   H20425170   6.912   6.486   0.947 -0.2321 -0.1381  1.2883
   74MOL   H20525171   6.922   6.652   0.940 -0.5207 -0.3698 -0.9188
   74MOL   C20625172   7.041   6.570   1.103  0.7956 -0.5535 -0.1041
   74MOL   C20725173   7.104   6.443   1.142 -0.3337  0.1105  0.6157
   74MOL   C20825174   7.226   6.437   1.213 -0.1839 -0.5739  0.1144
   74MOL   C20925175   7.287   6.314   1.238 -0.1562 -0.3558 -0.4320
   74MOL   C21025176   7.221   6.200   1.207  0.1738 -0.1265 -0.1455
   74MOL   O21125177   7.284   6.075   1.233  0.1395  0.0173 -0.2765
   74MOL   C21225178   7.092   6.201   1.149 -0.5116  0.6654 -0.3696
   74MOL   C21325179   7.036   6.322   1.111 -0.5251  0.0021 -0.6203
   74MOL   C21425180   6.944   6.622   1.211 -0.2283  0.6680 -0.0288
   74MOL   H21525181   7.121   6.644   1.095  1.1818 -1.0475 -0.8353
   74MOL   H21625182   7.276   6.527   1.247 -0.8361 -1.6472  4.2050
   74MOL   H21725183   7.385   6.304   1.283  0.0515 -1.9179 -1.1916
   74MOL   H21825184   7.378   6.082   1.233  0.4392 -3.0912 -2.1748
   74MOL   H21925185   7.036   6.111   1.128  0.2753 -0.0631  0.5915
   74MOL   H22025186   6.937   6.325   1.067 -0.6665 -4.8914 -0.8546
   74MOL   H22125187   6.987   6.609   1.310  0.4340 -1.5243 -0.5851
   74MOL   H22225188   6.864   6.547   1.216  0.5518 -0.1272  0.6139
   74MOL   C22325189   6.886   6.762   1.184 -0.0830 -0.4088  0.1638
   74MOL   C22425190   6.927   6.854   1.298 -0.1329 -0.0295  0.3831
   74MOL   C22525191   7.051   6.919   1.289  0.7897  0.6193  0.2678
   74MOL   C22625192   7.100   7.006   1.387 -0.2641 -0.2004  0.1460
   74MOL   C22725193   7.026   7.029   1.503  0.0194 -1.2626 -0.0290
   74MOL   O22825194   7.061   7.125   1.592 -0.4748 -0.0297  0.0109
   74MOL   C22925195   6.895   6.975   1.510 -0.2673 -0.0937  0.3396
   74MOL   C23025196   6.857   6.876   1.416 -0.3857 -0.3991 -0.3874
   74MOL   C23125197   6.732   6.753   1.156 -0.9147 -0.4238  0.6131
   74MOL   H23225198   6.926   6.811   1.096 -0.4198  2.9814  1.8450
   74MOL   H23325199   7.107   6.908   1.197 -0.0335 -0.1444 -0.1563
   74MOL   H23425200   7.203   7.038   1.386 -0.3537  0.0758 -0.3870
   74MOL   H23525201   7.027   7.113   1.679 -0.6179 -1.0027 -0.1764
   74MOL   H23625202   6.826   6.988   1.592 -1.5405 -1.4731 -0.4886
   74MOL   H23725203   6.766   6.823   1.441 -0.2458 -0.9325 -1.0340
   74MOL   H23825204   6.714   6.682   1.075 -0.3045  1.8146 -1.5195
   74MOL   H23925205   6.691   6.708   1.247 -0.3775  2.4665  2.3298
   74MOL   C24025206   6.653   6.876   1.111  0.5427  0.2607  0.2196
   74MOL   C24125207   6.726   6.963   1.010 -0.4069  0.6800 -0.3492
   74MOL   C24225208   6.806   7.072   1.054  0.5930 -0.0641 -0.5275
   74MOL   C24325209   6.869   7.156   0.959 -0.7343  0.0642  0.3700
   74MOL   C24425210   6.839   7.140   0.819  0.0685  0.3376  0.0124
   74MOL   O24525211   6.884   7.229   0.726  0.3577  0.5180  0.7594
   74MOL   C24625212   6.762   7.027   0.777 -0.3076 -0.0348  0.0099
   74MOL   C24725213   6.713   6.929   0.869 -0.0539 -0.3379  0.8195
   74MOL   C24825214   6.512   6.850   1.061 -0.1724  0.3572  0.3281
   74MOL   H24925215   6.638   6.937   1.200 -0.6646 -0.0410  0.2328
   74MOL   H25025216   6.812   7.084   1.161 -1.0532 -0.1616 -0.4088
   74MOL   H25125217   6.939   7.232   0.990 -0.7734  0.8715 -1.4660
   74MOL   H25225218   6.897   7.194   0.639  0.5343  2.6953 -0.1182
   74MOL   H25325219   6.755   7.008   0.671  0.8444 -2.3545  0.3285
   74MOL   H25425220   6.662   6.843   0.829 -0.6160  0.8927 -1.2120
   74MOL   H25525221   6.513   6.785   0.973 -0.2616 -0.7398  1.1170
   74MOL   H25625222   6.469   6.778   1.132 -2.8629  1.4344 -0.1651
   74MOL   C25725223   6.402   6.958   1.035  0.2955  0.4817 -0.0735
   74MOL   C25825224   6.265   6.920   1.093  0.2028 -0.6535  0.1257
   74MOL   C25925225   6.146   6.917   1.013 -0.7094  0.0123 -0.2738
   74MOL   C26025226   6.027   6.896   1.077  0.1459  0.1760  0.3532
   74MOL   C26125227   6.018   6.859   1.217  0.5995  0.6361  0.2603
   74MOL   O26225228   5.896   6.852   1.286  0.6000  0.2534  0.1351
   74MOL   C26325229   6.134   6.860   1.295  0.4826  0.4077 -0.6033
   74MOL   C26425230   6.253   6.894   1.236  0.5188 -0.0381  1.0386
   74MOL   C26525231   6.422   7.100   1.084 -0.1967 -0.3614  0.0490
   74MOL   H26625232   6.377   6.954   0.929 -0.5257  0.7951  0.1042
   74MOL   H26725233   6.145   6.926   0.906 -0.1028  0.6016 -0.2384
   74MOL   H26825234   5.934   6.898   1.022  1.0660 -0.4767 -1.2685
   74MOL   H26925235   5.906   6.802   1.366 -0.3977  0.2873  0.2878
   74MOL   H27025236   6.125   6.840   1.401 -0.1420  1.2802 -0.4948
   74MOL   H27125237   6.331   6.910   1.308  1.4096  0.3043  0.0064
   74MOL   H27225238   6.519   7.138   1.052 -0.9581  0.2609 -1.5803
   74MOL   H27325239   6.422   7.108   1.193  0.5599 -1.7017  0.1481
   74MOL   C27425240   6.320   7.211   1.035  0.1656  0.4154 -0.1538
   74MOL   C27525241   6.325   7.237   0.886  0.5562 -0.1564  0.0113
   74MOL   C27625242   6.205   7.246   0.808 -0.2043 -0.5987 -0.0268
   74MOL   C27725243   6.211   7.257   0.669  0.4447  0.6819  0.1158
   74MOL   C27825244   6.337   7.252   0.608  0.6455  0.5003 -0.3303
   74MOL   O27925245   6.354   7.250   0.468 -0.1991  0.0896  0.1162
   74MOL   C28025246   6.457   7.249   0.682 -0.2640 -0.2991 -0.0033
   74MOL   C28125247   6.452   7.249   0.823  0.2247 -0.1293 -0.2220
   74MOL   C28225248   6.345   7.349   1.103 -0.5106  0.9232 -0.6403
   74MOL   H28325249   6.218   7.192   1.067  0.2643  1.7784  1.0131
   74MOL   H28425250   6.109   7.248   0.858  0.9017  1.3081  2.1338
   74MOL   H28525251   6.123   7.258   0.606  0.4344  0.3950  0.1238
   74MOL   H28625252   6.441   7.242   0.434  0.0400  2.0117  0.2216
   74MOL   H28725253   6.550   7.256   0.627  0.1240  0.7107  0.7828
   74MOL   H28825254   6.546   7.254   0.876 -0.4817  0.5200  1.0059
   74MOL   H28925255   6.454   7.359   1.100 -0.2747 -1.3230 -0.4890
   74MOL   H29025256   6.299   7.426   1.041 -3.4415  0.5887  1.0366
   74MOL   C29125257   6.297   7.372   1.247  0.4317  0.2685 -0.1421
   74MOL   C29225258   6.151   7.356   1.265  0.7227  0.3642  0.4043
   74MOL   C29325259   6.047   7.419   1.186 -0.4641 -0.1770 -0.4250
   74MOL   C29425260   5.912   7.392   1.202  0.0399 -1.3028 -0.0625
   74MOL   C29525261   5.870   7.295   1.294 -0.4517 -0.0933  0.5104
   74MOL   O29625262   5.739   7.259   1.327 -0.1580  0.0396  0.6501
   74MOL   C29725263   5.969   7.235   1.379  0.1190 -0.2165 -0.0023
   74MOL   C29825264   6.104   7.273   1.365 -0.4522  0.3924  0.8470
   74MOL   C29925265   6.356   7.505   1.297 -0.0338 -0.3757  0.3313
   74MOL   H30025266   6.342   7.295   1.310 -1.4897 -0.4482  0.4012
   74MOL   H30125267   6.086   7.482   1.107 -2.2103  1.2305 -0.1814
   74MOL   H30225268   5.843   7.443   1.137  1.3938  0.3769 -0.2081
   74MOL   H30325269   5.728   7.188   1.389  0.9182  0.2998  1.1637
   74MOL   H30425270   5.947   7.173   1.465  1.3657 -1.3688 -0.4935
   74MOL   H30525271   6.170   7.221   1.432  0.5823  0.5261 -0.0637
   74MOL   H30625272   6.313   7.523   1.395  1.6266  0.0069  1.0058
   74MOL   H30725273   6.311   7.584   1.236  0.9877 -0.6052 -0.7155
   74MOL   C30825274   6.512   7.517   1.320  0.6117  0.8321  0.4540
   74MOL   C30925275   6.566   7.441   1.442  0.1613 -0.8144  0.7614
   74MOL   C31025276   6.525   7.483   1.575  0.1246  0.7247 -0.2950
   74MOL   C31125277   6.591   7.438   1.689 -0.1441 -0.6116  0.3279
   74MOL   C31225278   6.701   7.351   1.674 -0.0545 -0.2175 -0.5597
   74MOL   O31325279   6.773   7.320   1.790 -0.4176 -0.2284 -0.3554
   74MOL   C31425280   6.730   7.291   1.548 -0.3438  0.6004 -0.4657
   74MOL   C31525281   6.662   7.339   1.433 -0.3179  0.3369 -1.0015
   74MOL   C31625282   6.574   7.657   1.330  0.4408  0.4043  0.0381
   74MOL   H31725283   6.557   7.467   1.234  1.4074 -1.4625  2.1376
   74MOL   H31825284   6.439   7.546   1.588 -0.6781 -0.5354  0.6942
   74MOL   H31925285   6.563   7.481   1.783  1.2739  0.4714  0.2825
   74MOL   H32025286   6.811   7.234   1.788  0.2195 -0.0071  1.9651
   74MOL   H32125287   6.811   7.221   1.535 -0.0230  0.9521 -0.3665
   74MOL   H32225288   6.699   7.313   1.335  1.4501 -0.5466 -0.1313
   74MOL   H32325289   6.679   7.647   1.359 -0.3843 -0.8821  2.7933
   74MOL   H32425290   6.535   7.720   1.411  1.6879 -0.5526  1.4000
   74MOL   C32525291   6.576   7.741   1.209 -0.1810  0.6050 -0.2651
   74MOL   C32625292   6.604   7.657   1.074 -0.3075 -0.2844  0.1444
   74MOL   C32725293   6.726   7.599   1.052  0.2855  0.3130  0.3997
   74MOL   C32825294   6.750   7.525   0.931 -0.0230 -0.0523  0.0472
   74MOL   C32925295   6.652   7.523   0.828 -0.3986  0.0912  0.7240
   74MOL   O33025296   6.667   7.464   0.710 -0.5989  0.2175  0.0424
   74MOL   C33125297   6.529   7.592   0.851  0.2947 -0.7535  0.8426
   74MOL   C33225298   6.509   7.658   0.974  0.1938  0.3114 -0.4445
   74MOL   C33325299   6.665   7.868   1.219 -0.1254  0.2854 -0.2499
   74MOL   H33425300   6.477   7.784   1.193  1.2223  3.5296 -1.6603
   74MOL   H33525301   6.803   7.604   1.127 -1.1182 -0.0839  1.8826
   74MOL   H33625302   6.845   7.480   0.908  1.6338  2.6724  1.3275
   74MOL   H33725303   6.705   7.377   0.714  0.1042  0.4259 -1.6298
   74MOL   H33825304   6.456   7.593   0.771  1.9493 -0.8547 -0.6940
   74MOL   H33925305   6.415   7.707   0.993 -1.1567 -0.3669 -4.6760
   74MOL   H34025306   6.649   7.926   1.310  0.0756 -1.8204  1.1494
   74MOL   H34125307   6.650   7.934   1.133  0.6400  1.8301  0.7827
   74MOL   H34225308   6.770   7.838   1.218 -0.5932 -1.5472  2.1743
   75MOL     C125309   4.739   3.933   6.642 -0.7903  0.4078 -0.2452
   75MOL     C225310   4.799   3.831   6.549  0.6795 -0.0674 -0.5330
   75MOL     C325311   4.938   3.840   6.507 -0.5357  0.7755 -0.3059
   75MOL     C425312   4.993   3.733   6.437 -0.3001  0.2399 -0.8032
   75MOL     C525313   4.923   3.617   6.412 -0.2365  0.1808  0.2524
   75MOL     O625314   4.991   3.520   6.340  0.5425 -0.1413  0.4256
   75MOL     C725315   4.789   3.607   6.451  0.0245  0.4867  0.1150
   75MOL     C825316   4.728   3.714   6.517  0.5203  0.3191 -0.1907
   75MOL     C925317   4.795   4.084   6.628  0.6011  0.9352 -0.3914
   75MOL    H1025318   4.631   3.930   6.629 -0.7898 -2.0311  0.2170
   75MOL    H1125319   4.993   3.929   6.536 -0.3782  0.9073 -1.0059
   75MOL    H1225320   5.099   3.737   6.418  0.2574 -1.4406  1.6762
   75MOL    H1325321   5.085   3.531   6.337  0.6272 -0.3465  1.9071
   75MOL    H1425322   4.731   3.518   6.432  0.3166  0.0787  1.1228
   75MOL    H1525323   4.629   3.688   6.553 -0.3823  2.7428 -0.8488
   75MOL    H1625324   4.834   4.089   6.526 -0.4390  4.5972 -0.6552
   75MOL    H1725325   4.881   4.104   6.692 -0.1936  0.3971  0.8515
   75MOL    H1825326   4.765   3.900   6.742  1.7555  0.2014 -0.9299
   75MOL    C1925327   4.681   4.191   6.648  0.2095  0.1365  0.4672
   75MOL    C2025328   4.725   4.327   6.587  0.3528 -0.2073  0.2692
   75MOL    C2125329   4.855   4.385   6.611  0.0007 -0.0329  0.1877
   75MOL    C2225330   4.877   4.518   6.564  0.2735  0.0049 -0.2757
   75MOL    C2325331   4.779   4.583   6.484 -0.0483  0.2503  0.5887
   75MOL    O2425332   4.800   4.714   6.444 -0.7628 -0.3909  0.5332
   75MOL    C2525333   4.657   4.518   6.449 -0.4859  0.2056 -0.1185
   75MOL    C2625334   4.632   4.392   6.504  0.0137  0.7913  0.0336
   75MOL    C2725335   4.650   4.206   6.795 -0.7519 -0.4613  0.1367
   75MOL    H2825336   4.596   4.151   6.591  1.2686 -0.1196 -0.9528
   75MOL    H2925337   4.932   4.331   6.666 -1.6301 -0.7665  1.8258
   75MOL    H3025338   4.958   4.584   6.591 -0.4505  0.8975 -0.2539
   75MOL    H3125339   4.761   4.732   6.360 -1.8161 -3.3615  0.3310
   75MOL    H3225340   4.596   4.560   6.371 -0.2930  2.3567  0.8541
   75MOL    H3325341   4.540   4.344   6.473  0.7527 -2.4321  2.5194
   75MOL    H3425342   4.746   4.229   6.841  0.3146  1.8132 -2.9935
   75MOL    H3525343   4.606   4.113   6.831  2.1617 -1.6091  0.8845
   75MOL    C3625344   4.536   4.305   6.836 -0.5550 -0.1204  0.6686
   75MOL    C3725345   4.509   4.303   6.986 -0.6058 -0.2539  0.0164
   75MOL    C3825346   4.552   4.411   7.067 -0.2521  0.3736 -0.5111
   75MOL    C3925347   4.526   4.404   7.208 -0.0480  0.3226 -0.2434
   75MOL    C4025348   4.462   4.293   7.265 -0.2621 -0.0653 -0.0056
   75MOL    O4125349   4.444   4.280   7.401 -0.2990 -0.3096 -0.3281
   75MOL    C4225350   4.426   4.186   7.182 -0.6206 -0.2370  0.3716
   75MOL    C4325351   4.442   4.199   7.046  0.4249  0.4298 -0.1906
   75MOL    C4425352   4.405   4.283   6.754  0.1840 -0.0802  0.3156
   75MOL    H4525353   4.563   4.409   6.821  0.3588 -0.4977 -0.3941
   75MOL    H4625354   4.596   4.496   7.016 -0.6095  0.3143 -0.9169
   75MOL    H4725355   4.552   4.493   7.262 -1.8785  1.4027 -1.1083
   75MOL    H4825356   4.496   4.336   7.456  0.7464 -3.3401  1.9117
   75MOL    H4925357   4.376   4.099   7.222  1.1775 -1.9675 -1.0284
   75MOL    H5025358   4.399   4.117   6.990  2.9986 -2.6939  2.2038
   75MOL    H5125359   4.428   4.225   6.664  0.8263 -1.3232  1.2726
   75MOL    H5225360   4.337   4.225   6.816  1.8660 -0.7767  1.5341
   75MOL    C5325361   4.333   4.411   6.710 -0.1375 -0.2414 -0.0297
   75MOL    C5425362   4.224   4.379   6.607 -0.2966  0.2224  0.0785
   75MOL    C5525363   4.229   4.439   6.481 -0.5202 -0.4520 -0.2524
   75MOL    C5625364   4.122   4.422   6.392  0.5221 -1.0218  0.1694
   75MOL    C5725365   4.021   4.328   6.415  0.7801 -0.4265  0.3837
   75MOL    O5825366   3.926   4.291   6.324  0.2356 -0.1770 -0.3209
   75MOL    C5925367   4.004   4.272   6.549  0.6315  0.1508  0.5197
   75MOL    C6025368   4.113   4.291   6.640 -1.0768  0.5389 -0.5133
   75MOL    C6125369   4.275   4.487   6.831  0.6989 -0.3621  0.3314
   75MOL    H6225370   4.409   4.476   6.667  0.4237  0.5261  2.0354
   75MOL    H6325371   4.297   4.517   6.449  0.2892 -1.8191 -1.9433
   75MOL    H6425372   4.129   4.467   6.294  0.2133 -1.2636  0.0358
   75MOL    H6525373   3.896   4.206   6.351  0.6515  0.0613  0.8931
   75MOL    H6625374   3.923   4.203   6.569  0.0662  1.1065  1.5463
   75MOL    H6725375   4.116   4.248   6.739 -2.8786  2.0633  0.2318
   75MOL    H6825376   4.360   4.517   6.893  0.8977 -0.3717  0.0653
   75MOL    H6925377   4.233   4.408   6.892  2.6140 -1.0941  0.7437
   75MOL    C7025378   4.171   4.597   6.805 -0.0787 -0.1371  0.0313
   75MOL    C7125379   4.224   4.695   6.706 -0.3899 -0.3860  0.5938
   75MOL    C7225380   4.151   4.722   6.585 -0.0354  0.0032  0.4816
   75MOL    C7325381   4.187   4.824   6.497  0.4829 -1.2404  0.6779
   75MOL    C7425382   4.301   4.901   6.526  0.3517  0.0242  0.6809
   75MOL    O7525383   4.331   5.000   6.436 -0.0230 -0.1458  0.4908
   75MOL    C7625384   4.379   4.869   6.635  0.4905  0.0413 -0.0213
   75MOL    C7725385   4.342   4.768   6.727 -0.0036 -0.2839 -0.4418
   75MOL    C7825386   4.128   4.663   6.942  0.4168 -0.0157 -1.2597
   75MOL    H7925387   4.099   4.547   6.740 -0.4399  1.6220 -0.9362
   75MOL    H8025388   4.053   4.678   6.576  0.4881 -0.7204 -2.1953
   75MOL    H8125389   4.130   4.847   6.408  1.9164  0.9489  0.2826
   75MOL    H8225390   4.391   5.065   6.468  1.5559 -0.1278 -2.3560
   75MOL    H8325391   4.472   4.918   6.660  0.9999 -1.6289  1.4208
   75MOL    H8425392   4.396   4.749   6.818  1.4044  1.3077 -0.9338
   75MOL    H8525393   4.043   4.729   6.922  0.4216  0.4096  0.0826
   75MOL    H8625394   4.202   4.733   6.980  2.1568 -2.3297 -0.2696
   75MOL    C8725395   4.082   4.562   7.048 -0.2672 -0.2295 -0.2378
   75MOL    C8825396   3.980   4.453   6.996 -0.3533 -0.3383 -0.2450
   75MOL    C8925397   4.002   4.320   7.029  0.2629  0.1041  0.8698
   75MOL    C9025398   3.916   4.223   6.973 -0.6056  0.4169  0.0188
   75MOL    C9125399   3.814   4.257   6.887 -0.1769 -0.8043  0.6996
   75MOL    O9225400   3.733   4.163   6.835 -0.6177  0.1155  0.2110
   75MOL    C9325401   3.794   4.390   6.850  0.2735  0.5649 -0.4026
   75MOL    C9425402   3.872   4.486   6.915  0.1187  0.0926  0.2418
   75MOL    C9525403   4.035   4.617   7.181  0.2208 -0.4676  0.5241
   75MOL    H9625404   4.171   4.508   7.082  0.4712  1.1478  0.0648
   75MOL    H9725405   4.082   4.283   7.091 -0.1653 -1.9471  0.2589
   75MOL    H9825406   3.933   4.118   6.991  1.5494  1.0596  1.8741
   75MOL    H9925407   3.687   4.180   6.754  0.9032  1.9560 -0.3322
   75MOL   H10025408   3.707   4.416   6.792 -0.5458  0.8693  0.9491
   75MOL   H10125409   3.864   4.591   6.889  2.9142  0.3873  0.3959
   75MOL   H10225410   3.936   4.661   7.173  1.1231  2.1400  2.8666
   75MOL   H10325411   4.024   4.527   7.242  0.8013 -0.6943  0.2991
   75MOL   C10425412   4.121   4.722   7.253 -0.6640  0.3775  0.0724
   75MOL   C10525413   4.134   4.671   7.398  0.5180 -1.0300 -0.5247
   75MOL   C10625414   4.037   4.708   7.500 -0.4082  0.4938 -0.0422
   75MOL   C10725415   4.054   4.661   7.632 -0.2026  0.8717 -0.3396
   75MOL   C10825416   4.176   4.593   7.667  0.3509 -0.0473 -0.8759
   75MOL   O10925417   4.200   4.560   7.796 -0.6642 -0.8371  0.6262
   75MOL   C11025418   4.279   4.567   7.573 -0.6954  0.7294 -0.0454
   75MOL   C11125419   4.251   4.599   7.440 -0.5548 -0.1361  0.3111
   75MOL   C11225420   4.068   4.869   7.237  0.0761 -0.0281 -0.3553
   75MOL   H11325421   4.221   4.731   7.211 -1.0156 -0.2823 -0.9130
   75MOL   H11425422   3.944   4.760   7.485  0.4156  1.5752 -1.5313
   75MOL   H11525423   3.990   4.702   7.709 -0.0101 -0.6517  0.6447
   75MOL   H11625424   4.127   4.594   7.845 -1.7662  2.1626 -2.9000
   75MOL   H11725425   4.376   4.528   7.601  0.4816  3.8264  0.3514
   75MOL   H11825426   4.331   4.577   7.371 -2.4727 -2.3953 -1.3020
   75MOL   H11925427   3.972   4.880   7.288  1.0201  1.1217  1.2316
   75MOL   H12025428   4.046   4.904   7.136 -0.6998  0.6275  0.0310
   75MOL   C12125429   4.157   4.975   7.290  0.2806  0.5796  0.3873
   75MOL   C12225430   4.256   5.014   7.187  0.7866 -0.9242 -0.2659
   75MOL   C12325431   4.224   5.065   7.058 -0.8370  0.3518  0.0225
   75MOL   C12425432   4.322   5.100   6.964  0.3252 -0.2295 -0.2382
   75MOL   C12525433   4.456   5.072   6.989 -0.1385  0.0056  0.0540
   75MOL   O12625434   4.552   5.075   6.886  0.2759 -0.5444 -0.3406
   75MOL   C12725435   4.492   5.015   7.114 -0.3694 -0.1208  0.1532
   75MOL   C12825436   4.393   4.992   7.211  0.3422  0.5273  0.4375
   75MOL   C12925437   4.076   5.103   7.329 -0.0537  0.8900  0.0009
   75MOL   H13025438   4.203   4.939   7.382 -0.3794  2.2967  1.4194
   75MOL   H13125439   4.120   5.082   7.032 -0.6781  0.4324 -0.5749
   75MOL   H13225440   4.294   5.131   6.865 -0.9016  0.0601  0.1756
   75MOL   H13325441   4.607   4.998   6.891 -0.0593 -0.6899  2.4171
   75MOL   H13425442   4.594   4.988   7.132 -0.4438 -0.4807  0.0430
   75MOL   H13525443   4.416   4.952   7.308 -0.6595  0.9147  0.8404
   75MOL   H13625444   4.018   5.121   7.239 -1.4403 -0.0299  0.6942
   75MOL   H13725445   4.132   5.195   7.343 -0.0789  0.6528  1.8921
   75MOL   C13825446   3.990   5.090   7.453 -0.1810 -0.5106 -0.6964
   75MOL   C13925447   3.895   5.208   7.439 -0.7472  0.7497  0.5929
   75MOL   C14025448   3.938   5.335   7.477  0.0998 -0.2819  0.1912
   75MOL   C14125449   3.857   5.452   7.462 -0.0697 -0.0302  0.7188
   75MOL   C14225450   3.728   5.435   7.410 -0.1046 -0.5619  0.4660
   75MOL   O14325451   3.654   5.542   7.389 -0.9234  0.4905  0.9082
   75MOL   C14425452   3.683   5.310   7.368  0.0485  0.0339  0.3828
   75MOL   C14525453   3.764   5.198   7.388  0.0225  0.1814  0.4550
   75MOL   C14625454   4.082   5.085   7.587 -0.2105 -0.6606  0.2572
   75MOL   H14725455   3.939   4.994   7.461 -0.3947 -0.3816 -0.5232
   75MOL   H14825456   4.033   5.361   7.522  0.4622 -3.6574  1.5244
   75MOL   H14925457   3.893   5.553   7.477 -1.0383  0.4184  0.0437
   75MOL   H15025458   3.692   5.618   7.432 -1.7539  1.9939 -0.9238
   75MOL   H15125459   3.586   5.311   7.320  0.0261  3.1545  0.3402
   75MOL   H15225460   3.727   5.102   7.354 -0.4241 -0.0029  1.4428
   75MOL   H15325461   4.150   5.169   7.571  0.0561 -0.6724  1.3031
   75MOL   H15425462   4.138   4.992   7.583  1.5514  0.3170  1.4051
   75MOL   C15525463   3.992   5.114   7.712 -0.1462  0.3138 -0.3224
   75MOL   C15625464   4.067   5.178   7.830 -0.2840 -0.2596  0.5966
   75MOL   C15725465   4.154   5.096   7.901  0.0857 -0.2015 -0.4127
   75MOL   C15825466   4.227   5.144   8.009  0.3041  0.0926  0.0905
   75MOL   C15925467   4.223   5.284   8.033 -0.0862  0.3760  0.3160
   75MOL   O16025468   4.307   5.332   0.092 -0.1094 -0.7755  0.1942
   75MOL   C16125469   4.147   5.374   7.948  0.2991  0.2125  0.1257
   75MOL   C16225470   4.066   5.317   7.850  0.3239  0.0631 -0.1704
   75MOL   C16325471   3.904   4.987   7.749  0.1914  0.2892 -0.2150
   75MOL   H16425472   3.917   5.186   7.680  1.2480  0.5945 -3.1206
   75MOL   H16525473   4.164   4.993   7.874 -1.5442 -0.1867 -1.1335
   75MOL   H16625474   4.303   5.083   0.017  1.2878  0.1748 -1.4071
   75MOL   H16725475   4.270   5.402   0.144  0.4726  0.0818 -0.5303
   75MOL   H16825476   4.164   5.479   7.969 -0.1744 -0.1749  2.5348
   75MOL   H16925477   4.014   5.374   7.775  0.1858 -0.3649 -0.3946
   75MOL   H17025478   3.974   4.906   7.769  1.0517  1.3987  1.4747
   75MOL   H17125479   3.844   4.953   7.665 -2.4648  1.9090  0.9570
   75MOL   C17225480   3.801   5.023   7.862 -0.1458 -0.3324  0.0218
   75MOL   C17325481   3.765   4.901   7.946 -0.3535  0.4548 -0.1659
   75MOL   C17425482   3.821   4.882   0.037 -0.2357 -1.0083 -0.2170
   75MOL   C17525483   3.793   4.761   0.108  0.0136 -0.3699  0.3214
   75MOL   C17625484   3.720   4.663   0.043  0.0386 -0.7845 -0.0763
   75MOL   O17725485   3.690   4.548   0.105  0.3587  0.2953 -0.1356
   75MOL   C17825486   3.650   4.690   7.967  0.0070  0.3954  0.0514
   75MOL   C17925487   3.669   4.810   7.900  0.5480 -0.2879  0.0959
   75MOL   C18025488   3.675   5.102   7.816  0.3557  0.5433  0.0652
   75MOL   H18125489   3.842   5.093   7.935 -2.4284 -0.9733  2.0004
   75MOL   H18225490   3.884   4.956   0.083 -1.9727  0.4778 -0.1823
   75MOL   H18325491   3.840   4.747   0.204  0.2621 -1.7941  0.0181
   75MOL   H18425492   3.624   4.579   0.166  0.6849 -1.5401  1.1808
   75MOL   H18525493   3.590   4.609   7.929  1.3898 -0.0374 -1.2151
   75MOL   H18625494   3.607   4.820   7.813 -0.8166 -0.4345  1.0410
   75MOL   H18725495   3.595   5.035   7.785  0.2378  0.6667  0.1019
   75MOL   H18825496   3.696   5.160   7.726  0.1324 -2.2387 -1.8202
   75MOL   C18925497   3.613   5.207   7.907  0.4344 -0.4610  0.6802
   75MOL   C19025498   3.542   5.146   8.026  0.1979  0.1024 -0.0152
   75MOL   C19125499   3.599   5.133   0.119  0.3866 -0.1862  0.1601
   75MOL   C19225500   3.532   5.067   0.222 -0.8184  0.0081 -0.3584
   75MOL   C19325501   3.409   5.004   0.193 -0.2965 -0.4457 -0.5404
   75MOL   O19425502   3.358   4.929   0.289  0.2249 -0.6125  0.0482
   75MOL   C19525503   3.342   5.026   0.072 -0.2143  0.0058 -1.0895
   75MOL   C19625504   3.413   5.091   8.006  0.0592  0.4117 -0.4300
   75MOL   C19725505   3.707   5.328   7.943 -0.5141  0.4398  0.3125
   75MOL   H19825506   3.538   5.247   7.839  1.2214 -1.1969 -0.6485
   75MOL   H19925507   3.698   5.170   0.143  0.1006  2.1036 -1.9707
   75MOL   H20025508   3.586   5.062   0.315  0.0936  1.0144 -0.8273
   75MOL   H20125509   3.271   4.900   0.268 -0.3819  1.4460 -0.3500
   75MOL   H20225510   3.249   4.976   0.054  1.0191 -3.6436  2.0283
   75MOL   H20325511   3.368   5.102   7.909  0.5887 -0.1208 -0.7366
   75MOL   H20425512   3.768   5.337   7.853 -1.5654  0.8834 -0.3722
   75MOL   H20525513   3.777   5.286   8.015  0.9592  2.5094  0.1351
   75MOL   C20625514   3.642   5.465   7.971  0.5031  0.2119 -0.6318
   75MOL   C20725515   3.684   5.564   7.866 -0.4531 -0.1081  0.2540
   75MOL   C20825516   3.821   5.605   7.851 -0.1221  0.8364  0.1975
   75MOL   C20925517   3.863   5.683   7.744 -0.3254 -0.4627  0.2509
   75MOL   C21025518   3.765   5.731   7.656 -0.3098 -0.4464  0.7113
   75MOL   O21125519   3.791   5.817   7.557 -0.5082  0.3832 -0.0569
   75MOL   C21225520   3.630   5.697   7.671  1.0658 -0.3459 -0.4546
   75MOL   C21325521   3.590   5.608   7.769  0.3158  0.5893  0.0675
   75MOL   C21425522   3.692   5.515   0.077 -0.2870  0.2618 -0.0457
   75MOL   H21525523   3.535   5.444   7.972  0.4837  0.3354  0.5442
   75MOL   H21625524   3.893   5.567   7.922  0.9541  1.6134 -0.4549
   75MOL   H21725525   3.969   5.696   7.728 -0.0938 -4.4073 -2.0732
   75MOL   H21825526   3.871   5.866   7.570  0.4412 -0.8984 -0.9843
   75MOL   H21925527   3.559   5.733   7.599 -0.1434 -0.5102  0.6509
   75MOL   H22025528   3.483   5.590   7.766  0.8279 -2.7997  0.1037
   75MOL   H22125529   3.801   5.506   0.084  0.0408  1.0315 -3.1385
   75MOL   H22225530   3.650   5.450   0.153  1.3650 -2.2542 -1.2195
   75MOL   C22325531   3.648   5.660   0.113 -0.2077 -0.5649  0.2141
   75MOL   C22425532   3.708   5.691   0.253 -0.1337  0.6348 -0.2650
   75MOL   C22525533   3.635   5.666   0.371  0.2947 -1.0546 -0.3960
   75MOL   C22625534   3.709   5.672   0.495 -0.2795 -0.3918  0.6432
   75MOL   C22725535   3.834   5.731   0.502  0.2082 -0.7893  0.1370
   75MOL   O22825536   3.898   5.747   0.622  0.9613  0.5385  0.4061
   75MOL   C22925537   3.905   5.770   0.385 -0.2390  0.1194  0.0222
   75MOL   C23025538   3.844   5.742   0.262  0.2288 -0.2659  0.6073
   75MOL   C23125539   3.495   5.668   0.118 -0.5194 -0.4216 -0.1991
   75MOL   H23225540   3.682   5.731   0.037  0.1076 -3.8543 -2.8385
   75MOL   H23325541   3.533   5.631   0.367  0.3736 -1.3856  0.3166
   75MOL   H23425542   3.661   5.638   0.585  0.8737 -0.1544  1.3516
   75MOL   H23525543   3.983   5.787   0.622  1.3629 -0.3049 -0.0070
   75MOL   H23625544   4.011   5.793   0.381 -0.3086  0.4259 -0.0894
   75MOL   H23725545   3.895   5.770   0.171  1.9073 -0.5382  1.4442
   75MOL   H23825546   3.467   5.625   0.022 -0.0836 -0.3435 -0.3590
   75MOL   H23925547   3.451   5.600   0.192 -0.9049  2.3372  2.2144
   75MOL   C24025548   3.436   5.810   0.124  0.1308 -1.0511  0.4038
   75MOL   C24125549   3.494   5.908   0.023 -0.3358  0.0062  0.5932
   75MOL   C24225550   3.549   6.023   0.075 -0.0861  0.5755 -0.5778
   75MOL   C24325551   3.592   6.127   8.028 -0.1593  0.4988  0.2398
   75MOL   C24425552   3.591   6.107   7.890 -0.1223 -0.1923  0.2997
   75MOL   O24525553   3.643   6.198   7.798  0.4826 -0.6941  0.1260
   75MOL   C24625554   3.550   5.983   7.836 -0.2487  0.8748 -0.0685
   75MOL   C24725555   3.495   5.883   7.920 -0.0116 -0.8003  0.3653
   75MOL   C24825556   3.282   5.796   0.090 -0.5950 -0.3232 -0.3165
   75MOL   H24925557   3.460   5.845   0.224 -0.2880  1.5887 -0.3698
   75MOL   H25025558   3.538   6.034   0.182 -0.9523  1.0297 -0.7098
   75MOL   H25125559   3.631   6.215   0.040  0.2972  0.3894  0.0717
   75MOL   H25225560   3.702   6.266   7.828 -2.5074  1.2176  1.9234
   75MOL   H25325561   3.554   5.957   7.731  0.9539  0.4145  0.0784
   75MOL   H25425562   3.457   5.798   7.865  1.1224 -1.2199  0.2279
   75MOL   H25525563   3.253   5.897   0.062 -4.8706 -1.3069  0.2158
   75MOL   H25625564   3.265   5.732   0.003  2.1735 -0.0740 -1.0887
   75MOL   C25725565   3.202   5.743   0.211  0.6665 -0.5778 -0.0474
   75MOL   C25825566   3.211   5.828   0.338 -0.1564 -0.0623 -0.0657
   75MOL   C25925567   3.233   5.761   0.460 -0.6156 -0.0183 -0.2200
   75MOL   C26025568   3.254   5.840   0.576 -0.7397 -0.0609  0.6011
   75MOL   C26125569   3.237   5.985   0.571 -0.7866  0.3165  0.1489
   75MOL   O26225570   3.279   6.065   0.671  0.1217 -0.1317  0.2886
   75MOL   C26325571   3.198   6.045   0.447  0.8408  0.6350  0.9183
   75MOL   C26425572   3.182   5.965   0.335  0.3565 -0.6000 -0.4494
   75MOL   C26525573   3.057   5.711   0.163 -0.8044  0.6153 -0.4625
   75MOL   H26625574   3.246   5.645   0.228  0.4622 -0.8187 -0.8385
   75MOL   H26725575   3.254   5.655   0.464 -2.1799 -0.2618  2.6685
   75MOL   H26825576   3.289   5.796   0.668 -0.7224  1.5172  1.3818
   75MOL   H26925577   3.278   6.016   0.751 -0.1663  0.8553  0.9089
   75MOL   H27025578   3.183   6.150   0.429  1.5369  0.5629 -0.1581
   75MOL   H27125579   3.151   6.009   0.242 -0.5117 -0.3483 -0.0426
   75MOL   H27225580   3.027   5.776   0.082  3.4654  1.2003 -1.6909
   75MOL   H27325581   2.985   5.732   0.243 -0.6029  1.3752 -0.4842
   75MOL   C27425582   3.030   5.565   0.132  0.1956 -0.1280  0.5554
   75MOL   C27525583   3.094   5.518   8.037 -0.1075  0.4681 -0.2116
   75MOL   C27625584   3.203   5.435   0.010 -0.6451  0.8707  0.0364
   75MOL   C27725585   3.264   5.381   7.931  0.3287  0.0942  0.3256
   75MOL   C27825586   3.217   5.416   7.803 -0.1399  0.3130 -0.3704
   75MOL   O27925587   3.279   5.359   7.701 -0.5666 -0.2354  0.0421
   75MOL   C28025588   3.100   5.491   7.795  0.7118  0.9664  0.0657
   75MOL   C28125589   3.041   5.549   7.911  0.8877 -0.2706  0.4562
   75MOL   C28225590   2.889   5.522   0.140  0.4768  0.3101 -0.1074
   75MOL   H28325591   3.075   5.509   0.214  0.8446  0.9222  0.9301
   75MOL   H28425592   3.250   5.410   0.104 -3.2730  1.1729  1.4846
   75MOL   H28525593   3.350   5.316   7.944  0.6962  0.7222  1.0949
   75MOL   H28625594   3.349   5.411   7.665 -0.6388 -0.3217 -0.2153
   75MOL   H28725595   3.063   5.506   7.694  0.0558  0.7655  0.2748
   75MOL   H28825596   2.959   5.617   7.891  1.9312  0.5721 -0.9839
   75MOL   H28925597   2.826   5.576   0.069  1.8431  0.6963 -1.0379
   75MOL   H29025598   2.871   5.424   0.095  0.7033  0.1338  0.1852
   75MOL   C29125599   2.832   5.516   0.286 -0.1561  0.0875 -0.2445
   75MOL   C29225600   2.884   5.382   0.351  0.5576  0.2367  0.5414
   75MOL   C29325601   2.837   5.254   0.301  0.5010  0.0975 -0.3232
   75MOL   C29425602   2.900   5.140   0.347 -0.8648  0.1659 -0.2997
   75MOL   C29525603   3.002   5.144   0.444  0.3371  0.0187  0.1341
   75MOL   O29625604   3.072   5.028   0.472 -0.7723  0.1432 -0.1919
   75MOL   C29725605   3.044   5.267   0.496 -0.6168 -0.3734 -0.8445
   75MOL   C29825606   2.979   5.390   0.455  0.1718  0.0034  1.0343
   75MOL   C29925607   2.680   5.542   0.284  0.5293 -0.4219 -0.2383
   75MOL   H30025608   2.857   5.604   0.346  1.2404 -1.4648  1.4759
   75MOL   H30125609   2.761   5.243   0.226  1.2799 -3.6221 -0.6680
   75MOL   H30225610   2.883   5.041   0.306 -1.2956 -0.9709  2.5224
   75MOL   H30325611   3.154   5.046   0.515 -0.5278 -0.6429 -0.3069
   75MOL   H30425612   3.122   5.284   0.568 -0.9796  0.9764 -0.7553
   75MOL   H30525613   3.004   5.488   0.493  4.0120 -0.2215 -0.6776
   75MOL   H30625614   2.629   5.470   0.221  1.0679  1.0012 -2.3460
   75MOL   H30725615   2.663   5.640   0.240  0.2330 -0.3967 -0.0661
   75MOL   C30825616   2.608   5.537   0.421 -0.1097 -0.1444 -0.0566
   75MOL   C30925617   2.457   5.546   0.396 -0.2118 -0.0003 -0.4408
   75MOL   C31025618   2.370   5.440   0.426 -0.1107  0.7025 -0.0501
   75MOL   C31125619   2.235   5.451   0.391  0.7438 -0.5047 -0.0153
   75MOL   C31225620   2.179   5.567   0.332 -0.2582 -0.3451 -1.0412
   75MOL   O31325621   2.047   5.578   0.319 -0.4297  0.5608 -0.0681
   75MOL   C31425622   2.267   5.672   0.301 -0.2846  0.8465 -0.0938
   75MOL   C31525623   2.403   5.657   0.325 -0.7679 -0.3658  0.2202
   75MOL   C31625624   2.662   5.653   0.513 -0.4129 -0.5549 -0.3351
   75MOL   H31725625   2.642   5.446   0.470  0.4248 -0.6499 -1.3621
   75MOL   H31825626   2.399   5.345   0.468  1.5686  1.6146  0.9227
   75MOL   H31925627   2.167   5.367   0.394 -1.2829  1.1215  1.0111
   75MOL   H32025628   2.017   5.663   0.348 -0.9994  0.4129 -0.2042
   75MOL   H32125629   2.245   5.772   0.265 -0.7473  1.1870  1.1048
   75MOL   H32225630   2.463   5.745   0.309  1.5376 -1.6586  1.4305
   75MOL   H32325631   2.665   5.749   0.460  0.8254  0.6840  1.9203
   75MOL   H32425632   2.765   5.625   0.533 -0.8637 -1.8557  0.1540
   75MOL   C32525633   2.608   5.657   0.661 -0.1426  0.6584  0.4603
   75MOL   C32625634   2.469   5.713   0.668 -0.4083 -0.0903  1.1769
   75MOL   C32725635   2.361   5.629   0.716 -0.0513  0.0645 -0.2413
   75MOL   C32825636   2.226   5.683   0.710  0.4852  0.4801 -0.4587
   75MOL   C32925637   2.205   5.818   0.673 -0.1825 -0.3218 -0.1032
   75MOL   O33025638   2.084   5.875   0.684  0.7478 -0.3712 -0.3532
   75MOL   C33125639   2.315   5.898   0.628  0.2455  0.0922  0.2108
   75MOL   C33225640   2.445   5.844   0.624 -0.0377  0.0322  0.0888
   75MOL   C33325641   2.697   5.735   0.761 -0.4642 -0.2380 -0.4686
   75MOL   H33425642   2.597   5.557   0.704 -1.0780  1.1315  1.3587
   75MOL   H33525643   2.381   5.528   0.749 -0.5253 -0.2811 -1.0019
   75MOL   H33625644   2.149   5.625   0.760  2.6693 -3.3975 -1.3389
   75MOL   H33725645   2.009   5.824   0.714  2.0341 -2.0521  0.0719
   75MOL   H33825646   2.302   5.999   0.594  3.0040  0.1035 -0.9634
   75MOL   H33925647   2.529   5.908   0.599  0.6865 -1.3638 -1.1570
   75MOL   H34025648   2.650   5.756   0.857  0.9566 -0.5929  0.3220
   75MOL   H34125649   2.731   5.828   0.716  0.3903 -0.9648 -1.3721
   75MOL   H34225650   2.789   5.680   0.781 -1.2308 -1.9442 -1.5209
   76MOL     C125651   3.945   1.429   2.027 -0.4639  0.1098  0.1277
   76MOL     C225652   3.941   1.282   2.006  0.1257  0.5405  0.3092
   76MOL     C325653   4.056   1.203   2.020 -0.5923 -0.3227  0.0762
   76MOL     C425654   4.050   1.062   2.007 -0.1965 -0.3488 -0.0894
   76MOL     C525655   3.925   1.000   1.976  0.2949  0.2406  0.1207
   76MOL     O625656   3.918   0.870   1.949  0.4663  0.7101  0.7038
   76MOL     C725657   3.811   1.080   1.968  0.3188  0.0019  0.7349
   76MOL     C825658   3.818   1.215   1.991 -0.4292 -0.0067  0.2169
   76MOL     C925659   3.948   1.477   2.174 -0.1732 -0.5968  0.5155
   76MOL    H1025660   4.045   1.452   1.989 -0.5540  1.4144  0.6740
   76MOL    H1125661   4.156   1.240   2.040  0.2054 -2.1274 -0.4532
   76MOL    H1225662   4.138   1.003   2.032  0.3699 -0.7926 -3.0067
   76MOL    H1325663   3.843   0.835   1.903  0.3492  1.8267  0.0325
   76MOL    H1425664   3.712   1.044   1.945  0.4026  0.5086 -0.4850
   76MOL    H1525665   3.734   1.282   1.984 -0.8134 -0.3551  1.4291
   76MOL    H1625666   4.009   1.405   2.228 -2.6518 -2.0719  1.4345
   76MOL    H1725667   3.849   1.470   2.219 -0.7237 -1.0013 -0.7393
   76MOL    H1825668   3.874   1.481   1.964 -0.6636 -1.8243 -1.2819
   76MOL    C1925669   4.005   1.619   2.205  0.2186  0.5405 -0.2408
   76MOL    C2025670   4.017   1.629   2.357 -0.7364 -0.4803  0.4236
   76MOL    C2125671   4.149   1.623   2.414 -0.4009  0.6368 -0.6422
   76MOL    C2225672   4.168   1.635   2.554  0.0074  0.5471 -0.2131
   76MOL    C2325673   4.048   1.641   2.636 -0.1809  0.2846  0.0188
   76MOL    O2425674   4.056   1.642   2.763  0.1451 -0.4811  0.1807
   76MOL    C2525675   3.920   1.643   2.576 -0.0963  0.2398 -0.5814
   76MOL    C2625676   3.905   1.639   2.435  0.1469  0.4781  0.3250
   76MOL    C2725677   3.924   1.738   2.140 -0.4415  0.0564  0.0740
   76MOL    H2825678   4.108   1.615   2.170  0.4252  0.7591  0.3327
   76MOL    H2925679   4.232   1.597   2.349  0.8858  1.2906  0.7017
   76MOL    H3025680   4.267   1.636   2.597 -0.1818 -1.2121  0.3004
   76MOL    H3125681   4.127   1.701   2.783  0.1142  0.0153 -1.1016
   76MOL    H3225682   3.840   1.633   2.647  0.9218 -0.8786  0.4248
   76MOL    H3325683   3.811   1.645   2.383  1.3049 -0.7044 -1.9707
   76MOL    H3425684   3.816   1.721   2.144 -0.9715  3.4178  0.9644
   76MOL    H3525685   3.942   1.740   2.032 -0.3984 -1.4137  0.0385
   76MOL    C3625686   3.951   1.884   2.183  0.3679  0.1292 -0.3986
   76MOL    C3725687   3.815   1.943   2.230  0.3777  0.3430 -0.3825
   76MOL    C3825688   3.713   1.973   2.135  0.3715  0.0745  0.3844
   76MOL    C3925689   3.596   2.038   2.173 -0.3312 -0.0493 -0.1679
   76MOL    C4025690   3.574   2.069   2.308 -0.5474  0.0632  0.6321
   76MOL    O4125691   3.464   2.135   2.347  0.5882 -0.1606  0.6387
   76MOL    C4225692   3.664   2.022   2.406 -0.1819  0.1047 -0.1105
   76MOL    C4325693   3.792   1.970   2.367 -0.3901  0.4690 -0.0558
   76MOL    C4425694   4.025   1.974   2.078  0.5553  0.0642  0.4549
   76MOL    H4525695   4.011   1.872   2.274 -1.4183  1.5336  1.0046
   76MOL    H4625696   3.731   1.959   2.029  0.2220  2.1118  0.0677
   76MOL    H4725697   3.518   2.061   2.102 -1.5067 -1.0566  0.7626
   76MOL    H4825698   3.461   2.182   2.429  1.5992  0.2585  0.4451
   76MOL    H4925699   3.653   2.046   2.511  0.5475  0.2416 -0.0580
   76MOL    H5025700   3.867   1.949   2.441 -1.6654 -1.7233  0.6473
   76MOL    H5125701   4.103   1.911   2.034  0.7305  0.0141  0.8386
   76MOL    H5225702   3.959   1.998   1.994 -0.2939  1.8078  1.5938
   76MOL    C5325703   4.095   2.108   2.119 -0.4922 -0.1235 -0.4929
   76MOL    C5425704   4.182   2.169   2.005  0.0835 -0.3196  0.5332
   76MOL    C5525705   4.310   2.223   2.032 -0.5521  0.0923  0.5309
   76MOL    C5625706   4.394   2.290   1.934  0.7619  0.6037 -0.4764
   76MOL    C5725707   4.343   2.298   1.801  0.1304 -0.3934  0.5935
   76MOL    O5825708   4.411   2.351   1.692  0.5264  0.2732  0.0716
   76MOL    C5925709   4.210   2.245   1.771  0.1492  0.1316 -0.2963
   76MOL    C6025710   4.140   2.174   1.872 -0.4618  0.5429 -0.3839
   76MOL    C6125711   3.993   2.213   2.174  0.1482  0.2071  0.2693
   76MOL    H6225712   4.169   2.071   2.191 -1.4696 -0.4297  0.3627
   76MOL    H6325713   4.358   2.211   2.128 -0.2751 -0.7306  0.2939
   76MOL    H6425714   4.494   2.321   1.963  0.7379 -0.0822  0.3875
   76MOL    H6525715   4.496   2.389   1.707 -0.4241  1.5839  2.5657
   76MOL    H6625716   4.175   2.232   1.670  0.0801 -0.0667 -0.2475
   76MOL    H6725717   4.046   2.127   1.850  0.3034 -0.5038 -1.4667
   76MOL    H6825718   3.908   2.172   2.229  0.7043 -0.1633  0.8655
   76MOL    H6925719   3.944   2.255   2.087 -0.6680 -0.1155  0.5679
   76MOL    C7025720   4.041   2.325   2.272 -0.0440  0.2089  0.4232
   76MOL    C7125721   4.045   2.286   2.418 -0.4506  0.2665  0.4328
   76MOL    C7225722   3.923   2.260   2.481 -0.1996 -0.5177 -0.3854
   76MOL    C7325723   3.926   2.219   2.613  0.5479 -0.3103  0.1734
   76MOL    C7425724   4.047   2.200   2.678  0.9316 -0.3719 -0.2665
   76MOL    O7525725   4.046   2.172   2.810 -0.0264  0.1384  0.5330
   76MOL    C7625726   4.168   2.238   2.620  0.0108  0.5220  0.7142
   76MOL    C7725727   4.169   2.282   2.484  0.3635  0.5013 -0.7473
   76MOL    C7825728   3.950   2.449   2.248 -0.6584  0.8686 -0.2759
   76MOL    H7925729   4.142   2.348   2.240 -0.3188 -0.5568 -1.0394
   76MOL    H8025730   3.832   2.265   2.424  0.9788  0.3997 -2.2632
   76MOL    H8125731   3.833   2.192   2.662  0.5416  1.2319  1.0329
   76MOL    H8225732   3.961   2.179   2.849  0.2268  0.7164  0.9942
   76MOL    H8325733   4.258   2.230   2.679  0.3409 -0.0757  0.1299
   76MOL    H8425734   4.256   2.315   2.428  2.8460 -1.4056  1.8176
   76MOL    H8525735   3.968   2.515   2.333  0.8272 -0.9913  0.8999
   76MOL    H8625736   3.844   2.425   2.261  0.1954 -2.0307  1.9524
   76MOL    C8725737   3.986   2.526   2.124 -0.5286  0.5474  0.0919
   76MOL    C8825738   4.125   2.595   2.130  0.0128  0.5173 -0.1431
   76MOL    C8925739   4.179   2.656   2.246  0.6218  0.0045 -0.4283
   76MOL    C9025740   4.314   2.698   2.247  0.8187  0.7544 -0.7227
   76MOL    C9125741   4.402   2.668   2.144 -0.5149  0.3131  0.5639
   76MOL    O9225742   4.530   2.706   2.144 -0.4724 -0.3527  0.5871
   76MOL    C9325743   4.344   2.606   2.028  0.5988 -0.4253 -0.5492
   76MOL    C9425744   4.204   2.572   2.017  0.2578 -0.8899  0.2416
   76MOL    C9525745   3.871   2.636   2.091  0.3900  0.1422 -0.2178
   76MOL    H9625746   3.995   2.462   2.036  0.3338  2.8726 -1.5936
   76MOL    H9725747   4.126   2.674   2.338 -1.4116 -1.5695 -1.2347
   76MOL    H9825748   4.340   2.754   2.336 -2.3666  1.2969 -0.0568
   76MOL    H9925749   4.565   2.743   2.223 -0.5577 -3.3132  2.1073
   76MOL   H10025750   4.407   2.577   1.945 -2.1664 -3.5466 -1.6895
   76MOL   H10125751   4.162   2.521   1.932  1.8706 -2.2211  0.2345
   76MOL   H10225752   3.863   2.708   2.172 -0.4419  0.4714 -0.5840
   76MOL   H10325753   3.906   2.703   2.013 -1.7010  2.0506  0.4424
   76MOL   C10425754   3.734   2.574   2.060  0.2096 -0.2098 -0.8784
   76MOL   C10525755   3.741   2.461   1.956  0.3195 -0.1766  0.4861
   76MOL   C10625756   3.783   2.494   1.824  0.4359 -0.4750 -0.1265
   76MOL   C10725757   3.809   2.391   1.733 -0.0565 -0.2942  0.6821
   76MOL   C10825758   3.778   2.259   1.762  0.3705 -0.5507 -0.5393
   76MOL   O10925759   3.798   2.164   1.665  0.6809  0.9885 -0.0882
   76MOL   C11025760   3.737   2.225   1.892  0.7694  0.3945 -0.1761
   76MOL   C11125761   3.717   2.328   1.990  0.0013 -0.0425  0.0887
   76MOL   C11225762   3.619   2.668   2.041 -0.3667 -0.2920 -0.0400
   76MOL   H11325763   3.704   2.524   2.152 -1.5782 -0.6957 -1.7199
   76MOL   H11425764   3.800   2.598   1.803  0.8745 -0.7369 -1.1108
   76MOL   H11525765   3.850   2.414   1.635 -0.3878 -1.7672  0.1818
   76MOL   H11625766   3.756   2.197   1.588 -1.0134 -1.2221 -0.1503
   76MOL   H11725767   3.725   2.122   1.923 -1.5055  0.9857  1.0285
   76MOL   H11825768   3.702   2.305   2.094  0.3128  0.2453  0.1995
   76MOL   H11925769   3.665   2.751   1.988  1.4044 -0.8898  0.5127
   76MOL   H12025770   3.588   2.694   2.143 -0.0956  1.8739 -0.4798
   76MOL   C12125771   3.502   2.617   1.956  0.0091  0.3833 -0.1444
   76MOL   C12225772   3.430   2.495   2.007  0.4825 -0.0495  0.0850
   76MOL   C12325773   3.386   2.397   1.913 -0.3754  0.0584  0.8448
   76MOL   C12425774   3.299   2.290   1.959  0.4231 -0.5274  0.6253
   76MOL   C12525775   3.280   2.273   2.098  0.7309 -0.2992  0.4047
   76MOL   O12625776   3.210   2.167   2.142  0.1378 -0.0813 -0.4574
   76MOL   C12725777   3.333   2.367   2.186 -0.4224  0.3080 -0.2217
   76MOL   C12825778   3.403   2.480   2.145  0.0912 -0.2175  0.2069
   76MOL   C12925779   3.400   2.735   1.932 -0.2427  0.3673 -0.3863
   76MOL   H13025780   3.541   2.588   1.858  0.9130  2.9813 -0.5682
   76MOL   H13125781   3.398   2.418   1.808  2.5625 -2.1471  0.6349
   76MOL   H13225782   3.253   2.232   1.881 -0.5499  2.6654 -1.2478
   76MOL   H13325783   3.243   2.133   2.224 -0.5554 -0.6041 -0.3824
   76MOL   H13425784   3.318   2.365   2.293  0.0298 -2.5213 -0.1713
   76MOL   H13525785   3.428   2.559   2.214 -0.1708  0.6934 -0.7225
   76MOL   H13625786   3.435   2.834   1.961  2.1099 -0.0154 -1.7596
   76MOL   H13725787   3.323   2.725   2.008  0.0206 -1.2065 -0.3060
   76MOL   C13825788   3.353   2.743   1.793  0.2992 -0.7805  0.3923
   76MOL   C13925789   3.472   2.788   1.702  0.7307  0.0845  0.0426
   76MOL   C14025790   3.524   2.919   1.716 -0.4969  0.6488  0.3986
   76MOL   C14125791   3.645   2.955   1.650  0.3021  0.2695  0.1595
   76MOL   C14225792   3.703   2.864   1.556 -0.0718  0.0151 -0.0606
   76MOL   O14325793   3.823   2.892   1.493 -0.1639  0.4771 -0.5248
   76MOL   C14425794   3.645   2.739   1.536 -0.4371 -0.5166  0.3087
   76MOL   C14525795   3.535   2.696   1.617 -0.0757 -0.4590 -0.3293
   76MOL   C14625796   3.225   2.836   1.766  0.4742  0.4696  0.3466
   76MOL   H14725797   3.318   2.643   1.766 -0.0219 -0.2282 -1.2980
   76MOL   H14825798   3.481   2.991   1.783 -1.6059  0.6584 -0.3134
   76MOL   H14925799   3.703   3.041   1.679  2.2904 -1.8779  2.8612
   76MOL   H15025800   3.825   2.882   1.399  0.5638 -0.8399 -0.3750
   76MOL   H15125801   3.699   2.667   1.476  0.7273 -0.1147  0.8558
   76MOL   H15225802   3.510   2.590   1.620  0.8733 -0.6672  0.1808
   76MOL   H15325803   3.187   2.840   1.664 -2.8116  0.9344  1.5231
   76MOL   H15425804   3.266   2.937   1.777  0.1377  0.6987 -0.4803
   76MOL   C15525805   3.099   2.811   1.858 -0.4052 -0.4403  0.3267
   76MOL   C15625806   3.050   2.665   1.840  0.5558  0.2681 -0.0005
   76MOL   C15725807   3.062   2.579   1.946  0.2733  0.1727  0.2500
   76MOL   C15825808   3.028   2.442   1.945  0.1735  0.1256  0.6992
   76MOL   C15925809   2.973   2.397   1.825  1.2861  0.0622 -0.0425
   76MOL   O16025810   2.939   2.272   1.813 -0.2950  0.2800 -0.0584
   76MOL   C16125811   2.951   2.490   1.717 -0.9135  0.6131 -0.1252
   76MOL   C16225812   3.003   2.618   1.720 -0.1271  0.2791  0.6674
   76MOL   C16325813   2.988   2.913   1.821  0.1883  0.1299 -0.3347
   76MOL   H16425814   3.130   2.822   1.961  0.2929 -0.5607  0.1331
   76MOL   H16525815   3.110   2.621   2.033  2.6672  0.4480 -1.1467
   76MOL   H16625816   3.055   2.370   2.021 -0.9050  0.3158  1.2806
   76MOL   H16725817   2.946   2.231   1.897 -0.5319  0.1416 -0.1050
   76MOL   H16825818   2.903   2.458   1.626 -0.5675 -1.4793  0.3842
   76MOL   H16925819   2.985   2.681   1.635  0.5764 -1.1015 -0.5182
   76MOL   H17025820   2.946   2.887   1.723 -0.5079  0.8153 -0.2237
   76MOL   H17125821   3.015   3.018   1.808 -1.4873  0.4694 -1.2537
   76MOL   C17225822   2.859   2.914   1.910 -0.6215 -0.1070  0.5921
   76MOL   C17325823   2.740   2.984   1.836 -0.0633 -0.4706 -0.6033
   76MOL   C17425824   2.760   3.109   1.776 -0.1788  0.1592  0.2219
   76MOL   C17525825   2.652   3.180   1.719  0.1017  0.9007 -0.1789
   76MOL   C17625826   2.526   3.126   1.716 -0.3284  0.0577 -0.1620
   76MOL   O17725827   2.424   3.178   1.640 -0.0980 -0.3430  0.1532
   76MOL   C17825828   2.502   3.005   1.787 -0.3273  0.8592 -1.3192
   76MOL   C17925829   2.607   2.932   1.849  0.0968  0.5658  0.8023
   76MOL   C18025830   2.893   2.992   2.041  0.2169 -0.0051  0.0909
   76MOL   H18125831   2.824   2.813   1.929 -0.2355 -0.4991 -0.7619
   76MOL   H18225832   2.856   3.157   1.783  0.4280 -0.9079 -0.5588
   76MOL   H18325833   2.666   3.270   1.661  1.3888  0.3728 -0.7205
   76MOL   H18425834   2.456   3.264   1.615  2.0168 -0.9497  0.6674
   76MOL   H18525835   2.406   2.955   1.795 -0.1389  0.3486 -2.1337
   76MOL   H18625836   2.588   2.836   1.894  3.2359 -0.8858 -0.7643
   76MOL   H18725837   2.964   3.071   2.017  0.1799  0.0665  0.2190
   76MOL   H18825838   2.957   2.918   2.088 -0.1937 -0.1919  0.3605
   76MOL   C18925839   2.782   3.035   2.136 -0.3015 -0.1438  0.3024
   76MOL   C19025840   2.704   2.922   2.196 -0.3349 -0.5021  0.2997
   76MOL   C19125841   2.561   2.925   2.203 -0.5802 -0.0573 -0.0513
   76MOL   C19225842   2.489   2.814   2.260  0.5776  0.6557  0.7096
   76MOL   C19325843   2.559   2.714   2.327  0.1291  0.5544 -0.3387
   76MOL   O19425844   2.490   2.624   2.402 -0.5971  0.9182  0.4621
   76MOL   C19525845   2.702   2.713   2.318  0.2617  0.3101 -0.1569
   76MOL   C19625846   2.770   2.815   2.254 -0.0026  0.3672  0.4497
   76MOL   C19725847   2.830   3.137   2.246 -0.4159  0.0046 -0.2553
   76MOL   H19825848   2.709   3.090   2.077 -0.9807 -1.2609  0.0924
   76MOL   H19925849   2.507   3.008   2.160 -1.2250 -0.8834 -0.8539
   76MOL   H20025850   2.382   2.821   2.268  0.1904 -0.7908 -2.4323
   76MOL   H20125851   2.485   2.658   2.490  2.2251  0.9729  0.6577
   76MOL   H20225852   2.755   2.632   2.368  0.1214 -0.0214 -0.5413
   76MOL   H20325853   2.875   2.791   2.243 -0.1222 -0.3984  0.9191
   76MOL   H20425854   2.890   3.218   2.204 -1.4624  0.6012 -0.5973
   76MOL   H20525855   2.890   3.083   2.320  2.9150  1.3383 -1.8789
   76MOL   C20625856   2.720   3.208   2.326 -0.9959  0.3144  0.3703
   76MOL   C20725857   2.627   3.285   2.231 -0.1663  0.3623  0.1858
   76MOL   C20825858   2.484   3.273   2.240 -0.7136  0.1130  0.0281
   76MOL   C20925859   2.399   3.348   2.158  0.5878  0.3790 -0.1446
   76MOL   C21025860   2.454   3.403   2.038 -0.7266 -0.3245 -0.3003
   76MOL   O21125861   2.375   3.470   1.955 -0.1786  0.4489 -0.1535
   76MOL   C21225862   2.595   3.404   2.023  0.4991 -0.5162  0.3091
   76MOL   C21325863   2.678   3.356   2.125 -0.4487 -0.4757 -0.1592
   76MOL   C21425864   2.774   3.286   2.450 -0.3705  0.2576  0.3474
   76MOL   H21525865   2.649   3.132   2.360  0.0897 -1.3119 -0.9157
   76MOL   H21625866   2.432   3.225   2.321  1.6591 -1.7062  0.5618
   76MOL   H21725867   2.295   3.350   2.186  0.9834 -1.4857  1.5720
   76MOL   H21825868   2.415   3.471   1.869  2.0034 -1.1626  0.7953
   76MOL   H21925869   2.638   3.450   1.935  0.0084  0.8770  0.7913
   76MOL   H22025870   2.786   3.361   2.119 -0.4143  1.3647  1.5834
   76MOL   H22125871   2.682   3.336   2.479 -1.7176 -2.0630  0.1490
   76MOL   H22225872   2.855   3.356   2.429 -1.7103  1.7283 -0.0412
   76MOL   C22325873   2.815   3.197   2.564  0.0087  0.4190 -0.1805
   76MOL   C22425874   2.723   3.080   2.598 -0.9310 -0.7807 -0.0188
   76MOL   C22525875   2.595   3.104   2.629 -0.8847  0.2446  0.4416
   76MOL   C22625876   2.502   3.000   2.646 -0.3659  0.0991 -0.6712
   76MOL   C22725877   2.548   2.863   2.637 -0.2984  0.3346 -0.1215
   76MOL   O22825878   2.450   2.771   2.661  0.1171  0.3382 -0.2334
   76MOL   C22925879   2.685   2.837   2.624 -0.1634  0.3388  0.0292
   76MOL   C23025880   2.773   2.946   2.597  0.1672  0.1227 -0.0891
   76MOL   C23125881   2.834   3.295   2.686 -0.5273 -0.3222  0.7406
   76MOL   H23225882   2.913   3.155   2.541 -0.8234 -0.3325 -2.5642
   76MOL   H23325883   2.568   3.207   2.643  1.5564  1.0867 -0.7575
   76MOL   H23425884   2.400   3.029   2.670 -0.2082  1.0302 -1.1007
   76MOL   H23525885   2.376   2.809   2.707 -1.4311  0.5471 -2.8047
   76MOL   H23625886   2.714   2.733   2.636 -2.0647 -0.2417 -0.2693
   76MOL   H23725887   2.871   2.926   2.557  0.0571  1.0908 -0.8819
   76MOL   H23825888   2.921   3.355   2.661 -1.4759 -1.3166 -5.9175
   76MOL   H23925889   2.751   3.364   2.682 -1.3003 -1.2928 -0.4420
   76MOL   C24025890   2.853   3.238   2.833 -0.1116 -0.2459 -0.2504
   76MOL   C24125891   2.947   3.118   2.840 -0.6148  0.0189 -0.2936
   76MOL   C24225892   3.072   3.128   2.775  1.0555  0.0359  0.4255
   76MOL   C24325893   3.164   3.018   2.773  0.1620  0.4192  0.0070
   76MOL   C24425894   3.121   2.895   2.828  0.0692 -0.2739 -0.2618
   76MOL   O24525895   3.201   2.780   2.833  0.2583 -0.0562  0.5778
   76MOL   C24625896   2.994   2.889   2.894 -0.2922 -0.2720 -0.0271
   76MOL   C24725897   2.912   3.001   2.900 -0.3495 -0.5026  0.0043
   76MOL   C24825898   2.881   3.353   2.936 -0.3546 -0.1600  0.5276
   76MOL   H24925899   2.756   3.206   2.872  0.4089 -0.0634  1.2286
   76MOL   H25025900   3.089   3.216   2.715  1.8494  0.6428  1.5120
   76MOL   H25125901   3.262   3.024   2.728 -0.9395 -1.1261 -2.6741
   76MOL   H25225902   3.191   2.722   2.907  2.6694 -0.4835  0.6113
   76MOL   H25325903   2.961   2.801   2.946 -0.7052  0.1004  0.3464
   76MOL   H25425904   2.818   2.996   2.953 -1.0230  2.1551 -0.8565
   76MOL   H25525905   2.797   3.418   2.913  0.6370  1.7112  2.0350
   76MOL   H25625906   2.857   3.328   3.039 -1.4921  3.0268  1.0962
   76MOL   C25725907   3.013   3.436   2.928 -0.5314  0.2261  0.0810
   76MOL   C25825908   2.981   3.584   2.976 -0.1180 -0.5587  0.4095
   76MOL   C25925909   2.944   3.605   3.106  0.0059  0.3044  0.5730
   76MOL   C26025910   2.925   3.740   3.147 -0.6765  0.3421 -0.4471
   76MOL   C26125911   2.927   3.850   3.061 -0.3628 -0.5043 -0.0849
   76MOL   O26225912   2.885   3.979   3.097 -0.6144  0.4618  0.2201
   76MOL   C26325913   2.955   3.828   2.929  0.3971  0.1094  0.4879
   76MOL   C26425914   2.996   3.699   2.889  0.6313 -0.8925 -0.5021
   76MOL   C26525915   3.134   3.368   2.998 -0.0874 -0.2504 -0.2685
   76MOL   H26625916   3.039   3.456   2.824  0.5858  2.6698  0.7838
   76MOL   H26725917   2.941   3.519   3.172  0.5639 -0.3837 -0.2810
   76MOL   H26825918   2.879   3.759   3.244  0.4900 -0.7932  0.3489
   76MOL   H26925919   2.915   4.061   3.059 -2.9200  1.2346 -0.0716
   76MOL   H27025920   2.964   3.911   2.860 -0.0085 -1.7657 -1.8809
   76MOL   H27125921   3.013   3.688   2.782 -0.2761 -0.2310 -0.7202
   76MOL   H27225922   3.153   3.268   2.957  1.0439  0.3445 -1.2184
   76MOL   H27325923   3.113   3.355   3.104  3.7407 -2.2391  0.3212
   76MOL   C27425924   3.263   3.453   2.981 -0.3220 -0.9395 -0.5326
   76MOL   C27525925   3.308   3.478   2.834  0.4491 -0.0866  0.1509
   76MOL   C27625926   3.286   3.603   2.780 -0.1139 -0.5372  0.2208
   76MOL   C27725927   3.329   3.634   2.649  0.0380 -0.1242  0.2645
   76MOL   C27825928   3.391   3.536   2.567  0.4475  0.2618 -0.0553
   76MOL   O27925929   3.431   3.560   2.440  0.3529  0.4495 -0.0356
   76MOL   C28025930   3.408   3.409   2.620 -0.0639  0.1432 -0.3807
   76MOL   C28125931   3.365   3.378   2.753  0.2869  0.0777  1.1285
   76MOL   C28225932   3.375   3.412   3.068 -0.2603 -0.5949 -0.0796
   76MOL   H28325933   3.229   3.550   3.017  0.5381 -0.3061 -1.3836
   76MOL   H28425934   3.248   3.683   2.843  1.6667 -2.0883  3.3974
   76MOL   H28525935   3.308   3.733   2.611  3.1882 -0.2307 -1.8995
   76MOL   H28625936   3.371   3.528   2.375  1.3893  0.0627 -0.8063
   76MOL   H28725937   3.442   3.325   2.561  2.0027  1.9189 -1.7751
   76MOL   H28825938   3.369   3.277   2.791 -3.3049 -0.2366  0.8330
   76MOL   H28925939   3.351   3.394   3.173 -3.0439  1.9917 -0.2215
   76MOL   H29025940   3.408   3.318   3.024 -1.3771 -0.4207 -1.3186
   76MOL   C29125941   3.496   3.509   3.058  0.0374  0.8037  0.4234
   76MOL   C29225942   3.624   3.446   3.092  0.1545  0.1265 -0.3073
   76MOL   C29325943   3.732   3.474   3.009 -0.6344 -0.1269 -0.2610
   76MOL   C29425944   3.862   3.438   3.050 -0.4701 -0.4415  0.1058
   76MOL   C29525945   3.879   3.357   3.167  0.5575 -0.7798  0.3070
   76MOL   O29625946   4.004   3.328   3.214 -0.0393 -0.6661  0.0640
   76MOL   C29725947   3.772   3.325   3.251 -0.3147 -0.3077 -0.1096
   76MOL   C29825948   3.644   3.373   3.210  0.1405  0.7351 -0.2541
   76MOL   C29925949   3.476   3.640   3.143  0.1880  0.0714  0.4985
   76MOL   H30025950   3.512   3.541   2.954  1.8288 -1.2059  0.0349
   76MOL   H30125951   3.723   3.529   2.917 -1.2738  0.1335 -0.0424
   76MOL   H30225952   3.941   3.462   2.980 -0.6624 -0.8959 -0.2699
   76MOL   H30325953   4.009   3.339   3.308  2.1104  0.5893 -0.1887
   76MOL   H30425954   3.768   3.284   3.351 -0.8560 -0.1377 -0.0590
   76MOL   H30525955   3.559   3.353   3.273  0.2271 -1.4368 -0.8084
   76MOL   H30625956   3.530   3.627   3.237  0.6487  0.4068  0.2802
   76MOL   H30725957   3.371   3.622   3.165  0.1574 -1.3617 -0.6844
   76MOL   C30825958   3.504   3.769   3.066  0.1525 -0.2133  0.1721
   76MOL   C30925959   3.652   3.812   3.070  0.3040 -0.9375 -0.3655
   76MOL   C31025960   3.719   3.826   3.194 -0.4350  0.4042 -0.5106
   76MOL   C31125961   3.859   3.855   3.185  0.5259 -0.4218  0.1151
   76MOL   C31225962   3.928   3.882   3.059 -0.3367 -0.2143 -1.0539
   76MOL   O31325963   4.050   3.945   3.064  0.1984  0.3008 -0.0346
   76MOL   C31425964   3.860   3.866   2.938  0.4963 -0.5087  0.2540
   76MOL   C31525965   3.719   3.837   2.943 -0.1699  0.1001  0.7644
   76MOL   C31625966   3.403   3.882   3.115 -0.9481 -0.2776  0.5406
   76MOL   H31725967   3.471   3.755   2.963 -1.2019  1.9701  0.2918
   76MOL   H31825968   3.666   3.800   3.284  2.5573 -3.4503  0.2967
   76MOL   H31925969   3.925   3.870   3.269 -0.9841  0.0097  1.2383
   76MOL   H32025970   4.062   4.002   2.988  0.0902  2.2397  1.3574
   76MOL   H32125971   3.903   3.886   2.841 -1.2336  0.5298 -0.3323
   76MOL   H32225972   3.660   3.834   2.853 -2.2650 -0.1830  2.1008
   76MOL   H32325973   3.416   3.911   3.219 -0.4333 -2.3303  1.0724
   76MOL   H32425974   3.303   3.840   3.125 -0.8321 -0.1496  2.4018
   76MOL   C32525975   3.407   4.015   3.035  0.6831  0.4760 -0.1584
   76MOL   C32625976   3.324   4.124   3.114 -0.6258 -0.4384  0.9760
   76MOL   C32725977   3.194   4.101   3.161  0.5573  0.6001 -0.0929
   76MOL   C32825978   3.121   4.192   3.238  0.0499 -0.1340  0.0737
   76MOL   C32925979   3.185   4.319   3.259  0.4028  0.5255  0.2490
   76MOL   O33025980   3.123   4.420   3.323 -0.2183 -0.4664  0.5212
   76MOL   C33125981   3.316   4.343   3.221 -0.3874  0.0086  0.1943
   76MOL   C33225982   3.381   4.252   3.135 -0.5679  0.1128 -0.4088
   76MOL   C33325983   3.348   4.005   2.894 -0.0139 -0.2965 -0.1121
   76MOL   H33425984   3.510   4.052   3.034  0.0320  2.3783  1.0966
   76MOL   H33525985   3.147   4.008   3.132  0.8262  0.3683  0.2232
   76MOL   H33625986   3.018   4.171   3.260 -0.2199  2.3865  1.3261
   76MOL   H33725987   3.179   4.486   3.362 -1.6034  1.0881 -0.0748
   76MOL   H33825988   3.358   4.442   3.232 -0.3800  0.1823 -1.2855
   76MOL   H33925989   3.480   4.275   3.100  0.1307 -0.7002  1.0018
   76MOL   H34025990   3.335   4.108   2.859 -1.1374 -0.5173 -0.3593
   76MOL   H34125991   3.254   3.950   2.894 -0.9069  1.1612 -2.4140
   76MOL   H34225992   3.429   3.966   2.831  0.7484  0.7007  0.2296
   77MOL     C125993   5.983   3.679   3.327  0.2373  0.8416 -0.1785
   77MOL     C225994   5.916   3.806   3.318  0.1134  0.1514  0.4380
   77MOL     C325995   5.797   3.842   3.374  0.6744  0.1482  1.3820
   77MOL     C425996   5.743   3.974   3.375  0.1366 -0.2470  0.2653
   77MOL     C525997   5.825   4.076   3.327  0.1093  0.3757  0.4616
   77MOL     O625998   5.790   4.210   3.342  0.0795 -0.7772 -0.0594
   77MOL     C725999   5.947   4.045   3.261  0.4017 -0.8986  0.1345
   77MOL     C826000   5.989   3.911   3.255 -0.3757 -0.4919 -0.7628
   77MOL     C926001   5.911   3.568   3.237 -0.0752 -0.3793 -0.4196
   77MOL    H1026002   6.090   3.681   3.309  0.1423 -0.6736 -0.9648
   77MOL    H1126003   5.748   3.761   3.426 -1.3965 -0.0224 -0.7464
   77MOL    H1226004   5.651   4.002   3.424  0.4099  0.2501  0.5002
   77MOL    H1326005   5.852   4.271   3.305 -2.9488  2.4792 -0.0011
   77MOL    H1426006   6.012   4.123   3.224 -1.1305 -0.6400 -2.0985
   77MOL    H1526007   6.086   3.889   3.213  0.0505 -1.3108  0.6173
   77MOL    H1626008   5.810   3.556   3.276 -0.1929  0.7188 -0.3539
   77MOL    H1726009   5.958   3.478   3.276  0.3931 -0.8501 -2.0280
   77MOL    H1826010   5.974   3.645   3.430  1.9134  0.6128 -0.0935
   77MOL    C1926011   5.933   3.562   3.082 -0.1157  0.5789  0.6055
   77MOL    C2026012   6.050   3.474   3.040 -0.0093  0.0926 -0.3688
   77MOL    C2126013   6.038   3.378   2.944  0.2972 -0.8864  0.0028
   77MOL    C2226014   6.147   3.301   2.907 -0.2359  0.4919  0.1413
   77MOL    C2326015   6.273   3.319   2.966  0.6551 -0.4294  0.0298
   77MOL    O2426016   6.376   3.238   2.927 -0.0622  0.4260 -0.1882
   77MOL    C2526017   6.291   3.413   3.063 -0.5944  0.2951 -0.0702
   77MOL    C2626018   6.178   3.495   3.095 -0.0060  0.5728 -0.4837
   77MOL    C2726019   5.909   3.689   3.000  0.5771  0.4402  0.2921
   77MOL    H2826020   5.852   3.489   3.071 -0.8023  1.5698 -1.1234
   77MOL    H2926021   5.938   3.353   2.912 -0.6133 -0.8892  2.7300
   77MOL    H3026022   6.126   3.235   2.824  0.3454 -0.7105  0.9333
   77MOL    H3126023   6.459   3.279   2.947 -2.5030  4.0512  3.2782
   77MOL    H3226024   6.382   3.435   3.119 -1.7920  2.4754  1.0940
   77MOL    H3326025   6.193   3.570   3.171 -0.5591 -1.7578  1.9840
   77MOL    H3426026   5.982   3.768   3.018 -0.0581  1.1085 -0.0099
   77MOL    H3526027   5.816   3.741   3.025 -0.2327  1.0212 -3.5406
   77MOL    C3626028   5.909   3.672   2.846  0.5516 -0.8804 -0.4932
   77MOL    C3726029   5.923   3.811   2.774 -0.3265 -0.7997 -0.5377
   77MOL    C3826030   5.818   3.900   2.779  1.0315 -0.1234  0.0236
   77MOL    C3926031   5.826   4.019   2.704 -0.3077  0.4229 -0.4040
   77MOL    C4026032   5.934   4.046   2.621 -0.6946  0.3522  0.3598
   77MOL    O4126033   5.929   4.144   2.532  0.7299  0.3611  0.1942
   77MOL    C4226034   6.051   3.962   2.631 -0.4907 -0.3568  0.0352
   77MOL    C4326035   6.041   3.843   2.706  0.3385  0.7386  0.7828
   77MOL    C4426036   5.787   3.590   2.787  0.1514  0.4202  0.0912
   77MOL    H4526037   5.998   3.616   2.818  2.0087 -0.0436  2.3012
   77MOL    H4626038   5.729   3.890   2.839 -0.5503  3.4806 -1.5665
   77MOL    H4726039   5.741   4.086   2.706 -1.5794 -1.2054  1.8157
   77MOL    H4826040   5.847   4.187   2.514 -0.4511 -2.2085 -0.8729
   77MOL    H4926041   6.141   3.972   2.572 -0.1282  0.9459  0.7988
   77MOL    H5026042   6.118   3.768   2.696  1.0432  1.4085  1.0893
   77MOL    H5126043   5.785   3.485   2.817 -0.0182  0.2695 -0.4495
   77MOL    H5226044   5.690   3.635   2.807  0.5622  0.9438  0.9658
   77MOL    C5326045   5.782   3.580   2.631  0.0284 -1.2543  0.4299
   77MOL    C5426046   5.914   3.535   2.567  0.0761  0.1251  0.1073
   77MOL    C5526047   5.982   3.422   2.612 -0.3428 -0.7143  0.2190
   77MOL    C5626048   6.104   3.383   2.560  0.2705 -0.0369  0.7393
   77MOL    C5726049   6.158   3.452   2.450 -0.1463 -0.2946 -0.1092
   77MOL    O5826050   6.268   3.408   2.376  0.2402  0.5739  0.1523
   77MOL    C5926051   6.095   3.569   2.399  0.1407  0.2555 -0.2512
   77MOL    C6026052   5.975   3.613   2.462  0.1238 -0.4566  0.2927
   77MOL    C6126053   5.677   3.483   2.581  0.0392 -0.2026  0.1041
   77MOL    H6226054   5.759   3.683   2.604 -2.1624 -2.2252 -1.5636
   77MOL    H6326055   5.946   3.357   2.691  1.9178  0.9755  2.7361
   77MOL    H6426056   6.156   3.298   2.600 -0.2763 -0.0282  1.4609
   77MOL    H6526057   6.268   3.427   2.284 -1.2180 -2.5678 -0.5849
   77MOL    H6626058   6.136   3.634   2.324 -0.5952  1.8044  0.6617
   77MOL    H6726059   5.931   3.706   2.431 -1.3157 -0.9568  0.7710
   77MOL    H6826060   5.679   3.395   2.646 -0.8753  0.2864  0.8095
   77MOL    H6926061   5.705   3.437   2.485  1.1472  0.4446  0.1087
   77MOL    C7026062   5.539   3.536   2.564 -1.0601  0.5059  0.1447
   77MOL    C7126063   5.441   3.459   2.651 -0.8152 -0.1069  0.4867
   77MOL    C7226064   5.382   3.341   2.600 -0.4081  0.2531 -0.7441
   77MOL    C7326065   5.314   3.256   2.691  0.2144 -0.1638  0.1292
   77MOL    C7426066   5.267   3.305   2.815  0.6369  0.1904 -0.5210
   77MOL    O7526067   5.176   3.239   2.894 -0.2892 -0.1371 -0.3361
   77MOL    C7626068   5.314   3.431   2.852  0.0337 -1.4506 -0.7942
   77MOL    C7726069   5.405   3.506   2.775 -1.2992  0.3932 -0.8259
   77MOL    C7826070   5.501   3.554   2.412  0.0011  0.9039  0.0431
   77MOL    H7926071   5.531   3.639   2.600  0.1760  1.0025 -0.9641
   77MOL    H8026072   5.408   3.305   2.502  0.0906 -0.0966 -0.4884
   77MOL    H8126073   5.272   3.162   2.659  0.0445 -0.1608  0.3417
   77MOL    H8226074   5.150   3.305   2.956  0.7512  0.9301 -0.9935
   77MOL    H8326075   5.279   3.475   2.944  1.7786 -0.4647 -0.5613
   77MOL    H8426076   5.431   3.599   2.822 -0.1380 -0.2964 -0.0860
   77MOL    H8526077   5.393   3.552   2.399 -0.0207  0.8760  0.2241
   77MOL    H8626078   5.532   3.464   2.359 -2.0445 -0.7166  1.5251
   77MOL    C8726079   5.543   3.675   2.329 -0.2284 -1.3013  1.1069
   77MOL    C8826080   5.466   3.794   2.379  0.4423  0.3309 -0.4730
   77MOL    C8926081   5.332   3.800   2.359  0.3359 -0.1342  1.3985
   77MOL    C9026082   5.254   3.911   2.406 -0.1344 -0.4547  0.0884
   77MOL    C9126083   5.320   4.012   2.480  0.5746 -0.4597  0.3772
   77MOL    O9226084   5.249   4.118   2.531 -0.2545 -0.4500  0.4751
   77MOL    C9326085   5.458   3.999   2.509 -0.2709  0.1942  0.3859
   77MOL    C9426086   5.527   3.897   2.454  0.1638  0.6277 -0.9844
   77MOL    C9526087   5.532   3.656   2.174  0.1766 -0.0103 -0.2469
   77MOL    H9626088   5.648   3.686   2.356 -0.1634  1.0295  0.0452
   77MOL    H9726089   5.282   3.728   2.296  0.2479  1.8399 -0.9082
   77MOL    H9826090   5.150   3.924   2.381 -0.3122 -0.8288  0.6329
   77MOL    H9926091   5.155   4.114   2.518 -0.4093  0.3455  1.2353
   77MOL   H10026092   5.514   4.082   2.549  2.3136 -1.7006  0.7829
   77MOL   H10126093   5.633   3.893   2.476 -0.3952 -1.4876  1.4416
   77MOL   H10226094   5.566   3.555   2.155 -1.8248 -0.4887 -1.3737
   77MOL   H10326095   5.432   3.644   2.132  0.7559 -1.1164 -1.3249
   77MOL   C10426096   5.616   3.755   2.084  0.2564 -0.5938  0.1972
   77MOL   C10526097   5.562   3.746   1.937  0.1802  0.0844 -0.1939
   77MOL   C10626098   5.462   3.834   1.890 -0.2655  0.0226 -0.3576
   77MOL   C10726099   5.414   3.820   1.758  0.5634 -0.3573 -0.3658
   77MOL   C10826100   5.471   3.724   1.664 -0.1980  0.8742 -1.4073
   77MOL   O10926101   5.428   3.713   1.537  0.0968  0.4270 -0.3272
   77MOL   C11026102   5.571   3.635   1.717 -0.7412  0.8694  0.2836
   77MOL   C11126103   5.615   3.648   1.848 -0.3676  0.1071 -0.0820
   77MOL   C11226104   5.769   3.744   2.093  0.1413 -0.4560 -0.3062
   77MOL   H11326105   5.593   3.857   2.115  3.4229 -0.5612  2.6948
   77MOL   H11426106   5.429   3.915   1.953 -0.0391  0.1779 -0.4386
   77MOL   H11526107   5.344   3.893   1.719  2.0153  0.7141 -0.9937
   77MOL   H11626108   5.390   3.791   1.499 -0.7193  0.1149 -0.1633
   77MOL   H11726109   5.614   3.556   1.657  0.0767 -0.8551  3.0405
   77MOL   H11826110   5.697   3.592   1.888  0.0592  0.5410 -0.3480
   77MOL   H11926111   5.788   3.637   2.095  0.6902 -0.3879 -1.7001
   77MOL   H12026112   5.803   3.786   2.188  1.9688  0.7376 -1.4528
   77MOL   C12126113   5.861   3.809   1.992 -0.2118  0.3428 -0.3049
   77MOL   C12226114   5.842   3.958   1.963  0.3258  0.0350  0.2429
   77MOL   C12326115   5.908   4.058   2.035  1.0696  0.2621 -0.1462
   77MOL   C12426116   5.892   4.191   2.010  0.1049 -0.0277  0.7189
   77MOL   C12526117   5.816   4.234   1.902  0.1048 -0.2564 -0.5901
   77MOL   O12626118   5.797   4.358   1.866 -0.2344 -0.2653 -0.0038
   77MOL   C12726119   5.755   4.130   1.825 -0.4636 -0.2059  0.3382
   77MOL   C12826120   5.757   3.996   1.859  0.2299 -0.0293  0.0930
   77MOL   C12926121   6.007   3.765   2.026 -0.4010  0.7462 -0.2537
   77MOL   H13026122   5.834   3.755   1.901  0.5307  0.6387 -0.6981
   77MOL   H13126123   5.969   4.034   2.120  0.9746  1.0170  0.1452
   77MOL   H13226124   5.936   4.267   2.073  0.0364 -0.7701  1.6768
   77MOL   H13326125   5.817   4.435   1.917 -0.0424  1.1532 -2.1503
   77MOL   H13426126   5.693   4.169   1.746 -0.4477  1.1124  0.9693
   77MOL   H13526127   5.693   3.934   1.798  0.5511 -0.8871  0.6253
   77MOL   H13626128   6.000   3.660   2.052 -0.1085  1.0939  1.2254
   77MOL   H13726129   6.049   3.817   2.111 -0.9926  0.3949  0.2600
   77MOL   C13826130   6.108   3.815   1.919 -0.1136  0.2123  1.1160
   77MOL   C13926131   6.060   3.767   1.783  0.1856  0.4709  0.3100
   77MOL   C14026132   6.059   3.631   1.740  0.5139 -0.5019  0.3115
   77MOL   C14126133   5.997   3.593   1.622  1.1387 -0.8020 -0.2286
   77MOL   C14226134   5.929   3.691   1.543 -0.0805 -0.4493 -0.5409
   77MOL   O14326135   5.855   3.658   1.435 -0.3604  0.1651  0.3069
   77MOL   C14426136   5.946   3.827   1.578  0.3905  1.1369 -0.2629
   77MOL   C14526137   6.013   3.860   1.697  0.3261 -0.4169 -0.3289
   77MOL   C14626138   6.253   3.762   1.950  0.1294 -0.4867 -0.0145
   77MOL   H14726139   6.122   3.923   1.924  3.1277  0.0852 -2.3856
   77MOL   H14826140   6.097   3.553   1.804 -0.3525 -0.9857  0.2478
   77MOL   H14926141   5.990   3.488   1.597 -0.9207 -0.9823  0.9504
   77MOL   H15026142   5.764   3.683   1.422 -0.7013 -1.9376 -1.8321
   77MOL   H15126143   5.907   3.902   1.511  3.7662  1.6097 -1.8113
   77MOL   H15226144   6.019   3.967   1.710  1.8115 -0.5112 -0.0868
   77MOL   H15326145   6.319   3.820   1.885 -1.6063  1.9931  0.3715
   77MOL   H15426146   6.262   3.657   1.922  0.0470 -0.1359 -1.4198
   77MOL   C15526147   6.303   3.758   2.093 -1.1960 -0.2284 -0.5954
   77MOL   C15626148   6.306   3.903   2.159  0.0724 -1.0120  0.1832
   77MOL   C15726149   6.410   3.988   2.127  0.6469  0.1997 -0.8260
   77MOL   C15826150   6.433   4.113   2.187 -0.5349  0.4608  0.9713
   77MOL   C15926151   6.337   4.154   2.284 -0.7135 -0.0457  0.6705
   77MOL   O16026152   6.368   4.268   2.354  0.1922 -0.1604  0.6740
   77MOL   C16126153   6.225   4.077   2.315  0.3950  0.9165  0.0382
   77MOL   C16226154   6.214   3.950   2.256 -0.3919  0.2901  0.4473
   77MOL   C16326155   6.449   3.695   2.088  0.2574 -0.0457 -0.0822
   77MOL   H16426156   6.242   3.692   2.154  1.0213 -0.3590  1.5598
   77MOL   H16526157   6.481   3.963   2.050  0.7669  0.9897 -0.9800
   77MOL   H16626158   6.522   4.169   2.161  0.5406 -0.8852  1.6127
   77MOL   H16726159   6.324   4.275   2.437 -0.3731 -0.3601  0.3935
   77MOL   H16826160   6.147   4.102   2.385 -0.9105 -0.6869 -0.8212
   77MOL   H16926161   6.131   3.890   2.293  0.4498 -0.1041  1.7391
   77MOL   H17026162   6.501   3.738   2.004  0.2743  0.5493  0.2320
   77MOL   H17126163   6.426   3.591   2.065  0.3337  0.4563 -2.5722
   77MOL   C17226164   6.540   3.713   2.214  0.1780  0.0280  0.1127
   77MOL   C17326165   6.664   3.630   2.183 -0.1371  0.3871  0.2790
   77MOL   C17426166   6.784   3.697   2.151  0.7382  0.3305 -0.2619
   77MOL   C17526167   6.900   3.632   2.125 -0.0656 -0.6470  0.4299
   77MOL   C17626168   6.903   3.496   2.135 -0.1389  0.5342 -0.3546
   77MOL   O17726169   7.010   3.421   2.103 -0.2273 -0.0743  0.1854
   77MOL   C17826170   6.785   3.422   2.155 -0.0234  0.5162  0.7401
   77MOL   C17926171   6.663   3.489   2.186  0.3004 -0.1549  0.3275
   77MOL   C18026172   6.467   3.684   2.346 -0.1836  0.6111 -0.2845
   77MOL   H18126173   6.569   3.817   2.224  0.6501 -0.0937  0.0068
   77MOL   H18226174   6.771   3.804   2.145 -0.6213  0.1884 -0.0462
   77MOL   H18326175   6.986   3.689   2.091 -1.2775  0.5909 -0.6198
   77MOL   H18426176   7.096   3.460   2.098  0.8402 -2.3570 -0.0250
   77MOL   H18526177   6.783   3.315   2.169 -1.8127  0.2692 -1.1896
   77MOL   H18626178   6.574   3.437   2.216 -0.1616  0.7711  0.5901
   77MOL   H18726179   6.426   3.584   2.334 -2.6822  1.3156  1.9290
   77MOL   H18826180   6.374   3.737   2.362 -1.3680 -0.4932 -3.2176
   77MOL   C18926181   6.562   3.689   2.476 -0.5318 -0.0713 -0.3194
   77MOL   C19026182   6.647   3.817   2.485 -0.0704  0.1812  0.4849
   77MOL   C19126183   6.789   3.815   2.466 -0.8130 -0.7755  0.2958
   77MOL   C19226184   6.864   3.938   2.466 -0.6021  0.5193  0.1500
   77MOL   C19326185   6.798   4.068   2.475 -0.0894 -0.3986  0.7004
   77MOL   O19426186   6.866   4.181   2.443 -0.3374 -0.1634  1.4428
   77MOL   C19526187   6.658   4.073   2.498  0.0167  0.3447 -1.0367
   77MOL   C19626188   6.584   3.947   2.492 -0.3152 -0.1234 -0.8927
   77MOL   C19726189   6.483   3.674   2.602  0.3505  0.3404 -0.2432
   77MOL   H19826190   6.627   3.602   2.477  0.7770  0.8852 -1.1598
   77MOL   H19926191   6.840   3.721   2.451  2.1598  0.9522 -0.8664
   77MOL   H20026192   6.970   3.929   2.452 -0.9721 -1.3915 -1.5442
   77MOL   H20126193   6.942   4.157   2.393 -1.5562 -0.6266 -0.2224
   77MOL   H20226194   6.608   4.167   2.486 -2.1421 -0.8680 -1.7301
   77MOL   H20326195   6.478   3.960   2.512 -0.0872 -1.0939  1.1364
   77MOL   H20426196   6.400   3.606   2.583 -0.2681  0.8547  0.5779
   77MOL   H20526197   6.437   3.769   2.631  1.2496  0.4966  0.6853
   77MOL   C20626198   6.567   3.627   2.722 -0.3387 -0.5825 -0.3822
   77MOL   C20726199   6.604   3.481   2.720 -0.3288 -0.7425  0.3589
   77MOL   C20826200   6.724   3.449   2.792 -0.5346 -0.4782  0.0488
   77MOL   C20926201   6.765   3.310   2.795  0.9994 -0.0681 -0.1769
   77MOL   C21026202   6.695   3.211   2.724 -0.0720  0.4782 -0.0029
   77MOL   O21126203   6.724   3.079   2.734 -0.3279 -0.4703  0.0415
   77MOL   C21226204   6.583   3.248   2.653  0.2235 -0.2427  0.0134
   77MOL   C21326205   6.538   3.379   2.649  0.5012  0.4666 -0.9850
   77MOL   C21426206   6.502   3.667   2.852  0.0771  0.4102 -0.0071
   77MOL   H21526207   6.663   3.680   2.723 -1.4468  1.4930 -1.8723
   77MOL   H21626208   6.788   3.520   2.840  0.8541 -0.1494 -2.1981
   77MOL   H21726209   6.857   3.271   2.838  1.1066 -4.2900 -3.8558
   77MOL   H21826210   6.670   3.028   2.676  0.7982 -0.2405 -1.2491
   77MOL   H21926211   6.530   3.170   2.599  0.3438  0.6168 -1.3624
   77MOL   H22026212   6.443   3.402   2.602  0.7804 -0.0208 -1.7913
   77MOL   H22126213   6.548   3.602   2.926 -0.7716 -0.0035  0.1584
   77MOL   H22226214   6.394   3.654   2.853  0.1338 -0.0922 -0.1815
   77MOL   C22326215   6.529   3.820   2.884 -0.7341  0.6345 -0.2343
   77MOL   C22426216   6.681   3.846   2.897  0.1975 -0.0846 -1.1151
   77MOL   C22526217   6.742   3.942   2.815 -0.3383 -0.2476 -0.5804
   77MOL   C22626218   6.879   3.969   2.824 -0.8158 -0.0073 -0.6193
   77MOL   C22726219   6.961   3.895   2.916  0.8940  0.9815 -0.5705
   77MOL   O22826220   7.091   3.916   2.924 -0.2821 -0.5695 -0.0681
   77MOL   C22926221   6.904   3.799   3.000 -0.3497  0.6309  0.5937
   77MOL   C23026222   6.763   3.775   2.985  0.2871 -0.2607 -0.1879
   77MOL   C23126223   6.460   3.859   3.021  0.2854  0.1195 -0.3998
   77MOL   H23226224   6.477   3.882   2.811 -1.1641  1.1600  0.5059
   77MOL   H23326225   6.688   3.993   2.737  0.0398 -0.3423 -0.9054
   77MOL   H23426226   6.922   4.038   2.752  0.7771 -2.1251 -1.7484
   77MOL   H23526227   7.118   3.940   3.011 -1.5429 -2.8800  1.0240
   77MOL   H23626228   6.967   3.733   3.058  1.3353  0.3912 -1.4500
   77MOL   H23726229   6.719   3.690   3.036 -0.7950 -0.0197 -0.7121
   77MOL   H23826230   6.355   3.830   3.018  0.3657 -0.2317  0.0507
   77MOL   H23926231   6.499   3.792   3.098 -0.5774 -0.8170 -0.7519
   77MOL   C24026232   6.458   4.003   3.066 -0.4318  0.7710  0.3217
   77MOL   C24126233   6.407   4.086   2.955 -0.2095 -0.9156 -0.2268
   77MOL   C24226234   6.503   4.157   2.876  0.1251 -0.5796  0.4258
   77MOL   C24326235   6.458   4.214   2.752 -1.0581  1.0342 -0.0231
   77MOL   C24426236   6.319   4.226   2.727 -0.6579 -0.0514 -0.4378
   77MOL   O24526237   6.280   4.291   2.615 -0.8534  0.2266  0.5027
   77MOL   C24626238   6.228   4.170   2.817  0.7987 -0.0928  0.2982
   77MOL   C24726239   6.269   4.094   2.926  0.2982  0.1078 -1.1843
   77MOL   C24826240   6.377   4.018   3.198  0.1338 -0.0888 -0.1114
   77MOL   H24926241   6.562   4.027   3.090 -0.0459  0.1387 -0.6833
   77MOL   H25026242   6.606   4.146   2.904  0.3908  1.0969  0.1454
   77MOL   H25126243   6.538   4.242   2.685  0.3121 -2.1507  0.1931
   77MOL   H25226244   6.191   4.319   2.607 -0.4845  1.5795  0.9875
   77MOL   H25326245   6.122   4.181   2.801  0.6025 -1.4116  0.6413
   77MOL   H25426246   6.208   4.033   2.991 -1.3250  1.1663 -1.6562
   77MOL   H25526247   6.271   3.993   3.193  0.0461  0.1018  0.6550
   77MOL   H25626248   6.418   3.951   3.273 -2.4160 -0.9958  0.5333
   77MOL   C25726249   6.389   4.156   3.268  0.0431 -0.2750  0.3804
   77MOL   C25826250   6.297   4.175   3.386  0.3540  0.3154 -0.0580
   77MOL   C25926251   6.235   4.061   3.452  0.2952 -0.5037 -0.8130
   77MOL   C26026252   6.136   4.074   3.547  0.3705 -0.5349  0.0688
   77MOL   C26126253   6.100   4.207   3.589  0.1038  0.3480 -0.0794
   77MOL   O26226254   5.992   4.223   3.666 -0.3542  0.2497 -0.5066
   77MOL   C26326255   6.159   4.319   3.527  0.1952 -0.0841 -0.2376
   77MOL   C26426256   6.262   4.309   3.433  0.3423 -0.2730  0.9745
   77MOL   C26526257   6.537   4.192   3.308  0.3882  0.1161 -0.1123
   77MOL   H26626258   6.355   4.229   3.194  0.2958  0.1348  0.6672
   77MOL   H26726259   6.247   3.963   3.409  3.1839 -1.8261  2.7842
   77MOL   H26826260   6.087   3.989   3.591 -0.8553 -0.9779 -2.0734
   77MOL   H26926261   5.959   4.141   3.698  1.8317  0.1479  1.6756
   77MOL   H27026262   6.123   4.419   3.544 -0.6273 -0.6561  1.4832
   77MOL   H27126263   6.302   4.396   3.383 -0.9791 -0.4159 -0.3720
   77MOL   H27226264   6.592   4.098   3.321 -1.2460 -0.7949  0.4648
   77MOL   H27326265   6.542   4.223   3.413 -0.3629  0.8682 -0.2998
   77MOL   C27426266   6.608   4.301   3.229 -0.4322  0.1988  0.1314
   77MOL   C27526267   6.751   4.270   3.209 -0.4741  0.0131  0.1641
   77MOL   C27626268   6.846   4.258   3.311 -0.3039 -0.2862 -0.4325
   77MOL   C27726269   6.975   4.207   3.291 -0.4327  0.0374 -0.1410
   77MOL   C27826270   7.023   4.184   3.167 -0.2180 -0.0306  0.4761
   77MOL   O27926271   7.151   4.136   3.138  0.3822  0.0660  0.0054
   77MOL   C28026272   6.938   4.216   3.062  0.6884 -0.4739  0.2258
   77MOL   C28126273   6.802   4.251   3.082  0.3271  0.4432  0.3363
   77MOL   C28226274   6.582   4.444   3.278 -0.1336 -0.4528  0.2664
   77MOL   H28326275   6.568   4.290   3.128  0.6445 -2.4500 -0.0562
   77MOL   H28426276   6.812   4.272   3.413  1.0512 -0.0853 -0.0061
   77MOL   H28526277   7.037   4.183   3.377  1.1280 -1.0302 -1.5164
   77MOL   H28626278   7.193   4.204   3.087  1.1315  1.2767  2.1891
   77MOL   H28726279   6.980   4.231   2.964  0.2696 -0.9694 -0.0335
   77MOL   H28826280   6.740   4.267   2.995 -0.6098  0.3386  0.9806
   77MOL   H28926281   6.478   4.472   3.290  0.0407 -0.2321  1.2445
   77MOL   H29026282   6.619   4.458   3.379 -2.4505 -1.7053  1.3083
   77MOL   C29126283   6.656   4.556   3.199  0.1283 -0.1472  0.2847
   77MOL   C29226284   6.666   4.698   3.267  0.2677 -0.8295  1.0104
   77MOL   C29326285   6.603   4.735   3.384  0.7652  0.2480  0.6538
   77MOL   C29426286   6.621   4.862   3.437  0.9236  0.4311  0.0113
   77MOL   C29526287   6.725   4.944   3.389 -0.4947  0.8032  0.9653
   77MOL   O29626288   6.751   5.064   3.449  0.0226  0.2533  0.1879
   77MOL   C29726289   6.799   4.905   3.282  0.3341 -0.0258 -0.5419
   77MOL   C29826290   6.766   4.785   3.219  0.2026 -0.2165 -0.4279
   77MOL   C29926291   6.591   4.569   3.059 -0.0866  0.1683  0.0852
   77MOL   H30026292   6.759   4.528   3.177 -0.0664 -0.6225 -0.0464
   77MOL   H30126293   6.526   4.679   3.434  1.3534 -0.8794  0.3196
   77MOL   H30226294   6.573   4.894   3.528 -0.2748  1.8748 -1.0887
   77MOL   H30326295   6.748   5.052   3.543 -0.0084 -1.0874  0.0189
   77MOL   H30426296   6.882   4.972   3.261 -0.2513  0.2975 -1.8512
   77MOL   H30526297   6.821   4.764   3.128 -1.6441  0.5653 -1.7354
   77MOL   H30626298   6.566   4.469   3.024  2.3112 -0.5818  0.4077
   77MOL   H30726299   6.664   4.613   2.992  0.4062  0.8975  1.0834
   77MOL   C30826300   6.462   4.655   3.042  0.1714 -0.0420  0.7040
   77MOL   C30926301   6.335   4.588   3.091 -0.8985 -0.3521  0.4489
   77MOL   C31026302   6.251   4.668   3.174 -0.7236  0.7612 -0.3557
   77MOL   C31126303   6.129   4.617   3.212  0.2406  0.6517 -0.3570
   77MOL   C31226304   6.077   4.496   3.167  0.5458 -0.5754 -0.3421
   77MOL   O31326305   5.953   4.447   3.197 -0.7414 -0.1502  0.0199
   77MOL   C31426306   6.162   4.415   3.084  0.4833 -0.7810  0.6799
   77MOL   C31526307   6.294   4.460   3.055  0.5922 -0.4041 -0.5828
   77MOL   C31626308   6.433   4.696   2.899  0.3393 -0.0757  0.3416
   77MOL   H31726309   6.469   4.750   3.094  1.1216  1.2020 -1.6351
   77MOL   H31826310   6.282   4.767   3.206  3.7406  0.6311 -3.6777
   77MOL   H31926311   6.064   4.673   3.277  1.5076 -0.0044  1.5082
   77MOL   H32026312   5.890   4.502   3.242 -0.6057  0.3786 -0.4291
   77MOL   H32126313   6.128   4.316   3.060 -0.5133 -0.0343 -1.0160
   77MOL   H32226314   6.352   4.390   2.996  0.3232 -1.3369  0.2469
   77MOL   H32326315   6.341   4.753   2.899 -0.0876 -0.7670  0.3700
   77MOL   H32426316   6.407   4.609   2.839 -1.9860  1.1921 -0.5406
   77MOL   C32526317   6.541   4.770   2.814  0.1189  0.1228  0.1539
   77MOL   C32626318   6.647   4.674   2.745 -0.2359 -0.8482  0.7171
   77MOL   C32726319   6.786   4.699   2.761  0.8414 -0.0642  0.5545
   77MOL   C32826320   6.881   4.617   2.703 -0.2791  0.0534  0.1081
   77MOL   C32926321   6.846   4.508   2.627  0.1254  0.4356  0.7304
   77MOL   O33026322   6.947   4.420   2.583 -0.4601  0.1681 -0.1447
   77MOL   C33126323   6.709   4.481   2.593  0.4787 -0.2819  0.2577
   77MOL   C33226324   6.610   4.564   2.654  0.2473  0.3900 -0.0135
   77MOL   C33326325   6.591   4.904   2.882  0.1033  0.9106 -0.0417
   77MOL   H33426326   6.493   4.808   2.724  2.6150  1.5544 -0.6142
   77MOL   H33526327   6.814   4.786   2.818  0.3263  0.9147 -0.6553
   77MOL   H33626328   6.988   4.628   2.708 -0.0220 -2.5103  0.5850
   77MOL   H33726329   6.911   4.342   2.545  1.0498 -0.9995  0.7833
   77MOL   H33826330   6.687   4.391   2.536 -1.2006 -0.2149  0.7733
   77MOL   H33926331   6.504   4.549   2.635  0.3743 -0.4233 -0.0878
   77MOL   H34026332   6.506   4.966   2.912  0.7353  1.7328  0.0636
   77MOL   H34126333   6.644   4.963   2.808  1.0463 -0.1806 -0.2586
   77MOL   H34226334   6.645   4.878   2.974 -2.0404  0.6946  1.2032
   78MOL     C126335   1.033   2.334   6.129 -0.2242  0.5155  0.4871
   78MOL     C226336   1.121   2.430   6.055  0.3322 -0.5732 -0.1434
   78MOL     C326337   1.067   2.495   5.942 -0.1115  0.2008 -0.0880
   78MOL     C426338   1.136   2.589   5.867 -0.0936  0.6784 -0.0271
   78MOL     C526339   1.273   2.609   5.892  0.0530 -0.2413 -0.8487
   78MOL     O626340   1.345   2.705   5.830  0.2085 -0.0288 -0.9224
   78MOL     C726341   1.326   2.534   6.002 -0.0706  0.1944  0.0320
   78MOL     C826342   1.256   2.446   6.085 -0.2617 -0.1776 -0.2638
   78MOL     C926343   0.905   2.393   6.204  0.1932  0.3356  0.1301
   78MOL    H1026344   1.016   2.252   6.059 -0.1265 -0.9638  2.1592
   78MOL    H1126345   0.964   2.474   5.917 -0.2372 -0.5006  0.9737
   78MOL    H1226346   1.089   2.651   5.792 -0.0209  1.6219  0.6910
   78MOL    H1326347   1.282   2.749   5.775 -0.1802  0.0124 -0.4534
   78MOL    H1426348   1.433   2.545   6.014  0.0539  0.2343 -1.0269
   78MOL    H1526349   1.316   2.387   6.154  1.9926  1.8898 -0.3945
   78MOL    H1626350   0.836   2.449   6.141 -1.0049  0.4953  1.5610
   78MOL    H1726351   0.952   2.452   6.282  0.7879  0.2319 -0.1489
   78MOL    H1826352   1.096   2.294   6.208 -1.9178 -1.6752  0.7805
   78MOL    C1926353   0.825   2.282   6.281  0.4280 -0.6422 -0.1643
   78MOL    C2026354   0.789   2.170   6.186 -0.1977  0.7586  0.0743
   78MOL    C2126355   0.709   2.207   6.078 -0.4410 -0.0736 -1.1298
   78MOL    C2226356   0.678   2.116   5.976  0.4024 -0.4414 -0.2081
   78MOL    C2326357   0.744   1.990   5.976  0.0993  0.3309  0.0155
   78MOL    O2426358   0.713   1.912   5.869  0.3962 -0.0474  0.7397
   78MOL    C2526359   0.833   1.954   6.082  0.6478  1.0517  0.2922
   78MOL    C2626360   0.844   2.043   6.186  0.0215 -0.3233 -0.3362
   78MOL    C2726361   0.707   2.337   6.365 -0.5789 -0.4138 -0.3142
   78MOL    H2826362   0.895   2.236   6.352  1.4527  0.1863 -0.6148
   78MOL    H2926363   0.660   2.301   6.059  0.3696  0.2520 -1.6052
   78MOL    H3026364   0.623   2.144   5.888  2.1864  0.0010 -1.2155
   78MOL    H3126365   0.767   1.837   5.848  0.4745 -0.0936  1.1091
   78MOL    H3226366   0.878   1.856   6.084 -0.2663  0.6317  1.0651
   78MOL    H3326367   0.907   2.019   6.270 -1.7346 -0.6706  0.9215
   78MOL    H3426368   0.657   2.255   6.416  0.9967 -0.3867  1.3601
   78MOL    H3526369   0.653   2.383   6.283 -1.1283 -2.0609 -0.8785
   78MOL    C3626370   0.755   2.449   6.467  0.3643  0.3910 -0.4031
   78MOL    C3726371   0.870   2.405   6.543 -0.4022  0.0399  0.2890
   78MOL    C3826372   0.855   2.285   6.620 -0.1229  0.2341  0.5150
   78MOL    C3926373   0.949   2.248   6.720  0.2781  0.1898  0.1901
   78MOL    C4026374   1.059   2.330   6.743 -0.1762 -0.3239  0.3474
   78MOL    O4126375   1.167   2.282   6.814 -0.4168  0.3121 -0.1247
   78MOL    C4226376   1.072   2.454   6.674  1.0065 -0.2577 -0.3223
   78MOL    C4326377   0.985   2.486   6.570  0.3990  0.3180  0.6176
   78MOL    C4426378   0.635   2.490   6.556  0.0339  0.0857 -0.1926
   78MOL    H4526379   0.770   2.532   6.398 -1.1119 -1.1213 -2.6143
   78MOL    H4626380   0.772   2.217   6.611 -0.3243  0.7490 -2.0282
   78MOL    H4726381   0.944   2.146   6.755  3.7871 -0.0085  0.3121
   78MOL    H4826382   1.175   2.189   6.801  0.8298  0.5192 -0.9370
   78MOL    H4926383   1.158   2.518   6.689  0.5319 -0.2707  2.8462
   78MOL    H5026384   0.980   2.584   6.524 -1.6857 -0.2052 -0.3018
   78MOL    H5126385   0.564   2.520   6.479 -0.2140 -2.2480 -0.9334
   78MOL    H5226386   0.583   2.405   6.600  0.0120 -0.2953 -0.9380
   78MOL    C5326387   0.647   2.600   6.659 -0.6637  0.4877 -0.4618
   78MOL    C5426388   0.516   2.674   6.694  0.4278 -0.0850 -0.1886
   78MOL    C5526389   0.427   2.618   6.791  0.5359 -0.7831 -0.5108
   78MOL    C5626390   0.309   2.695   6.836 -0.1641 -0.2200 -0.4988
   78MOL    C5726391   0.277   2.814   6.769  0.4018 -0.8901 -0.3835
   78MOL    O5826392   0.156   2.877   6.807  0.0767  0.4029 -0.6354
   78MOL    C5926393   0.363   2.876   6.679 -0.5199  0.8899  0.2509
   78MOL    C6026394   0.482   2.805   6.643  0.0849  0.5925  0.6099
   78MOL    C6126395   0.727   2.551   6.793  0.1450 -0.0915 -0.5344
   78MOL    H6226396   0.708   2.676   6.610 -0.1036 -0.9221 -2.0060
   78MOL    H6326397   0.440   2.526   6.845  0.0964 -1.8483 -2.1623
   78MOL    H6426398   0.248   2.658   6.917 -1.4451  0.2624 -1.2319
   78MOL    H6526399   0.164   2.967   6.777  1.2404  0.6504  0.3744
   78MOL    H6626400   0.344   2.973   6.635 -1.0277  1.7096  2.2251
   78MOL    H6726401   0.552   2.857   6.580  0.3689  0.2777  0.6651
   78MOL    H6826402   0.832   2.535   6.768  0.5211 -0.4429  1.2610
   78MOL    H6926403   0.672   2.465   6.830  0.8927 -1.0112 -1.5138
   78MOL    C7026404   0.739   2.664   6.906 -0.0664  0.0707  0.4427
   78MOL    C7126405   0.787   2.803   6.868 -0.0242 -0.2783  0.5163
   78MOL    C7226406   0.708   2.921   6.901  0.1637  0.6304  0.1296
   78MOL    C7326407   0.749   3.049   6.869  0.1120  0.3500  0.6092
   78MOL    C7426408   0.872   3.063   6.799  0.3842 -0.2682 -0.1495
   78MOL    O7526409   0.923   3.184   6.781 -0.0976  0.1240 -0.6371
   78MOL    C7626410   0.942   2.949   6.757  0.4873 -0.1317 -0.2085
   78MOL    C7726411   0.900   2.820   6.793 -1.0030  0.4999  0.2370
   78MOL    C7826412   0.826   2.611   7.017 -0.3033 -0.7746 -0.4679
   78MOL    H7926413   0.640   2.673   6.949 -0.4227 -2.7012  0.3306
   78MOL    H8026414   0.623   2.903   6.965 -0.2869 -0.5197 -0.7755
   78MOL    H8126415   0.691   3.134   6.900  1.3541 -0.0420  4.3072
   78MOL    H8226416   0.887   3.254   6.833  1.7361 -0.2688  1.2367
   78MOL    H8326417   1.038   2.951   6.708  0.2501  1.5593 -0.6163
   78MOL    H8426418   0.956   2.733   6.763 -2.1804  0.3906 -1.7460
   78MOL    H8526419   0.924   2.605   6.970  1.1656  0.8601  2.2011
   78MOL    H8626420   0.799   2.508   7.040  0.5268 -0.8766  0.0792
   78MOL    C8726421   0.846   2.695   7.145  1.2210  0.0382 -0.1511
   78MOL    C8826422   0.991   2.690   7.198 -0.4537  0.1635 -0.0260
   78MOL    C8926423   1.041   2.808   7.250  0.1903 -0.2062 -0.0731
   78MOL    C9026424   1.170   2.810   7.300  0.5125 -0.0267 -0.1449
   78MOL    C9126425   1.249   2.691   7.290 -0.0838 -0.5796  0.2271
   78MOL    O9226426   1.368   2.686   7.358 -0.8606  0.1795 -0.2840
   78MOL    C9326427   1.206   2.578   7.227 -0.4579  0.1595  0.1800
   78MOL    C9426428   1.072   2.574   7.182  0.6576 -0.2581 -0.4176
   78MOL    C9526429   0.761   2.635   7.263  0.3918 -0.6076  0.3250
   78MOL    H9626430   0.811   2.796   7.126 -0.5306 -0.0091  2.5026
   78MOL    H9726431   0.976   2.893   7.256  1.9645  1.0986  0.9477
   78MOL    H9826432   1.208   2.904   7.338 -0.9707  1.2074 -1.6820
   78MOL    H9926433   1.437   2.623   7.349 -0.1540  0.0382  4.6246
   78MOL   H10026434   1.261   2.486   7.218 -2.3522 -0.8595 -1.3153
   78MOL   H10126435   1.033   2.477   7.153  1.5841  0.0490 -2.7974
   78MOL   H10226436   0.788   2.530   7.273 -0.5465 -0.9725 -0.8660
   78MOL   H10326437   0.796   2.679   7.357 -0.0290 -1.3947  0.8604
   78MOL   C10426438   0.607   2.639   7.253 -1.1940  0.3593  0.1709
   78MOL   C10526439   0.544   2.777   7.253  0.2413 -0.4079  0.1544
   78MOL   C10626440   0.580   2.874   7.354 -0.7522  0.1952 -0.2725
   78MOL   C10726441   0.538   3.010   7.347  0.3901 -0.8237 -0.1681
   78MOL   C10826442   0.450   3.052   7.243 -0.8563  0.8179  0.1762
   78MOL   O10926443   0.389   3.171   7.239 -0.8664 -0.2302 -0.0707
   78MOL   C11026444   0.410   2.951   7.151 -0.4419  0.3637 -0.3195
   78MOL   C11126445   0.460   2.817   7.154  0.6251 -0.2542 -0.9975
   78MOL   C11226446   0.544   2.552   7.359 -0.3280  0.5975 -0.0672
   78MOL   H11326447   0.573   2.595   7.160  0.3092  1.3670 -0.8713
   78MOL   H11426448   0.645   2.858   7.440 -1.4526  0.4808  0.3153
   78MOL   H11526449   0.567   3.079   7.425 -2.9861 -0.0527  0.5102
   78MOL   H11626450   0.388   3.210   7.325  0.2302 -0.5387  0.0862
   78MOL   H11726451   0.351   2.962   7.062 -0.2672  1.2276 -0.3311
   78MOL   H11826452   0.443   2.755   7.068  3.5570 -2.1259 -0.3058
   78MOL   H11926453   0.438   2.575   7.374 -0.3153  0.5722  0.0674
   78MOL   H12026454   0.598   2.596   7.443  2.3422  0.5071 -1.6737
   78MOL   C12126455   0.563   2.397   7.379 -0.6522 -0.6320 -0.5880
   78MOL   C12226456   0.503   2.350   7.517 -0.6009 -0.5004 -0.1691
   78MOL   C12326457   0.373   2.381   7.561 -0.4426 -0.6950 -0.6824
   78MOL   C12426458   0.320   2.322   7.682 -0.5938 -0.2106 -0.5602
   78MOL   C12526459   0.408   2.247   7.765  0.4744 -0.3393  0.4230
   78MOL   O12626460   0.375   2.201   7.891  0.6507 -0.6466  0.3869
   78MOL   C12726461   0.537   2.214   7.709  0.3518  0.3098 -0.2603
   78MOL   C12826462   0.586   2.269   7.597  0.2777  0.6182  0.5719
   78MOL   C12926463   0.505   2.313   7.256  0.1259 -0.1111  0.1114
   78MOL   H13026464   0.670   2.379   7.384 -0.3569  0.9243 -0.9035
   78MOL   H13126465   0.314   2.442   7.494 -0.6888 -1.0874 -0.8243
   78MOL   H13226466   0.221   2.359   7.705 -0.3672  0.7947 -1.1712
   78MOL   H13326467   0.448   2.151   7.924  0.4658  0.1393  2.0293
   78MOL   H13426468   0.605   2.148   7.761 -0.6684 -0.7946 -0.3145
   78MOL   H13526469   0.684   2.246   7.557 -0.5926 -1.2555 -0.5791
   78MOL   H13626470   0.524   2.366   7.163 -0.1048  1.8537  1.1615
   78MOL   H13726471   0.397   2.301   7.268  0.2090 -2.8073 -1.3860
   78MOL   C13826472   0.571   2.171   7.232  0.5592 -0.3210 -0.8371
   78MOL   C13926473   0.724   2.187   7.215  0.3618  0.2339 -0.3818
   78MOL   C14026474   0.770   2.242   7.093  0.5830 -0.2825  0.8025
   78MOL   C14126475   0.909   2.262   7.076  0.1651 -0.5396 -0.2449
   78MOL   C14226476   1.002   2.214   7.166  0.6905 -0.0616 -0.5968
   78MOL   O14326477   1.133   2.245   7.154 -0.4408 -0.5818 -0.3037
   78MOL   C14426478   0.955   2.153   7.288 -0.6263  0.8053  0.0719
   78MOL   C14526479   0.819   2.137   7.308 -0.8359  0.2477 -0.3640
   78MOL   C14626480   0.505   2.103   7.111  0.8054 -0.2924 -0.6208
   78MOL   H14726481   0.549   2.111   7.320 -1.0975 -0.4930 -1.3523
   78MOL   H14826482   0.696   2.274   7.020 -0.5387 -0.5023  1.8364
   78MOL   H14926483   0.946   2.302   6.983 -0.5683 -0.4920 -0.5179
   78MOL   H15026484   1.146   2.290   7.072 -2.4608  0.5565 -0.0585
   78MOL   H15126485   1.026   2.119   7.362  0.9198 -0.8623 -2.0908
   78MOL   H15226486   0.790   2.089   7.400 -1.3151 -0.3333 -0.8144
   78MOL   H15326487   0.513   2.174   7.028 -0.6998 -0.6092 -1.0491
   78MOL   H15426488   0.399   2.085   7.131  0.5799  0.9512 -0.6372
   78MOL   C15526489   0.564   1.969   7.067  0.3826 -0.3180 -0.5081
   78MOL   C15626490   0.596   1.976   6.924 -0.1725  0.2332 -0.3393
   78MOL   C15726491   0.726   1.945   6.877  0.1041  0.0306 -0.0115
   78MOL   C15826492   0.762   1.944   6.744  0.3701  0.1890 -0.3062
   78MOL   C15926493   0.665   1.983   6.649 -0.2257 -0.5112 -0.6929
   78MOL   O16026494   0.696   1.970   6.517  0.2846 -0.3768  0.2977
   78MOL   C16126495   0.534   2.015   6.692  0.1550 -0.3979  0.1931
   78MOL   C16226496   0.500   2.024   6.829  0.3918 -0.2504  0.4991
   78MOL   C16326497   0.473   1.842   7.083 -0.5531 -0.8494 -0.1129
   78MOL   H16426498   0.660   1.954   7.117 -0.7745 -0.1355  1.8837
   78MOL   H16526499   0.799   1.897   6.941  2.2188  1.4412 -1.2861
   78MOL   H16626500   0.862   1.915   6.715  0.9573  0.8220  1.0367
   78MOL   H16726501   0.787   1.992   6.504 -0.3910  1.0733 -2.2387
   78MOL   H16826502   0.459   2.031   6.615  2.2124 -1.6479 -2.1580
   78MOL   H16926503   0.402   2.065   6.847  0.4215 -0.3110  0.7971
   78MOL   H17026504   0.510   1.754   7.030  2.1795  0.9331 -1.2707
   78MOL   H17126505   0.379   1.864   7.033 -0.5952 -0.2390  0.2251
   78MOL   C17226506   0.419   1.798   7.221 -0.1455  0.3571  0.1732
   78MOL   C17326507   0.505   1.707   7.307 -0.2007  0.7112 -1.4379
   78MOL   C17426508   0.550   1.741   7.434  0.6253 -1.0001  0.6809
   78MOL   C17526509   0.623   1.648   7.513  1.0910  0.1788 -0.2511
   78MOL   C17626510   0.653   1.519   7.465 -0.6322  0.2666 -0.1119
   78MOL   O17726511   0.718   1.421   7.544  0.0911  0.3357  0.5063
   78MOL   C17826512   0.605   1.487   7.339 -0.3253 -0.0525  1.3484
   78MOL   C17926513   0.537   1.578   7.259  0.3262 -0.6774  0.2959
   78MOL   C18026514   0.278   1.737   7.205  0.3852  0.0396  0.0475
   78MOL   H18126515   0.414   1.887   7.283 -1.9167 -0.6446  1.5051
   78MOL   H18226516   0.528   1.839   7.475 -3.2897 -1.3349 -0.5004
   78MOL   H18326517   0.636   1.673   7.617 -1.4386  1.6941 -0.2607
   78MOL   H18426518   0.738   1.461   7.628  1.3732  1.6550 -0.4008
   78MOL   H18526519   0.618   1.385   7.308  1.0927 -0.2049  2.3988
   78MOL   H18626520   0.500   1.536   7.166  1.5017 -0.8101 -0.1223
   78MOL   H18726521   0.298   1.659   7.132  1.3420  0.2764  0.0588
   78MOL   H18826522   0.206   1.815   7.178  0.3302 -0.3829 -1.0746
   78MOL   C18926523   0.216   1.669   7.322  0.1229 -0.0885 -0.3054
   78MOL   C19026524   0.233   1.736   7.455 -0.3211  0.2926 -0.1066
   78MOL   C19126525   0.239   1.662   7.579 -0.0945  0.5015 -1.0384
   78MOL   C19226526   0.261   1.725   7.702 -0.1153  0.4121 -0.3292
   78MOL   C19326527   0.273   1.864   7.709  0.6090  0.3193 -0.0597
   78MOL   O19426528   0.285   1.926   7.828 -0.5099 -0.0530  0.4611
   78MOL   C19526529   0.251   1.946   7.599 -0.2626  0.1755 -0.4203
   78MOL   C19626530   0.230   1.880   7.475  0.2955 -0.1261 -0.2929
   78MOL   C19726531   0.060   1.661   7.300 -0.1484  0.0568 -0.1333
   78MOL   H19826532   0.257   1.568   7.320 -0.6333 -0.4031  0.0943
   78MOL   H19926533   0.240   1.554   7.579  4.0871  0.4263 -0.7849
   78MOL   H20026534   0.281   1.665   7.790 -0.6185  0.8984  0.1197
   78MOL   H20126535   0.294   2.018   7.811 -0.1023 -0.3084 -0.7479
   78MOL   H20226536   0.253   2.053   7.614 -1.7612  0.0062  0.9728
   78MOL   H20326537   0.212   1.954   7.398  1.9240 -0.6992 -1.2712
   78MOL   H20426538   0.023   1.763   7.312 -0.2054  0.1424 -0.9470
   78MOL   H20526539   0.016   1.609   7.385 -0.3090  0.4310  0.0138
   78MOL   C20626540   8.034   1.612   7.163  0.0304  0.0357 -0.3133
   78MOL   C20726541   7.881   1.650   7.160  0.3568  0.5246 -1.2563
   78MOL   C20826542   7.788   1.570   7.230  0.2135 -0.4639 -0.2660
   78MOL   C20926543   7.650   1.584   7.199 -0.1354  0.2664  0.4256
   78MOL   C21026544   7.609   1.687   7.117 -0.7976  0.7024  0.3555
   78MOL   O21126545   7.477   1.702   7.088 -0.4896  0.0957 -0.0838
   78MOL   C21226546   7.700   1.774   7.056 -0.2677 -0.5210  0.2695
   78MOL   C21326547   7.839   1.755   7.079 -0.3162 -0.0730  0.6410
   78MOL   C21426548   0.038   1.464   7.144 -0.3255 -0.4251  0.6220
   78MOL   H21526549   0.037   1.672   7.082  0.1822  1.1000  0.5328
   78MOL   H21626550   7.823   1.491   7.294  1.9597 -1.8212 -2.8310
   78MOL   H21726551   7.589   1.504   7.238 -0.1763  0.1581  0.1403
   78MOL   H21826552   7.413   1.636   7.112 -1.8028  0.8890 -1.3551
   78MOL   H21926553   7.665   1.848   6.985 -1.3368 -0.1458  1.1693
   78MOL   H22026554   7.904   1.829   7.035  0.1014  1.2615  3.4120
   78MOL   H22126555   0.007   1.416   7.237  2.2735  0.4564  1.9733
   78MOL   H22226556   0.146   1.466   7.136 -0.4014  1.2806 -0.3630
   78MOL   C22326557   8.014   1.395   7.019  0.5165  0.4887 -0.2883
   78MOL   C22426558   7.956   1.260   7.070 -0.1570 -0.1154 -0.5853
   78MOL   C22526559   7.816   1.247   7.090 -0.5560 -1.0962  0.5180
   78MOL   C22626560   7.766   1.128   7.147  0.3535  0.6120  0.0232
   78MOL   C22726561   7.853   1.021   7.176  0.1697 -0.3925 -0.4608
   78MOL   O22826562   7.798   0.902   7.218  0.6481 -0.2744  0.1024
   78MOL   C22926563   7.996   1.041   7.166  0.3442  0.7697  0.5990
   78MOL   C23026564   0.005   1.158   7.106  0.0789  0.5332 -0.4056
   78MOL   C23126565   0.083   1.381   6.906 -0.3248 -0.5373 -0.1998
   78MOL   H23226566   7.927   1.447   6.978 -1.7587 -1.6701  1.5972
   78MOL   H23326567   7.741   1.321   7.064 -1.5530 -1.5474  2.0319
   78MOL   H23426568   7.661   1.120   7.167  0.4625  0.0539  0.3948
   78MOL   H23526569   7.784   0.854   7.137 -0.6883 -0.0932  0.2128
   78MOL   H23626570   0.022   0.958   7.194 -0.2562 -0.8363 -2.4801
   78MOL   H23726571   0.113   1.169   7.110  0.0290  1.0016 -0.3281
   78MOL   H23826572   0.159   1.327   6.961  2.0734  1.2668 -1.6451
   78MOL   H23926573   0.048   1.310   6.831  2.1694 -0.8082 -1.1478
   78MOL   C24026574   0.149   1.510   6.852  0.3050  0.8796 -0.0858
   78MOL   C24126575   0.270   1.482   6.758 -0.0427  0.0204  0.3853
   78MOL   C24226576   0.272   1.379   6.660  0.2761  0.4875 -0.0695
   78MOL   C24326577   0.378   1.361   6.570  0.1581 -0.0868  0.3589
   78MOL   C24426578   0.487   1.447   6.579 -0.2337 -0.5088 -0.2148
   78MOL   O24526579   0.602   1.422   6.507 -0.3296 -0.4175 -0.1847
   78MOL   C24626580   0.494   1.548   6.675 -0.7373  0.4259  0.2986
   78MOL   C24726581   0.388   1.563   6.762  0.5227 -0.4798 -0.0683
   78MOL   C24826582   0.050   1.607   6.787  0.9838 -0.6139 -0.5613
   78MOL   H24926583   0.196   1.565   6.934  2.4061  0.6450 -1.0817
   78MOL   H25026584   0.182   1.322   6.650  0.0032  1.2249 -2.0329
   78MOL   H25126585   0.385   1.281   6.498 -0.0192  0.0949  0.1383
   78MOL   H25226586   0.641   1.503   6.476  1.3520 -0.4007  1.8233
   78MOL   H25326587   0.580   1.614   6.678 -1.2314  1.2158 -1.7552
   78MOL   H25426588   0.388   1.654   6.820  0.1353 -0.9629  0.6883
   78MOL   H25526589   8.015   1.650   6.856  0.9343  0.5683 -1.3387
   78MOL   H25626590   0.097   1.702   6.765 -1.8445  0.6858 -1.1775
   78MOL   C25726591   8.017   1.560   6.658  0.3898  0.3349  0.0558
   78MOL   C25826592   7.865   1.554   6.682 -0.6275  0.4540 -0.2562
   78MOL   C25926593   7.792   1.674   6.696 -0.6265  0.0797  0.0184
   78MOL   C26026594   7.651   1.662   6.710  0.0136 -0.1240 -0.4987
   78MOL   C26126595   7.584   1.538   6.725  0.7849  0.3420 -0.3543
   78MOL   O26226596   7.453   1.532   6.754 -0.4543  0.3840  0.1940
   78MOL   C26326597   7.663   1.423   6.711  0.0223 -0.0022  0.8819
   78MOL   C26426598   7.801   1.430   6.686  0.4776 -0.7149 -0.1944
   78MOL   C26526599   0.029   1.635   6.532 -0.4791 -0.3773 -0.6008
   78MOL   H26626600   0.009   1.456   6.644  0.6666  0.5422 -0.9566
   78MOL   H26726601   7.834   1.772   6.714  3.1428 -1.0170 -2.3201
   78MOL   H26826602   7.602   1.758   6.719  2.1252  0.9572 -0.3587
   78MOL   H26926603   7.424   1.620   6.734 -1.4779  0.1639  0.6992
   78MOL   H27026604   7.628   1.321   6.715  0.0554 -0.0242  0.6103
   78MOL   H27126605   7.855   1.337   6.677  1.7360  0.0766 -1.0441
   78MOL   H27226606   0.137   1.625   6.516  0.0555  2.0572  1.1810
   78MOL   H27326607   0.022   1.743   6.547  0.2386 -0.4917  0.6893
   78MOL   C27426608   7.983   1.601   6.403 -0.2538 -0.1473  0.0224
   78MOL   C27526609   7.984   1.450   6.370 -0.3378 -0.4335 -0.2987
   78MOL   C27626610   7.867   1.379   6.337 -0.1165 -0.4055 -0.2472
   78MOL   C27726611   7.875   1.240   6.320  0.2375 -0.1700  0.1842
   78MOL   C27826612   7.993   1.167   6.326  0.2737 -0.1805 -0.2272
   78MOL   O27926613   7.992   1.027   6.314  0.2948 -0.5697  0.5420
   78MOL   C28026614   0.074   1.238   6.361 -0.3315 -0.0983  0.4790
   78MOL   C28126615   0.069   1.378   6.379 -0.1724 -0.5333  0.0532
   78MOL   C28226616   8.014   1.693   6.289  0.8347  0.3310 -0.2515
   78MOL   H28326617   7.881   1.617   6.438 -0.8859 -0.2576 -1.7246
   78MOL   H28426618   7.771   1.427   6.329  0.2097  0.1002 -1.1624
   78MOL   H28526619   7.783   1.190   6.294 -1.4958  2.7265  0.5156
   78MOL   H28626620   7.932   0.985   6.374  1.2559 -1.6172  0.7874
   78MOL   H28726621   0.171   1.191   6.362 -1.3618 -2.4367 -1.5367
   78MOL   H28826622   0.162   1.433   6.387 -0.9888  1.2913 -2.3756
   78MOL   H28926623   7.929   1.693   6.221  0.4339  2.0712  0.2493
   78MOL   H29026624   8.017   1.793   6.332 -0.9203 -0.3476  1.4894
   78MOL   C29126625   0.090   1.651   6.184  0.3692  0.4144 -0.3775
   78MOL   C29226626   0.235   1.667   6.244  1.0342 -0.5933 -0.3074
   78MOL   C29326627   0.332   1.573   6.222 -0.1727 -0.1247  0.0114
   78MOL   C29426628   0.463   1.589   6.268 -0.2989  0.0031 -0.0449
   78MOL   C29526629   0.500   1.703   6.339 -0.2517  0.2500 -0.3532
   78MOL   O29626630   0.625   1.719   6.392  0.1792 -0.5338 -0.2817
   78MOL   C29726631   0.412   1.802   6.360  0.8213 -0.1347 -0.0544
   78MOL   C29826632   0.280   1.782   6.310  0.3556  0.6034 -0.1040
   78MOL   C29926633   0.078   1.736   6.049  0.6870  0.8660 -0.1814
   78MOL   H30026634   0.074   1.545   6.162 -1.6996  1.1970 -2.7918
   78MOL   H30126635   0.301   1.493   6.157 -0.2910 -0.7514  0.8389
   78MOL   H30226636   0.539   1.513   6.254  0.4747  0.8410 -0.3806
   78MOL   H30326637   0.640   1.809   6.415 -2.1184 -0.4431  1.0724
   78MOL   H30426638   0.435   1.886   6.424  1.6123  0.5270 -1.1939
   78MOL   H30526639   0.207   1.859   6.333 -2.6845 -2.2310  0.2210
   78MOL   H30626640   0.166   1.799   6.037 -0.2617  2.5789  1.4202
   78MOL   H30726641   8.035   1.810   6.055 -0.9032 -0.6413 -2.3008
   78MOL   C30826642   0.075   1.659   5.919  0.0808 -0.2896  0.7402
   78MOL   C30926643   0.205   1.589   5.889  0.0050  0.2756 -0.6113
   78MOL   C31026644   0.197   1.450   5.888 -0.3687  0.5145  0.4935
   78MOL   C31126645   0.316   1.376   5.894  0.2532  0.2656  0.3230
   78MOL   C31226646   0.437   1.440   5.883 -0.2446  0.2763 -0.1395
   78MOL   O31326647   0.546   1.368   5.866  0.5036 -0.0780 -0.9069
   78MOL   C31426648   0.447   1.579   5.863  0.0868  0.5890 -0.3213
   78MOL   C31526649   0.328   1.657   5.862  0.1635 -0.3330  0.3997
   78MOL   C31626650   0.023   1.751   5.803 -0.3279 -0.3158 -0.7626
   78MOL   H31726651   0.003   1.580   5.942 -0.7160  0.1137 -0.2781
   78MOL   H31826652   0.106   1.391   5.890  1.2720 -2.1087  1.0038
   78MOL   H31926653   0.308   1.270   5.876  0.0461  0.5300 -1.1708
   78MOL   H32026654   0.622   1.415   5.837  0.6305  0.0578 -0.3501
   78MOL   H32126655   0.537   1.634   5.839 -0.2954  1.7900  0.9511
   78MOL   H32226656   0.326   1.765   5.867 -0.4512 -0.3444  0.4261
   78MOL   H32326657   0.066   1.850   5.817 -0.0287 -0.3804 -1.2411
   78MOL   H32426658   7.953   1.764   5.817  0.0167  2.0907 -0.0715
   78MOL   C32526659   0.051   1.699   5.659 -0.3199  0.1066  0.3593
   78MOL   C32626660   0.032   1.814   5.564  0.6338 -0.6165 -0.1617
   78MOL   C32726661   7.943   1.867   5.537  0.7573 -0.1473  0.5695
   78MOL   C32826662   7.931   1.981   5.450  0.1900 -0.1552  0.1468
   78MOL   C32926663   0.009   2.038   5.397  0.3934 -0.3036 -0.0105
   78MOL   O33026664   8.035   2.147   5.309 -0.1249 -0.6992 -0.7769
   78MOL   C33126665   0.134   1.993   5.435  0.1349 -0.1772 -0.4231
   78MOL   C33226666   0.144   1.877   5.511  0.5728  0.2900  0.3170
   78MOL   C33326667   8.003   1.573   5.616  0.0213 -0.1012  0.0613
   78MOL   H33426668   0.154   1.664   5.646  0.0030  1.3092 -0.4751
   78MOL   H33526669   7.852   1.818   5.570  0.4674  0.9888  1.5020
   78MOL   H33626670   7.830   2.012   5.425 -0.1865 -0.2290  1.5398
   78MOL   H33726671   7.941   2.147   5.298 -0.2943 -0.3507  0.5922
   78MOL   H33826672   0.224   2.046   5.408  0.9541  0.0842  2.6436
   78MOL   H33926673   0.242   1.837   5.535 -0.5602 -3.8247 -1.5999
   78MOL   H34026674   7.998   1.568   5.508  0.0360 -0.9874  0.0970
   78MOL   H34126675   7.896   1.575   5.639 -0.0573  0.6968 -0.3684
   78MOL   H34226676   0.000   1.477   5.655 -1.4203 -1.3560 -1.6573
   79MOL     C126677   3.775   6.654   1.863 -0.9125  0.0067  0.0108
   79MOL     C226678   3.922   6.685   1.842  0.2088 -0.3438 -0.3015
   79MOL     C326679   4.017   6.611   1.915 -0.3037 -0.1013  0.2885
   79MOL     C426680   4.153   6.638   1.897 -0.4625  0.2444  0.5466
   79MOL     C526681   4.197   6.738   1.808  1.0470 -0.8798  0.7844
   79MOL     O626682   4.328   6.753   1.787  0.0709  0.2317  0.3852
   79MOL     C726683   4.100   6.818   1.744  0.3212  0.3958 -0.0936
   79MOL     C826684   3.966   6.794   1.760  0.3379  0.2248  0.0873
   79MOL     C926685   3.706   6.759   1.960  0.2252  0.2735  0.2387
   79MOL    H1026686   3.730   6.664   1.765 -1.7286 -0.9288  0.2785
   79MOL    H1126687   3.990   6.526   1.976  1.6018 -1.2010 -0.3547
   79MOL    H1226688   4.220   6.574   1.952 -1.7485  0.5344  2.4982
   79MOL    H1326689   4.357   6.837   1.755  1.2845 -0.3439 -0.0735
   79MOL    H1426690   4.132   6.892   1.672  0.6310  0.7137  0.3705
   79MOL    H1526691   3.884   6.841   1.708 -0.0791 -2.0623 -1.3783
   79MOL    H1626692   3.702   6.860   1.919 -1.2249  1.1787  2.5660
   79MOL    H1726693   3.768   6.763   2.050  2.4500  1.8383 -1.3023
   79MOL    H1826694   3.767   6.550   1.897 -4.0565 -0.0672 -0.8062
   79MOL    C1926695   3.565   6.712   1.998 -0.1079 -0.4291  0.0599
   79MOL    C2026696   3.470   6.685   1.885  0.4587 -0.1366  0.5626
   79MOL    C2126697   3.417   6.556   1.865 -0.8675 -0.8609  0.2454
   79MOL    C2226698   3.324   6.532   1.760 -0.4836  0.0370 -0.1852
   79MOL    C2326699   3.278   6.641   1.679 -0.1345 -1.2121  0.2967
   79MOL    O2426700   3.180   6.616   1.586  0.1257  0.2041 -0.1601
   79MOL    C2526701   3.328   6.768   1.706 -0.4622 -0.4185 -0.0344
   79MOL    C2626702   3.419   6.792   1.805 -0.4987  0.1639  0.1594
   79MOL    C2726703   3.496   6.818   2.090  0.5548 -0.8198 -0.2059
   79MOL    H2826704   3.574   6.616   2.048 -1.2928 -2.2140 -3.0343
   79MOL    H2926705   3.446   6.478   1.933  1.1372 -1.5372 -1.3276
   79MOL    H3026706   3.277   6.436   1.747 -2.0924  0.5815  1.3554
   79MOL    H3126707   3.144   6.698   1.556 -1.4903 -0.7210 -0.8569
   79MOL    H3226708   3.303   6.859   1.652  0.8805  0.1250  0.2240
   79MOL    H3326709   3.451   6.891   1.834 -1.7598  0.4165  0.7276
   79MOL    H3426710   3.530   6.913   2.050  1.5564 -1.3604 -0.6697
   79MOL    H3526711   3.550   6.808   2.184  0.0611  0.5335  0.2383
   79MOL    C3626712   3.345   6.823   2.113  0.3583 -0.5524 -0.2913
   79MOL    C3726713   3.288   6.954   2.041 -0.4206  0.0322 -0.0687
   79MOL    C3826714   3.180   6.936   1.950  0.5112 -0.4877  0.8235
   79MOL    C3926715   3.131   7.048   1.873 -0.3160 -0.1918 -0.0575
   79MOL    C4026716   3.181   7.177   1.892 -0.3501 -0.1367 -0.5845
   79MOL    O4126717   3.131   7.281   1.816  0.2553 -0.6157  0.1091
   79MOL    C4226718   3.286   7.193   1.984 -0.0318 -0.3503 -0.3648
   79MOL    C4326719   3.338   7.085   2.063  0.2969 -0.6094 -0.6636
   79MOL    C4426720   3.293   6.824   2.256 -0.0664  0.3074  0.3205
   79MOL    H4526721   3.299   6.735   2.066 -0.4396 -0.9199  1.1531
   79MOL    H4626722   3.141   6.840   1.920  0.4382 -0.4737  0.8742
   79MOL    H4726723   3.057   7.024   1.798 -0.0669 -1.0894 -0.0273
   79MOL    H4826724   3.107   7.242   1.733 -0.8857 -1.4638  0.8142
   79MOL    H4926725   3.340   7.286   1.998 -0.6878  0.4246 -2.7913
   79MOL    H5026726   3.416   7.109   2.133  0.1070  0.2553 -0.7417
   79MOL    H5126727   3.337   6.903   2.316 -0.3688  0.8084 -0.1113
   79MOL    H5226728   3.191   6.859   2.240 -0.0651  0.2636  0.2104
   79MOL    C5326729   3.295   6.677   2.320 -0.0553 -0.2098 -0.1898
   79MOL    C5426730   3.434   6.645   2.367  0.2215  0.3003 -0.0331
   79MOL    C5526731   3.481   6.716   2.479 -0.2534 -0.3611  0.4485
   79MOL    C5626732   3.612   6.689   2.542  0.8390 -0.6223 -0.1091
   79MOL    C5726733   3.677   6.572   2.495  0.1404  0.1694  0.2127
   79MOL    O5826734   3.801   6.534   2.544  0.3342 -0.3863  0.1510
   79MOL    C5926735   3.631   6.503   2.381 -0.0293  0.3015 -0.3567
   79MOL    C6026736   3.509   6.535   2.313 -0.6528 -0.1491 -0.1231
   79MOL    C6126737   3.189   6.659   2.427  0.3353  0.2665 -0.1154
   79MOL    H6226738   3.273   6.600   2.246  1.0486 -0.3521 -0.3770
   79MOL    H6326739   3.429   6.805   2.513 -1.9391 -1.0850 -0.1417
   79MOL    H6426740   3.649   6.743   2.629  0.0399 -0.5587  0.1962
   79MOL    H6526741   3.861   6.538   2.471 -0.9812  1.0777 -0.8729
   79MOL    H6626742   3.678   6.413   2.343 -1.9993 -1.3758  1.0724
   79MOL    H6726743   3.473   6.473   2.232 -0.9957  0.8796 -0.7712
   79MOL    H6826744   3.202   6.749   2.487  1.1377 -0.4051  0.7238
   79MOL    H6926745   3.215   6.572   2.487 -0.1421 -0.8281 -1.4621
   79MOL    C7026746   3.039   6.658   2.379  0.1044  0.4846 -0.6147
   79MOL    C7126747   2.971   6.783   2.419 -0.0678 -0.2017 -0.6932
   79MOL    C7226748   2.903   6.863   2.332 -0.0182 -0.3916  0.2105
   79MOL    C7326749   2.860   6.992   2.372  0.0209  0.3497  0.5439
   79MOL    C7426750   2.868   7.036   2.504 -0.0528 -0.0615  0.9186
   79MOL    O7526751   2.794   7.149   2.535  0.4985 -0.5850  0.8149
   79MOL    C7626752   2.915   6.944   2.597  0.7118 -0.0505 -0.6839
   79MOL    C7726753   2.971   6.827   2.556  0.5507 -0.1485 -0.5948
   79MOL    C7826754   2.954   6.544   2.438 -0.4041 -0.1474 -0.7416
   79MOL    H7926755   3.043   6.649   2.271  0.0601 -0.7017 -0.5256
   79MOL    H8026756   2.915   6.843   2.226 -0.3257 -0.0047  0.0990
   79MOL    H8126757   2.823   7.061   2.298  2.8575  1.2163 -0.1465
   79MOL    H8226758   2.827   7.213   2.597  0.5036 -0.4653  0.6873
   79MOL    H8326759   2.927   6.972   2.701 -1.1904  0.5134 -0.5955
   79MOL    H8426760   3.007   6.763   2.636 -0.3007  0.6133  0.4076
   79MOL    H8526761   2.859   6.566   2.388 -0.3751 -1.2360 -1.3118
   79MOL    H8626762   2.943   6.557   2.545 -1.1576 -0.2008 -0.8104
   79MOL    C8726763   3.006   6.401   2.418  0.0601 -0.4395 -0.3495
   79MOL    C8826764   3.078   6.381   2.287 -0.4475  0.3870 -0.4600
   79MOL    C8926765   3.208   6.321   2.290 -0.7168 -0.3810 -0.4076
   79MOL    C9026766   3.276   6.283   2.170 -0.0138 -0.6354  0.3040
   79MOL    C9126767   3.211   6.305   2.046  0.4301  0.1156  0.3325
   79MOL    O9226768   3.271   6.264   1.935  0.4143  1.0950  0.3757
   79MOL    C9326769   3.087   6.371   2.043  0.9075 -0.6535  0.1894
   79MOL    C9426770   3.018   6.409   2.163 -0.1054 -0.2281 -0.0838
   79MOL    C9526771   2.896   6.302   2.438 -0.1161  0.8471  0.3319
   79MOL    H9626772   3.079   6.380   2.496 -0.8158 -2.2785  0.0021
   79MOL    H9726773   3.239   6.291   2.389  1.9467 -0.0940 -1.1300
   79MOL    H9826774   3.370   6.232   2.183 -0.7258 -1.8674  0.6511
   79MOL    H9926775   3.335   6.199   1.959 -0.7307  0.8867  3.0616
   79MOL   H10026776   3.039   6.391   1.949 -0.3631  0.1099  0.9689
   79MOL   H10126777   2.917   6.446   2.169  0.0332  0.1280  0.1089
   79MOL   H10226778   2.847   6.336   2.529  1.1108 -1.3006  1.8123
   79MOL   H10326779   2.820   6.323   2.362 -2.2442 -2.5004  1.4208
   79MOL   C10426780   2.932   6.154   2.465 -0.1141 -0.1301 -0.0205
   79MOL   C10526781   2.818   6.060   2.425 -1.1246  0.1503 -0.8522
   79MOL   C10626782   2.682   6.097   2.455 -0.0278  0.6895  0.0124
   79MOL   C10726783   2.578   6.012   2.432  0.1151  0.3766 -0.3636
   79MOL   C10826784   2.601   5.877   2.399  0.3623 -0.3930 -1.0069
   79MOL   O10926785   2.501   5.788   2.381 -0.2414  0.4364 -0.4330
   79MOL   C11026786   2.738   5.834   2.381 -0.1773  0.2302  0.5776
   79MOL   C11126787   2.843   5.927   2.386 -0.8247 -0.2665  0.3976
   79MOL   C11226788   2.960   6.142   2.620  0.2047 -0.1978 -0.7347
   79MOL   H11326789   3.014   6.131   2.397 -1.0985  0.6795 -1.5005
   79MOL   H11426790   2.658   6.199   2.483  1.0217 -0.1082  4.1251
   79MOL   H11526791   2.476   6.047   2.437 -0.2451 -0.7789  0.4953
   79MOL   H11626792   2.536   5.705   2.411 -0.8439 -0.4006 -2.0277
   79MOL   H11726793   2.755   5.733   2.346  0.4019  1.3773 -2.6144
   79MOL   H11826794   2.943   5.890   2.367  0.0890  3.0184 -1.7939
   79MOL   H11926795   2.865   6.140   2.673  1.5718 -1.8361  1.7327
   79MOL   H12026796   3.009   6.229   2.662  0.6051 -1.3403  1.2096
   79MOL   C12126797   3.058   6.030   2.663 -0.2110 -0.0933 -0.0901
   79MOL   C12226798   3.198   6.073   2.611 -0.2136 -0.0960 -0.0747
   79MOL   C12326799   3.273   6.172   2.678 -0.4001  0.0319  0.1370
   79MOL   C12426800   3.402   6.205   2.636 -0.2037  0.0271  0.5639
   79MOL   C12526801   3.457   6.148   2.517 -0.2143  1.0780  0.1183
   79MOL   O12626802   3.571   6.197   2.454 -0.1012  0.4067 -0.1415
   79MOL   C12726803   3.380   6.050   2.446 -0.1252 -0.4944 -0.2774
   79MOL   C12826804   3.256   6.004   2.504 -0.9165 -0.3752  0.1099
   79MOL   C12926805   3.070   6.006   2.828  0.0922 -0.1146  0.3650
   79MOL   H13026806   3.029   5.934   2.619  0.9852 -0.3054 -0.4228
   79MOL   H13126807   3.226   6.219   2.763 -0.7902  0.6155 -0.3988
   79MOL   H13226808   3.453   6.280   2.694 -1.5912 -0.5930  2.6460
   79MOL   H13326809   3.631   6.236   2.516  2.0056 -1.9188 -0.6549
   79MOL   H13426810   3.436   6.008   2.364 -4.5829 -0.1475 -3.6793
   79MOL   H13526811   3.210   5.925   2.447  1.2232 -1.1179 -0.6614
   79MOL   H13626812   3.057   6.102   2.878  0.8237 -0.0250  0.3873
   79MOL   H13726813   3.171   5.969   2.844 -0.6031 -1.5577  1.5487
   79MOL   C13826814   2.967   5.910   2.891  0.0392  0.4040  0.4423
   79MOL   C13926815   2.824   5.939   2.861  1.0055 -0.3988  0.1307
   79MOL   C14026816   2.760   6.054   2.917  0.0235  0.5876  0.0475
   79MOL   C14126817   2.632   6.094   2.883 -0.3439 -0.0821  0.1153
   79MOL   C14226818   2.551   6.016   2.795  0.4255 -0.4143  0.0466
   79MOL   O14326819   2.431   6.064   2.752  0.0658  0.1869  0.0019
   79MOL   C14426820   2.609   5.897   2.746  0.0821 -0.3251 -0.0657
   79MOL   C14526821   2.740   5.854   2.780 -0.2240 -0.0213 -0.0936
   79MOL   C14626822   2.998   5.894   3.042 -0.3090 -0.2273  0.1791
   79MOL   H14726823   2.990   5.810   2.853 -1.6810  0.1609 -0.0212
   79MOL   H14826824   2.807   6.110   2.996 -2.1507  0.9830  1.1062
   79MOL   H14926825   2.599   6.186   2.929 -1.0889  1.5177 -3.5120
   79MOL   H15026826   2.404   6.145   2.793  2.1085 -0.2306  2.2907
   79MOL   H15126827   2.550   5.845   2.671 -0.6898  0.8211 -0.2589
   79MOL   H15226828   2.790   5.762   2.754 -2.3991 -1.8168  1.8279
   79MOL   H15326829   2.994   5.989   3.095 -0.1750 -0.0678 -0.0932
   79MOL   H15426830   3.093   5.841   3.045 -0.6216 -0.7807  0.3852
   79MOL   C15526831   2.898   5.807   3.125  0.0768  0.2723 -0.2655
   79MOL   C15626832   2.928   5.810   3.271  0.8247 -1.0042 -0.0001
   79MOL   C15726833   3.063   5.782   3.319 -0.0993  0.0507 -0.4763
   79MOL   C15826834   3.089   5.789   3.458 -0.3972  0.5054 -0.0533
   79MOL   C15926835   2.994   5.818   3.555 -0.3013 -0.2915 -0.2660
   79MOL   O16026836   3.028   5.825   3.687 -0.2754  0.2530 -0.1088
   79MOL   C16126837   2.862   5.842   3.512  0.5156  0.0742 -0.0135
   79MOL   C16226838   2.832   5.851   3.370  0.1813  0.0999 -1.4409
   79MOL   C16326839   2.906   5.667   3.061  0.3901  0.4141 -0.5106
   79MOL   H16426840   2.800   5.849   3.099 -0.3171 -1.3116 -1.4582
   79MOL   H16526841   3.142   5.750   3.251  0.3196 -1.6035  0.7640
   79MOL   H16626842   3.193   5.774   3.484 -0.7820 -1.7622  0.2631
   79MOL   H16726843   3.030   5.917   3.707 -1.2908  0.3557 -0.4585
   79MOL   H16826844   2.793   5.876   3.587  0.8296 -0.0540  0.3338
   79MOL   H16926845   2.729   5.869   3.343 -0.5146 -0.8643  0.4958
   79MOL   H17026846   3.012   5.643   3.048 -0.1505 -1.2449 -2.1055
   79MOL   H17126847   2.866   5.665   2.960 -0.5032  2.4681 -0.2290
   79MOL   C17226848   2.831   5.560   3.143  0.5333 -0.2959 -0.1548
   79MOL   C17326849   2.896   5.428   3.128 -0.5339  0.5980 -0.2551
   79MOL   C17426850   2.869   5.339   3.024  0.1059 -0.2686 -0.0814
   79MOL   C17526851   2.926   5.210   3.027 -0.2662  0.6721 -0.0599
   79MOL   C17626852   3.013   5.167   3.128 -0.3131  0.0812 -0.4528
   79MOL   O17726853   3.069   5.044   3.123 -0.6442 -0.3123 -0.2121
   79MOL   C17826854   3.055   5.264   3.220  0.1360  0.6043 -0.4118
   79MOL   C17926855   2.982   5.380   3.231 -0.5282 -1.2845 -0.4925
   79MOL   C18026856   2.673   5.565   3.126  0.7198 -0.7171  0.0803
   79MOL   H18126857   2.841   5.582   3.249  0.1204  1.3303 -0.4469
   79MOL   H18226858   2.802   5.347   2.940  0.0911  0.1394 -0.0348
   79MOL   H18326859   2.880   5.138   2.961 -0.1755 -1.1036  1.7900
   79MOL   H18426860   3.118   5.017   3.199 -0.5167 -0.8713 -0.4871
   79MOL   H18526861   3.132   5.240   3.292  1.1926  0.2870 -1.6163
   79MOL   H18626862   3.012   5.456   3.301 -0.1622 -2.5056  0.6820
   79MOL   H18726863   2.658   5.553   3.018  2.0590  1.3742 -0.3648
   79MOL   H18826864   2.633   5.666   3.138 -1.3958 -1.2750 -1.8106
   79MOL   C18926865   2.593   5.467   3.214 -0.3255  0.6013 -0.0775
   79MOL   C19026866   2.616   5.489   3.364  0.7771 -0.5136 -0.4617
   79MOL   C19126867   2.556   5.603   3.422 -0.0660  0.8955  0.2860
   79MOL   C19226868   2.590   5.636   3.553  0.6354 -0.2168 -0.4408
   79MOL   C19326869   2.676   5.560   3.629 -1.0098  0.0105  0.1844
   79MOL   O19426870   2.707   5.606   3.756  1.1093 -0.2733 -0.4354
   79MOL   C19526871   2.743   5.450   3.573 -0.2520  0.1997  0.2373
   79MOL   C19626872   2.710   5.414   3.441 -0.4444  0.0276  0.4502
   79MOL   C19726873   2.447   5.462   3.183  0.2925  0.4072  0.3658
   79MOL   H19826874   2.629   5.365   3.199 -0.4397  0.2351  1.9803
   79MOL   H19926875   2.480   5.660   3.370 -0.0615  1.1893  0.5992
   79MOL   H20026876   2.550   5.724   3.602 -2.3062 -0.8024 -1.6780
   79MOL   H20126877   2.796   5.583   3.779  0.3852 -1.9783  0.7877
   79MOL   H20226878   2.821   5.397   3.625  0.4181  0.9385 -0.0043
   79MOL   H20326879   2.760   5.334   3.389 -2.3523 -0.5460 -0.5696
   79MOL   H20426880   2.414   5.562   3.154  0.4422  0.4817  0.4581
   79MOL   H20526881   2.393   5.434   3.273  0.1453  0.8774  0.4259
   79MOL   C20626882   2.398   5.367   3.076 -0.2063  0.1376 -0.1738
   79MOL   C20726883   2.437   5.411   2.938 -0.7325 -0.4152  0.5163
   79MOL   C20826884   2.395   5.529   2.876 -0.1125  0.5108  0.1780
   79MOL   C20926885   2.450   5.558   2.746 -0.1044 -0.0903 -0.0487
   79MOL   C21026886   2.534   5.472   2.676  0.0798  0.1336 -0.2106
   79MOL   O21126887   2.590   5.512   2.553  0.3574 -0.0296  0.1613
   79MOL   C21226888   2.576   5.352   2.739 -0.2717 -0.1184 -0.4887
   79MOL   C21326889   2.526   5.321   2.870 -0.4050  0.1926  0.1493
   79MOL   C21426890   2.246   5.353   3.084  1.1355  0.0782  0.4387
   79MOL   H21526891   2.437   5.266   3.088 -0.7482  0.1695  2.0965
   79MOL   H21626892   2.330   5.598   2.927 -0.7014 -0.1141  0.2869
   79MOL   H21726893   2.419   5.651   2.700  0.5393  0.7253  1.1610
   79MOL   H21826894   2.682   5.504   2.529 -0.3007  0.5925 -2.8395
   79MOL   H21926895   2.652   5.285   2.701  0.7153  0.2145  0.8700
   79MOL   H22026896   2.561   5.236   2.927  1.0965  2.2750  2.4826
   79MOL   H22126897   2.212   5.318   2.986  1.1297 -1.6343  1.0282
   79MOL   H22226898   2.195   5.448   3.098 -0.6398 -0.5125 -1.6457
   79MOL   C22326899   2.184   5.246   3.189 -0.7387  0.1142  0.8126
   79MOL   C22426900   2.213   5.098   3.154 -0.2358  0.3225 -0.2878
   79MOL   C22526901   2.316   5.030   3.231  0.0746  0.3755 -0.2862
   79MOL   C22626902   2.356   4.907   3.194  0.8235 -0.5104 -0.6348
   79MOL   C22726903   2.294   4.841   3.086 -0.1201  0.4074  0.2304
   79MOL   O22826904   2.326   4.716   3.054 -0.2480 -0.4547  0.0427
   79MOL   C22926905   2.210   4.909   2.998 -0.7240  0.1536 -0.1417
   79MOL   C23026906   2.170   5.035   3.037  1.2628 -0.2596  0.4645
   79MOL   C23126907   2.034   5.273   3.214 -0.3839 -0.5937 -0.3332
   79MOL   H23226908   2.230   5.268   3.285  0.5694 -1.6307  0.5973
   79MOL   H23326909   2.344   5.074   3.325 -0.0395  0.9137 -0.4969
   79MOL   H23426910   2.413   4.844   3.262 -0.9314 -0.8743  0.5198
   79MOL   H23526911   2.355   4.673   3.132 -0.3366  1.5225  1.2057
   79MOL   H23626912   2.166   4.865   2.910 -1.3877  1.6938 -0.6040
   79MOL   H23726913   2.106   5.085   2.966  2.1606  0.0569 -0.1365
   79MOL   H23826914   2.042   5.375   3.251 -2.5065 -0.2610 -0.7339
   79MOL   H23926915   1.983   5.276   3.118  0.1394 -1.0182 -0.6312
   79MOL   C24026916   1.961   5.184   3.315  0.1602  0.3699  0.1858
   79MOL   C24126917   2.025   5.194   3.452  0.5908  0.3310 -0.3861
   79MOL   C24226918   2.082   5.076   3.512  0.2576 -0.3362  0.1765
   79MOL   C24326919   2.149   5.079   3.633 -0.0712 -0.2469  0.1746
   79MOL   C24426920   2.178   5.203   3.688 -0.6405 -0.7494 -0.2289
   79MOL   O24526921   2.255   5.209   3.796 -0.0471  0.1043  0.5130
   79MOL   C24626922   2.128   5.323   3.633 -0.1892  0.0968 -0.9381
   79MOL   C24726923   2.047   5.319   3.517  0.1007  0.6314  0.0629
   79MOL   C24826924   1.811   5.225   3.313  0.7876  0.3448  0.9371
   79MOL   H24926925   1.957   5.078   3.289  0.4360  0.4925 -0.3649
   79MOL   H25026926   2.063   4.976   3.477 -1.7458  0.9123 -2.5571
   79MOL   H25126927   2.195   4.992   3.678 -0.0377  0.4346  1.4927
   79MOL   H25226928   2.331   5.266   3.795 -0.1984  0.3401  1.6825
   79MOL   H25326929   2.141   5.417   3.685 -1.2428 -0.5516  0.5543
   79MOL   H25426930   2.004   5.408   3.475 -1.1421 -0.7316 -1.6277
   79MOL   H25526931   1.809   5.334   3.316  0.4358  0.3386  0.8843
   79MOL   H25626932   1.759   5.189   3.224  0.4900 -1.0414  1.6477
   79MOL   C25726933   1.729   5.175   3.439 -0.4829  0.0020 -0.7173
   79MOL   C25826934   1.600   5.251   3.454 -0.8561 -0.5471 -0.2760
   79MOL   C25926935   1.572   5.315   3.572 -0.1057 -0.0349  0.7670
   79MOL   C26026936   1.444   5.364   3.597  0.4411  0.5128 -0.1895
   79MOL   C26126937   1.342   5.353   3.498  0.2052  0.5703 -0.0234
   79MOL   O26226938   1.216   5.397   3.528 -0.2082  0.9026  0.8671
   79MOL   C26326939   1.379   5.291   3.376 -0.0406  0.0396  0.0984
   79MOL   C26426940   1.504   5.238   3.356  0.5652 -0.2918  0.2100
   79MOL   C26526941   1.693   5.024   3.425 -0.0033 -0.6166  0.0081
   79MOL   H26626942   1.790   5.199   3.526  0.3967 -1.9088 -0.7816
   79MOL   H26726943   1.652   5.321   3.643 -0.8388 -2.4933  1.8230
   79MOL   H26826944   1.425   5.419   3.687 -0.0137  0.8617 -0.4981
   79MOL   H26926945   1.207   5.431   3.616  1.7404  2.0764  0.6434
   79MOL   H27026946   1.301   5.292   3.302 -0.7492 -0.4874  0.8254
   79MOL   H27126947   1.526   5.188   3.262  1.1931  0.0333  0.1853
   79MOL   H27226948   1.788   4.973   3.414  0.0116 -0.3477 -1.1045
   79MOL   H27326949   1.628   4.999   3.341  0.6382  2.1233 -1.3348
   79MOL   C27426950   1.622   4.963   3.556  0.7164  0.2884 -0.3885
   79MOL   C27526951   1.675   5.009   3.692 -0.0766 -0.1706  0.5172
   79MOL   C27626952   1.589   5.073   3.785 -0.7231  0.2721 -0.0130
   79MOL   C27726953   1.638   5.113   3.914  0.2183  0.2606 -0.0554
   79MOL   C27826954   1.772   5.102   3.944  0.0467 -0.3306  0.5248
   79MOL   O27926955   1.813   5.163   4.059 -0.3103 -0.9219 -0.4282
   79MOL   C28026956   1.853   5.037   3.849  0.3626  0.1544  0.2228
   79MOL   C28126957   1.810   4.989   3.728 -0.2038  0.6623  0.2691
   79MOL   C28226958   1.616   4.806   3.550 -0.0393 -0.2638  0.0784
   79MOL   H28326959   1.522   5.003   3.537  0.0939  0.2535  2.5787
   79MOL   H28426960   1.485   5.091   3.764 -0.7500 -1.6159 -1.5299
   79MOL   H28526961   1.574   5.167   3.983  0.9944 -1.6960  2.2757
   79MOL   H28626962   1.901   5.148   4.090 -0.2420  1.6347  0.8356
   79MOL   H28726963   1.956   5.021   3.878  0.2846  0.0659  0.4516
   79MOL   H28826964   1.883   4.948   3.660  0.8006 -4.2785  3.9396
   79MOL   H28926965   1.643   4.754   3.458 -0.3520 -2.0866  1.0031
   79MOL   H29026966   1.682   4.763   3.625 -0.7526 -1.3224  0.1143
   79MOL   C29126967   1.487   4.735   3.594  0.3879 -0.1073  1.0057
   79MOL   C29226968   1.501   4.598   3.661  0.3357  0.5826  0.4463
   79MOL   C29326969   1.597   4.510   3.611 -0.0690  0.3868 -0.2626
   79MOL   C29426970   1.610   4.391   3.674 -0.1661 -0.3490  0.2626
   79MOL   C29526971   1.526   4.354   3.778 -0.6206  0.4497  0.2924
   79MOL   O29626972   1.534   4.224   3.812  0.2981  0.1274  0.2288
   79MOL   C29726973   1.422   4.439   3.820 -0.2854 -0.0392 -0.0278
   79MOL   C29826974   1.407   4.560   3.759  0.7852  0.1517  0.6243
   79MOL   C29926975   1.382   4.716   3.484 -0.0930  0.2619 -1.2143
   79MOL   H30026976   1.437   4.793   3.672  0.9376  2.7487 -0.7310
   79MOL   H30126977   1.674   4.541   3.542  0.2405  0.5493  0.1515
   79MOL   H30226978   1.690   4.329   3.637 -0.9065  0.0145 -1.9988
   79MOL   H30326979   1.564   4.181   3.734 -1.1049 -0.7447  0.1586
   79MOL   H30426980   1.348   4.408   3.892  0.7606 -1.9791  0.2645
   79MOL   H30526981   1.335   4.634   3.794  0.1328  1.0100 -2.4134
   79MOL   H30626982   1.308   4.646   3.522 -1.5231  2.6972  0.6313
   79MOL   H30726983   1.428   4.667   3.398  0.2124 -0.0938 -0.8509
   79MOL   C30826984   1.306   4.848   3.450  0.2728 -0.4617  0.4193
   79MOL   C30926985   1.222   4.908   3.570 -0.1663  0.7195 -0.1875
   79MOL   C31026986   1.218   5.047   3.586  0.4558  0.6410 -0.1066
   79MOL   C31126987   1.135   5.102   3.691 -0.4059  1.0684 -0.5003
   79MOL   C31226988   1.053   5.017   3.764 -0.4927 -0.1300 -0.0307
   79MOL   O31326989   0.959   5.066   3.846 -0.0968  0.0975  0.1642
   79MOL   C31426990   1.072   4.881   3.754  0.1527  0.2216 -0.0351
   79MOL   C31526991   1.148   4.822   3.658 -0.3600  0.1376 -0.4282
   79MOL   C31626992   1.205   4.839   3.337 -0.2714  0.4333  0.1442
   79MOL   H31726993   1.376   4.924   3.412  0.5872 -1.7676 -1.6588
   79MOL   H31826994   1.278   5.111   3.523  0.9486 -1.1802 -1.5255
   79MOL   H31926995   1.138   5.209   3.705 -0.4698  1.3348 -2.3917
   79MOL   H32026996   0.928   5.153   3.827  0.9581  0.7304  1.2898
   79MOL   H32126997   1.019   4.815   3.821 -0.6370  0.2807 -0.5932
   79MOL   H32226998   1.155   4.714   3.658 -0.3053  0.1174 -2.5982
   79MOL   H32326999   1.159   4.938   3.337  0.4760  0.7872  0.4335
   79MOL   H32427000   1.136   4.761   3.371 -1.6849  1.4525 -0.3521
   79MOL   C32527001   1.250   4.801   3.192  0.6306  0.2978  0.0424
   79MOL   C32627002   1.324   4.913   3.117  0.2513 -0.0053 -0.0471
   79MOL   C32727003   1.256   5.038   3.092 -0.3213  0.0765 -0.4531
   79MOL   C32827004   1.316   5.143   3.025  0.0326  0.1780  0.1219
   79MOL   C32927005   1.450   5.123   2.980  0.0601  0.1872 -0.8596
   79MOL   O33027006   1.518   5.225   2.925 -0.2754  0.6556 -0.4046
   79MOL   C33127007   1.510   4.995   2.989 -0.0564 -0.6870  0.4661
   79MOL   C33227008   1.449   4.893   3.055  0.7327  0.1607  0.3616
   79MOL   C33327009   1.133   4.742   3.111  0.3803  0.3963 -0.4186
   79MOL   H33427010   1.320   4.718   3.195  1.1174  0.5981 -2.1258
   79MOL   H33527011   1.156   5.057   3.129  0.1228 -0.5592  1.1262
   79MOL   H33627012   1.261   5.234   3.010 -2.3437 -0.9356  1.7162
   79MOL   H33727013   1.519   5.306   2.975  0.7587  0.1652  0.3889
   79MOL   H33827014   1.599   4.978   2.931 -0.7593 -0.4917 -0.6896
   79MOL   H33927015   1.500   4.799   3.066 -2.1351 -1.3506  1.4089
   79MOL   H34027016   1.072   4.664   3.156  1.3399 -0.0607  0.1005
   79MOL   H34127017   1.182   4.690   3.029  2.4857 -0.7119  1.4822
   79MOL   H34227018   1.076   4.824   3.068  0.4019  0.3114 -0.6090
   80MOL     C127019   4.300   7.544   1.869  0.2855 -0.0358  0.3250
   80MOL     C227020   4.334   7.405   1.814  0.3317  0.6375  0.8391
   80MOL     C327021   4.304   7.292   1.898 -0.1385  0.5768  0.1723
   80MOL     C427022   4.334   7.160   1.852 -0.2763 -0.2566  0.0274
   80MOL     C527023   4.390   7.147   1.726 -0.1449 -0.2717  0.9756
   80MOL     O627024   4.411   7.021   1.678  0.3466 -0.6597 -0.5876
   80MOL     C727025   4.414   7.255   1.642 -0.2130 -0.0435  0.1541
   80MOL     C827026   4.384   7.385   1.691  0.0819  0.2111 -0.2151
   80MOL     C927027   4.424   7.630   1.908  0.0501  0.2672 -0.6149
   80MOL    H1027028   4.241   7.591   1.791  1.0434  0.2516 -0.0753
   80MOL    H1127029   4.265   7.303   1.999 -1.0693  2.2268 -0.3585
   80MOL    H1227030   4.327   7.072   1.915 -2.0397 -0.4229 -0.4013
   80MOL    H1327031   4.457   7.026   1.595 -1.8830  1.3357 -1.7580
   80MOL    H1427032   4.468   7.235   1.551  1.5780 -0.9235  1.3841
   80MOL    H1527033   4.408   7.474   1.635 -0.3171  0.8197  0.5591
   80MOL    H1627034   4.481   7.655   1.819 -0.3227  1.4308 -0.5388
   80MOL    H1727035   4.487   7.562   1.965 -0.2503  0.0506 -0.5407
   80MOL    H1827036   4.231   7.534   1.953 -0.6317  0.0112 -0.4103
   80MOL    C1927037   4.393   7.750   1.987 -0.8132  0.4652 -0.6741
   80MOL    C2027038   4.285   7.828   1.915 -0.1331  0.1477  0.3720
   80MOL    C2127039   4.308   7.889   1.787 -0.5602 -0.2504  0.2964
   80MOL    C2227040   4.199   7.963   1.727 -0.4232  0.6097  0.1793
   80MOL    C2327041   4.076   7.982   1.793 -0.5310 -0.4211 -0.1271
   80MOL    O2427042   3.979   0.033   1.740  0.1125  0.1036 -0.4228
   80MOL    C2527043   4.060   7.920   1.916 -0.5965 -0.4605 -0.1104
   80MOL    C2627044   4.162   7.842   1.977  0.7368 -0.3661 -0.3913
   80MOL    C2727045   4.526   7.831   2.017 -0.1105 -0.7523  0.4320
   80MOL    H2827046   4.353   7.707   2.079  0.5064  0.2715 -0.1853
   80MOL    H2927047   4.398   7.891   1.727  0.4054  1.5868  1.7532
   80MOL    H3027048   4.213   8.022   1.638 -1.8871  0.1987 -0.3379
   80MOL    H3127049   3.907   0.048   1.799 -1.0778 -0.5004 -1.7165
   80MOL    H3227050   3.974   7.931   1.980  0.8897  1.6127  1.6133
   80MOL    H3327051   4.153   7.800   2.076  0.4964  0.7534  0.0651
   80MOL    H3427052   4.562   7.878   1.924 -0.6293 -1.3690 -0.0827
   80MOL    H3527053   4.604   7.761   2.048 -1.9969 -1.7997  2.8989
   80MOL    C3627054   4.507   7.946   2.125 -0.6862  0.4738 -0.2108
   80MOL    C3727055   4.476   0.043   2.055  0.1255  0.2895  0.1275
   80MOL    C3827056   4.344   0.084   2.048 -0.0738 -0.4882  0.2711
   80MOL    C3927057   4.308   0.195   1.971 -0.1618 -0.0707  0.1692
   80MOL    C4027058   4.411   0.269   1.910 -0.7483 -0.4066  0.2894
   80MOL    O4127059   4.371   0.375   1.831 -0.1314 -0.1295  0.4221
   80MOL    C4227060   4.546   0.237   1.926  0.5434 -0.1092 -0.2454
   80MOL    C4327061   4.580   0.125   2.002 -0.0784  0.4932  0.8616
   80MOL    C4427062   4.628   7.950   2.218 -0.1262 -0.0284  0.8766
   80MOL    H4527063   4.414   7.925   2.177 -0.6893  0.1471 -0.3516
   80MOL    H4627064   4.267   0.030   2.100 -0.6582 -0.1375 -0.2312
   80MOL    H4727065   4.209   0.235   1.959  0.9900  2.6033 -0.8525
   80MOL    H4827066   4.278   0.374   1.817 -0.0458 -0.4506 -0.1125
   80MOL    H4927067   4.626   0.281   1.868 -0.3064  0.6140 -0.8726
   80MOL    H5027068   4.685   0.100   2.004 -0.0475  0.2350 -1.7124
   80MOL    H5127069   4.724   7.956   2.166 -0.5777 -1.0403 -0.1147
   80MOL    H5227070   4.615   0.001   2.278  2.7216 -0.0347  1.5780
   80MOL    C5327071   4.637   7.825   2.305 -0.8201  0.1022  0.4911
   80MOL    C5427072   4.785   7.803   2.348 -0.0558  0.7723  0.3534
   80MOL    C5527073   4.853   7.689   2.302 -0.1033  0.7416  0.0771
   80MOL    C5627074   4.992   7.681   2.309  0.7638 -0.1111  0.2242
   80MOL    C5727075   5.065   7.772   2.389 -0.4965  0.1361 -0.0466
   80MOL    O5827076   5.199   7.759   2.399  0.5028  0.2749 -0.4267
   80MOL    C5927077   5.001   7.890   2.440  0.2678  0.5663 -0.5758
   80MOL    C6027078   4.863   7.900   2.414 -0.4723 -0.3199 -0.3378
   80MOL    C6127079   4.543   7.829   2.429  0.3152 -0.1540 -0.2676
   80MOL    H6227080   4.601   7.736   2.254 -0.2496  0.8208 -1.1992
   80MOL    H6327081   4.801   7.615   2.243 -2.0885  0.6812  1.8444
   80MOL    H6427082   5.052   7.603   2.264 -0.8479 -1.5873  0.5653
   80MOL    H6527083   5.242   7.840   2.418  1.6183  0.0448 -1.8642
   80MOL    H6627084   5.065   7.965   2.483 -1.2149 -0.2745  3.3830
   80MOL    H6727085   4.810   7.988   2.446 -0.2986 -1.1323  2.3606
   80MOL    H6827086   4.440   7.850   2.398  0.2289 -1.0597 -0.6097
   80MOL    H6927087   4.585   7.913   2.484  0.3144 -0.1113 -0.3336
   80MOL    C7027088   4.541   7.697   2.515  0.1378  0.8919  0.3125
   80MOL    C7127089   4.523   7.574   2.424 -0.9758 -0.1880 -0.0391
   80MOL    C7227090   4.606   7.455   2.440  0.3337  0.4867 -0.0091
   80MOL    C7327091   4.583   7.345   2.352 -0.5962 -0.8966  0.3101
   80MOL    C7427092   4.470   7.352   2.266  0.1702  0.0350  0.2009
   80MOL    O7527093   4.433   7.242   2.189 -0.0130 -0.0101 -0.1310
   80MOL    C7627094   4.388   7.462   2.260  0.2840 -0.2487 -0.6427
   80MOL    C7727095   4.414   7.576   2.336  0.1043 -0.9829 -1.0055
   80MOL    C7827096   4.434   7.685   2.626 -0.1654 -0.2083  0.3953
   80MOL    H7927097   4.640   7.692   2.559 -0.6773 -0.4203  2.0536
   80MOL    H8027098   4.688   7.450   2.510  0.0368 -2.3365  0.2110
   80MOL    H8127099   4.649   7.260   2.354 -3.2732 -3.0190  1.5354
   80MOL    H8227100   4.454   7.162   2.234 -0.8056 -0.7104 -0.9819
   80MOL    H8327101   4.316   7.468   2.179  2.0080 -1.1742 -2.2819
   80MOL    H8427102   4.347   7.660   2.325  1.8462  0.7685  1.1609
   80MOL    H8527103   4.442   7.586   2.672  0.3493 -0.7169 -0.7518
   80MOL    H8627104   4.341   7.679   2.570  1.7897 -0.1344 -3.0379
   80MOL    C8727105   4.429   7.808   2.720  0.2721  0.2548  0.8720
   80MOL    C8827106   4.557   7.830   2.819  0.5393  0.3965 -0.6270
   80MOL    C8927107   4.657   7.914   2.781  0.3026  0.0660  0.6960
   80MOL    C9027108   4.758   7.952   2.875 -0.0649 -0.2715  0.2924
   80MOL    C9127109   4.769   7.885   2.996 -1.0714  0.1706 -1.0959
   80MOL    O9227110   4.852   7.937   3.096 -0.2886  0.5723  0.0691
   80MOL    C9327111   4.669   7.791   3.029  0.5265  0.1773 -0.3373
   80MOL    C9427112   4.560   7.767   2.945 -0.1926  0.2684  0.1773
   80MOL    C9527113   4.299   7.812   2.815  0.0169 -0.0918  0.2501
   80MOL    H9627114   4.431   7.895   2.654  0.8453 -0.2553  0.2167
   80MOL    H9727115   4.652   7.961   2.684  2.2020  0.6385  0.8417
   80MOL    H9827116   4.831   8.026   2.848  0.4053 -1.1420 -0.8563
   80MOL    H9927117   4.835   7.902   3.182  0.1693  2.5755  0.9977
   80MOL   H10027118   4.657   7.743   3.126 -0.2593  0.2686 -0.3835
   80MOL   H10127119   4.482   7.699   2.976 -0.6631  0.7293  0.0001
   80MOL   H10227120   4.248   7.716   2.809 -2.7392  1.2869  0.9929
   80MOL   H10327121   4.330   7.814   2.920 -3.4069 -1.9247  1.3879
   80MOL   C10427122   4.190   7.921   2.789  0.0587  0.1623 -0.5216
   80MOL   C10527123   4.140   7.917   2.645 -0.0603  0.1393  0.5310
   80MOL   C10627124   4.034   7.832   2.615  0.7997  0.2341 -0.0813
   80MOL   C10727125   3.974   7.840   2.484  0.8119 -0.6909  0.7011
   80MOL   C10827126   4.041   7.911   2.381 -0.3159  0.3279 -0.2685
   80MOL   O10927127   3.992   7.916   2.258  0.0682  0.4730  0.2298
   80MOL   C11027128   4.151   7.990   2.409 -0.1807 -0.1447  0.9549
   80MOL   C11127129   4.203   7.988   2.543  0.3404  0.7891  0.5990
   80MOL   C11227130   4.229   0.029   2.826  0.0996 -0.1291 -0.1756
   80MOL   H11327131   4.095   7.902   2.838  0.4702 -1.2206 -0.2394
   80MOL   H11427132   3.998   7.760   2.687 -1.5279 -1.0365 -2.3917
   80MOL   H11527133   3.882   7.786   2.471  0.3604 -0.1833  1.7365
   80MOL   H11627134   3.904   7.882   2.253  1.3075 -3.0125  0.8711
   80MOL   H11727135   4.206   8.030   2.325  0.0161 -0.4801  0.9253
   80MOL   H11827136   4.299   8.033   2.565 -1.0378  2.6839  2.8577
   80MOL   H11927137   4.158   0.100   2.783  0.1005  0.2034  0.3780
   80MOL   H12027138   4.321   0.047   2.771  0.5731  0.3561  0.7631
   80MOL   C12127139   4.241   0.071   2.976  0.2920  0.7977  0.1989
   80MOL   C12227140   4.325   0.200   2.977 -0.5093  0.1025 -0.2206
   80MOL   C12327141   4.461   0.187   2.947 -0.4868 -0.4905 -0.0322
   80MOL   C12427142   4.531   0.302   2.940 -0.0457  0.1035 -0.5549
   80MOL   C12527143   4.480   0.432   2.972  0.2474  0.2073 -0.1056
   80MOL   O12627144   4.549   0.551   2.964 -0.2274  0.4316 -0.1429
   80MOL   C12727145   4.337   0.441   2.983 -0.1401 -0.1521 -0.9411
   80MOL   C12827146   4.265   0.325   2.994 -0.0223  0.7855 -1.0504
   80MOL   C12927147   4.107   0.073   3.052  0.5668 -0.0419  0.8924
   80MOL   H13027148   4.312   0.003   3.023 -1.2399 -1.0527 -0.0999
   80MOL   H13127149   4.513   0.094   2.931  1.2705  0.3269  0.6963
   80MOL   H13227150   4.634   0.299   2.908  0.4298 -0.6869  1.0344
   80MOL   H13327151   4.639   0.537   2.938 -0.9116 -1.0402 -1.8185
   80MOL   H13427152   4.292   0.537   3.002 -1.7785 -1.4296  2.0512
   80MOL   H13527153   4.158   0.333   2.999  0.0702  1.2529  0.3059
   80MOL   H13627154   4.060   8.019   3.016 -0.8838  0.7458  0.7494
   80MOL   H13727155   4.049   0.160   3.021 -0.1456 -0.2013  1.7711
   80MOL   C13827156   4.115   0.076   3.209  1.4090 -0.3885  0.9032
   80MOL   C13927157   4.211   8.007   3.262  0.0838 -0.0669  0.3227
   80MOL   C14027158   4.313   8.036   3.360  1.0215  0.2160 -0.3832
   80MOL   C14127159   4.406   7.935   3.393  0.3391  0.6242 -0.8663
   80MOL   C14227160   4.402   7.816   3.326 -0.2881  0.0982  0.0354
   80MOL   O14327161   4.503   7.732   3.348  0.0131  0.4295 -0.3716
   80MOL   C14427162   4.296   7.782   3.237  0.3537  0.5077 -0.8912
   80MOL   C14527163   4.195   7.878   3.212 -0.5533  0.8485 -0.6890
   80MOL   C14627164   3.980   0.055   3.282  0.4610 -0.7853 -0.2652
   80MOL   H14727165   4.164   0.166   3.246  0.1001 -0.2003  2.2382
   80MOL   H14827166   4.324   0.099   3.398 -0.7122  0.5272 -0.6553
   80MOL   H14927167   4.487   7.963   3.459 -0.5574  0.3521  0.3631
   80MOL   H15027168   4.568   7.765   3.408  1.2240  3.0278 -2.9293
   80MOL   H15127169   4.294   7.684   3.193  0.0499 -0.1027  0.4755
   80MOL   H15227170   4.107   7.865   3.151 -1.0137  2.1803 -0.3296
   80MOL   H15327171   4.005   0.076   3.386 -1.9811  0.4231  0.1265
   80MOL   H15427172   3.944   7.991   3.269 -2.1043 -0.1424  1.4225
   80MOL   C15527173   3.864   0.157   3.257 -0.1905  0.3478 -0.6205
   80MOL   C15627174   3.918   0.296   3.285  0.1853 -0.2425  0.7295
   80MOL   C15727175   3.941   0.344   3.416  0.3782  0.7620 -0.1119
   80MOL   C15827176   3.995   0.469   3.440 -0.0562 -0.2437  0.4356
   80MOL   C15927177   4.030   0.555   3.337  0.8235  0.6766 -0.0297
   80MOL   O16027178   4.060   0.686   3.365  0.1711 -0.1999  0.2628
   80MOL   C16127179   4.020   0.504   3.207 -0.3144 -0.0842  0.1135
   80MOL   C16227180   3.962   0.381   3.179  0.3831 -0.3359  0.7044
   80MOL   C16327181   3.740   0.121   3.350 -0.8903  0.2961 -0.0792
   80MOL   H16427182   3.833   0.162   3.153 -1.7246 -0.2013 -0.1963
   80MOL   H16527183   3.903   0.285   3.499  0.5296 -0.9032 -1.1868
   80MOL   H16627184   4.001   0.501   3.544 -2.4830 -0.1836  0.5955
   80MOL   H16727185   4.027   0.711   3.450 -0.5674 -0.3133  0.0144
   80MOL   H16827186   4.051   0.566   3.124 -0.9580 -0.6334 -0.5394
   80MOL   H16927187   3.934   0.356   3.077  0.9384  0.2396  0.4034
   80MOL   H17027188   3.664   0.197   3.334 -0.4411  1.0080  1.1506
   80MOL   H17127189   3.770   0.121   3.455 -1.3756 -2.2167  0.1030
   80MOL   C17227190   3.670   8.025   3.310 -0.0811 -0.0719 -0.1897
   80MOL   C17327191   3.517   8.017   3.311 -0.4304  0.2954 -0.4427
   80MOL   C17427192   3.445   8.036   3.429  0.0838 -0.5199 -0.7779
   80MOL   C17527193   3.306   8.018   3.434  0.0300 -0.4796  0.1069
   80MOL   C17627194   3.243   7.974   3.320  0.7431 -0.2050 -0.2139
   80MOL   O17727195   3.109   7.948   3.330  0.2905  0.9478  0.4383
   80MOL   C17827196   3.303   7.956   3.200 -0.0727 -0.5634 -0.5694
   80MOL   C17927197   3.443   7.975   3.194  0.8731  0.1384  0.5062
   80MOL   C18027198   3.720   7.918   3.408 -1.1202  0.4248  0.5960
   80MOL   H18127199   3.687   8.007   3.204 -1.3185 -0.8966 -0.2638
   80MOL   H18227200   3.508   0.027   3.513 -0.1795 -0.3799 -0.6300
   80MOL   H18327201   3.254   8.013   3.529 -0.6282  1.0182 -0.1747
   80MOL   H18427202   3.054   7.926   3.256  0.8561 -0.9607  0.5580
   80MOL   H18527203   3.245   7.925   3.114 -0.0021 -1.5148 -0.2831
   80MOL   H18627204   3.497   7.956   3.102  0.7215  0.7170  0.2949
   80MOL   H18727205   3.702   7.951   3.510 -1.5760  0.3121  0.5501
   80MOL   H18827206   3.829   7.922   3.406 -1.1351  0.3367 -1.0091
   80MOL   C18927207   3.672   7.781   3.371 -0.3284 -0.7705 -0.2822
   80MOL   C19027208   3.763   7.738   3.254 -0.4477  0.0159 -0.1299
   80MOL   C19127209   3.712   7.727   3.124  0.1211 -0.5218 -0.2378
   80MOL   C19227210   3.790   7.669   3.015 -0.6029  0.2458 -0.3921
   80MOL   C19327211   3.916   7.620   3.046 -0.1192 -1.4964 -0.8065
   80MOL   O19427212   3.981   7.545   2.953 -0.6664  0.2439 -0.1048
   80MOL   C19527213   3.974   7.643   3.173 -0.2489  0.7772  0.4613
   80MOL   C19627214   3.897   7.702   3.272  0.0245 -0.1615  0.1626
   80MOL   C19727215   3.687   7.686   3.489  0.3888  0.4675  1.0332
   80MOL   H19827216   3.565   7.782   3.350  0.0466 -0.2176 -2.3056
   80MOL   H19927217   3.606   7.745   3.109  0.5805  1.1314 -1.6803
   80MOL   H20027218   3.751   7.656   2.916  0.0821  0.7978 -0.7346
   80MOL   H20127219   3.928   7.468   2.940 -1.1463  0.4534  0.5379
   80MOL   H20227220   4.074   7.603   3.181 -0.7287 -1.4015 -3.3601
   80MOL   H20327221   3.935   7.717   3.372  0.7495 -1.6198  0.1249
   80MOL   H20427222   3.630   7.721   3.575 -0.1967  0.3296  0.7059
   80MOL   H20527223   3.787   7.671   3.529  1.1939  0.1210 -1.0371
   80MOL   C20627224   3.635   7.544   3.461  0.1304  0.4365  0.2660
   80MOL   C20727225   3.504   7.538   3.379  0.1909 -0.8178  0.0082
   80MOL   C20827226   3.388   7.596   3.434  0.5202 -0.2615  0.5976
   80MOL   C20927227   3.269   7.598   3.360 -0.5536  0.6520  0.5488
   80MOL   C21027228   3.263   7.535   3.234  0.2554 -0.2886  0.7897
   80MOL   O21127229   3.147   7.527   3.170 -0.1810  0.6015 -0.0561
   80MOL   C21227230   3.378   7.474   3.179 -0.1124  0.1303  0.1427
   80MOL   C21327231   3.501   7.482   3.253  0.5918 -0.5865  0.0184
   80MOL   C21427232   3.636   7.447   3.579 -0.3712 -0.1149  0.1033
   80MOL   H21527233   3.716   7.501   3.403 -0.0658  0.0914  0.2514
   80MOL   H21627234   3.382   7.624   3.538 -0.0354  1.2775  0.1661
   80MOL   H21727235   3.175   7.627   3.405  0.1658  0.5119  2.1967
   80MOL   H21827236   3.080   7.560   3.227  0.3687  1.6695 -0.0209
   80MOL   H21927237   3.362   7.407   3.096  1.2174 -1.7743  1.3855
   80MOL   H22027238   3.595   7.445   3.213  1.5287  0.8827  0.8268
   80MOL   H22127239   3.579   7.358   3.552 -0.1113 -0.2680  0.0630
   80MOL   H22227240   3.582   7.503   3.656  0.5145 -0.7566  1.2011
   80MOL   C22327241   3.770   7.395   3.619 -0.3764 -0.1477  0.7633
   80MOL   C22427242   3.855   7.326   3.509  0.5937  0.3722 -0.8926
   80MOL   C22527243   3.973   7.383   3.466  0.1107 -0.3047  0.4900
   80MOL   C22627244   4.043   7.331   3.356  0.1730 -0.2859 -0.2926
   80MOL   C22727245   3.996   7.214   3.286  0.3499 -0.3808  0.7386
   80MOL   O22827246   4.063   7.161   3.183 -0.4165 -0.1012 -0.1896
   80MOL   C22927247   3.881   7.150   3.336  0.6044 -0.1695 -0.5175
   80MOL   C23027248   3.815   7.203   3.447  0.1307 -0.0807 -0.0682
   80MOL   C23127249   3.766   7.307   3.738 -0.5362  0.1534  0.0092
   80MOL   H23227250   3.827   7.480   3.656  0.3012 -0.4203  0.3409
   80MOL   H23327251   4.009   7.473   3.514  0.5772 -1.1968  1.8353
   80MOL   H23427252   4.137   7.375   3.326 -0.7507  2.4965  0.7441
   80MOL   H23527253   4.149   7.202   3.180  0.0536 -1.1401 -1.2222
   80MOL   H23627254   3.846   7.060   3.287 -0.3616 -0.9839  1.6168
   80MOL   H23727255   3.727   7.158   3.492  1.4236 -0.4997  2.0944
   80MOL   H23827256   3.682   7.326   3.805  0.2686  1.2229  0.7160
   80MOL   H23927257   3.765   7.199   3.722 -0.6543  0.7723 -5.0199
   80MOL   C24027258   3.892   7.321   3.833  0.2345 -0.8518  0.0857
   80MOL   C24127259   3.912   7.464   3.889  0.3883 -0.1682  0.3873
   80MOL   C24227260   4.013   7.553   3.846 -0.1389  0.2873 -0.4791
   80MOL   C24327261   4.031   7.682   3.901  0.1710 -0.3102  0.5701
   80MOL   C24427262   3.934   7.731   3.991  0.5121  0.1523  0.1540
   80MOL   O24527263   3.945   7.859   4.033  0.3638 -0.1456 -0.3943
   80MOL   C24627264   3.835   7.644   4.039 -0.0564 -0.1908  0.1915
   80MOL   C24727265   3.825   7.510   4.000  0.0766  0.9585  0.5238
   80MOL   C24827266   3.882   7.207   3.933 -0.1853  0.4063 -0.6822
   80MOL   H24927267   3.979   7.309   3.769  1.0228 -2.2589  1.4115
   80MOL   H25027268   4.072   7.528   3.759 -0.6208  1.0409 -1.0342
   80MOL   H25127269   4.110   7.748   3.869 -0.7844  1.1519  1.1768
   80MOL   H25227270   4.015   7.903   3.987  0.4085  0.7323  0.5145
   80MOL   H25327271   3.767   7.676   4.117 -1.3574 -1.7308 -0.3128
   80MOL   H25427272   3.753   7.442   4.043 -1.5361  1.2700 -1.5890
   80MOL   H25527273   3.788   7.222   3.986 -1.9547 -0.2176 -3.5199
   80MOL   H25627274   3.879   7.117   3.872  1.0972 -0.6001  0.7144
   80MOL   C25727275   3.990   7.201   4.044 -0.1485 -0.1593 -0.7524
   80MOL   C25827276   3.935   7.138   4.172 -0.2321 -0.7853 -0.1240
   80MOL   C25927277   3.903   7.004   4.176  0.8592  0.0960 -0.4320
   80MOL   C26027278   3.837   6.940   4.281  0.1593 -0.4429 -0.2508
   80MOL   C26127279   3.793   7.025   4.385 -0.0277  0.3804  0.5841
   80MOL   O26227280   3.709   6.968   4.477 -0.0927  0.1193  0.2839
   80MOL   C26327281   3.824   7.163   4.387  0.4472  0.3780 -1.0062
   80MOL   C26427282   3.893   7.220   4.281 -0.0104 -0.7012  0.3645
   80MOL   C26527283   4.118   7.140   4.000 -0.0780 -0.5824 -0.1378
   80MOL   H26627284   4.013   7.305   4.071  1.0985 -0.5012 -0.4708
   80MOL   H26727285   3.931   6.938   4.095 -2.6229 -0.6132 -1.1034
   80MOL   H26827286   3.823   6.833   4.277  2.1515 -0.7659  0.7180
   80MOL   H26927287   3.692   7.023   4.552  0.2742 -2.7038  2.5550
   80MOL   H27027288   3.797   7.217   4.477 -0.7297  1.0052 -1.7167
   80MOL   H27127289   3.908   7.327   4.284 -1.6183 -0.4825  1.5342
   80MOL   H27227290   4.117   7.117   3.893 -0.4564  2.0200 -0.7127
   80MOL   H27327291   4.147   7.045   4.045  0.2563 -0.3989  0.0340
   80MOL   C27427292   4.247   7.220   4.039  0.0557  0.1905  0.0677
   80MOL   C27527293   4.297   7.300   3.924 -0.3224  0.5725 -0.4818
   80MOL   C27627294   4.289   7.439   3.930 -0.5645 -0.1452 -0.1995
   80MOL   C27727295   4.329   7.516   3.819  0.0441 -0.6323 -0.0144
   80MOL   C27827296   4.371   7.462   3.699  0.4417 -0.8049 -0.0011
   80MOL   O27927297   4.392   7.543   3.596 -0.5993 -0.1667 -0.4695
   80MOL   C28027298   4.382   7.324   3.696 -1.0654  0.1598 -0.0031
   80MOL   C28127299   4.350   7.242   3.809 -0.6903 -0.5579 -0.4874
   80MOL   C28227300   4.362   7.120   4.080  0.6752  0.4481 -0.0894
   80MOL   H28327301   4.232   7.289   4.122  0.0440  2.4268 -1.7305
   80MOL   H28427302   4.258   7.487   4.021  0.0944 -1.7900  0.9071
   80MOL   H28527303   4.323   7.622   3.836 -2.7437 -0.8693  0.8602
   80MOL   H28627304   4.421   7.505   3.515  2.8015  1.0993  0.0494
   80MOL   H28727305   4.405   7.288   3.596 -4.8730 -0.5045 -0.7112
   80MOL   H28827306   4.354   7.135   3.809  1.5778 -0.5091  0.1218
   80MOL   H28927307   4.358   7.026   4.025 -0.2964 -0.4007  1.3947
   80MOL   H29027308   4.459   7.151   4.043  1.5740 -1.8795  0.2321
   80MOL   C29127309   4.388   7.104   4.226  0.4803 -0.0969 -0.2348
   80MOL   C29227310   4.502   7.014   4.263 -0.2649 -0.1370 -0.2250
   80MOL   C29327311   4.511   6.879   4.231 -0.9404 -0.0132  0.2313
   80MOL   C29427312   4.631   6.805   4.265 -0.9975  0.8045  0.3811
   80MOL   C29527313   4.726   6.859   4.352  0.1709  0.3717  0.2859
   80MOL   O29627314   4.833   6.785   4.386  0.0478  0.3761 -0.7390
   80MOL   C29727315   4.711   6.986   4.404 -0.0262 -0.7488  0.1077
   80MOL   C29827316   4.603   7.065   4.352  0.0740  0.4101 -0.3832
   80MOL   C29927317   4.263   7.056   4.305 -0.2215  0.4352 -0.3650
   80MOL   H30027318   4.411   7.203   4.263 -0.8927  0.0526  0.2517
   80MOL   H30127319   4.439   6.847   4.157 -3.5355  0.8598  2.3278
   80MOL   H30227320   4.642   6.707   4.222 -2.7249  0.4029  0.7917
   80MOL   H30327321   4.881   6.833   4.451 -1.1214  1.7951 -0.9089
   80MOL   H30427322   4.775   7.030   4.478  0.4613 -0.7662 -0.3011
   80MOL   H30527323   4.594   7.168   4.385  1.5101  0.4518 -0.0871
   80MOL   H30627324   4.214   6.969   4.261 -0.2888  0.9523 -1.3250
   80MOL   H30727325   4.182   7.129   4.292  0.3254  1.0075 -0.5914
   80MOL   C30827326   4.287   7.045   4.463 -0.1403  0.2958 -0.5885
   80MOL   C30927327   4.298   6.900   4.513  0.3475 -0.1241  0.6708
   80MOL   C31027328   4.420   6.843   4.546  0.6744  0.0551 -0.2340
   80MOL   C31127329   4.434   6.703   4.562 -0.7659  0.3734  0.2477
   80MOL   C31227330   4.329   6.618   4.539  0.3980 -0.7097 -0.4679
   80MOL   O31327331   4.342   6.485   4.556 -0.4702 -0.3921  0.5812
   80MOL   C31427332   4.202   6.673   4.511  0.3955  0.5055 -0.1551
   80MOL   C31527333   4.186   6.811   4.497 -0.2359  0.4290 -0.3255
   80MOL   C31627334   4.171   7.118   4.537  0.1511  0.8575  0.7083
   80MOL   H31727335   4.374   7.107   4.487 -1.2733  0.6380  2.8759
   80MOL   H31827336   4.505   6.910   4.549 -1.1076  2.2801  1.8766
   80MOL   H31927337   4.533   6.662   4.574 -0.9380 -0.1251 -0.0458
   80MOL   H32027338   4.286   6.427   4.506  1.1538 -2.2688  0.8381
   80MOL   H32127339   4.117   6.611   4.487  1.5696 -0.0175 -3.2245
   80MOL   H32227340   4.092   6.854   4.467 -1.0611 -1.0240  0.1096
   80MOL   H32327341   4.075   7.071   4.514  0.9439 -0.9582  1.0942
   80MOL   H32427342   4.168   7.216   4.488  1.6005  1.3192  1.5227
   80MOL   C32527343   4.180   7.139   4.686 -0.1205  0.0813  0.4381
   80MOL   C32627344   4.136   7.015   4.763  0.6928  0.2723  0.0803
   80MOL   C32727345   4.233   6.938   4.832 -0.2446 -0.0708 -1.5756
   80MOL   C32827346   4.190   6.845   4.926  0.0681 -0.1922  0.4176
   80MOL   C32927347   4.050   6.826   4.949  0.0934  0.1298 -0.9272
   80MOL   O33027348   4.019   6.730   5.041 -0.6566 -0.1539  0.0491
   80MOL   C33127349   3.951   6.903   4.886 -0.0517  1.2432  1.0070
   80MOL   C33227350   3.995   6.996   4.789  0.0935  0.3707  1.0506
   80MOL   C33327351   4.097   7.262   4.726 -0.1047  0.1686 -0.7374
   80MOL   H33427352   4.284   7.157   4.713  0.5263  0.1036 -1.9608
   80MOL   H33527353   4.338   6.957   4.817  0.0854  0.0413  0.6846
   80MOL   H33627354   4.252   6.783   4.990  0.4266 -0.4478 -0.1664
   80MOL   H33727355   3.925   6.718   5.035 -0.9691  0.5390  2.7569
   80MOL   H33827356   3.845   6.890   4.899 -0.2238 -0.2154 -1.5582
   80MOL   H33927357   3.919   7.051   4.736  1.6189 -1.0400 -2.7973
   80MOL   H34027358   4.108   7.275   4.833 -0.0605 -1.2255 -0.5588
   80MOL   H34127359   3.991   7.255   4.702 -0.2010 -2.1057  0.1850
   80MOL   H34227360   4.133   7.353   4.677 -0.2330  0.8655  0.4583
   81MOL     C127361   1.532   5.212   4.833 -0.2916 -0.4748  0.2421
   81MOL     C227362   1.552   5.312   4.715 -0.5796 -0.4905 -0.1215
   81MOL     C327363   1.547   5.452   4.729  0.0773 -0.7393 -0.0710
   81MOL     C427364   1.547   5.536   4.619  0.6044  0.8843 -0.0661
   81MOL     C527365   1.566   5.480   4.491  1.2423 -0.7776  0.1216
   81MOL     O627366   1.569   5.570   4.387 -0.0311  0.7317 -0.1466
   81MOL     C727367   1.577   5.340   4.471  0.2519  0.0628  1.0876
   81MOL     C827368   1.581   5.260   4.589 -0.2145 -0.1076  0.0528
   81MOL     C927369   1.475   5.281   4.955 -0.3152 -0.3219 -0.0329
   81MOL    H1027370   1.455   5.143   4.796 -1.4626  1.1106 -0.3563
   81MOL    H1127371   1.519   5.501   4.820  1.8897  0.3000 -0.0443
   81MOL    H1227372   1.532   5.643   4.625  1.6814  1.1915 -2.4161
   81MOL    H1327373   1.588   5.536   4.301 -2.7129  0.5640 -0.7349
   81MOL    H1427374   1.588   5.298   4.372 -0.6987  0.8437  0.6415
   81MOL    H1527375   1.586   5.152   4.583  0.6103 -0.1372  1.1089
   81MOL    H1627376   1.426   5.194   4.999  1.5918 -0.9497  0.8767
   81MOL    H1727377   1.394   5.349   4.927  0.8937  0.9547 -0.5040
   81MOL    H1827378   1.620   5.151   4.850 -0.6095 -0.8532  0.5617
   81MOL    C1927379   1.553   5.349   5.072 -0.7365 -0.2879 -0.1979
   81MOL    C2027380   1.676   5.274   5.121 -0.0590 -0.0225  0.2893
   81MOL    C2127381   1.675   5.131   5.140  0.0672 -0.1880  0.1607
   81MOL    C2227382   1.798   5.076   5.181 -0.0796  0.1790  0.3722
   81MOL    C2327383   1.917   5.156   5.194  0.5642  0.3983  0.2777
   81MOL    O2427384   2.033   5.101   5.229 -0.0514  0.3498  0.1036
   81MOL    C2527385   1.923   5.292   5.172  0.4718  0.5665 -0.4125
   81MOL    C2627386   1.799   5.345   5.137 -0.0678  0.4933  0.2400
   81MOL    C2727387   1.456   5.367   5.190 -0.2435  0.7195  1.5637
   81MOL    H2827388   1.598   5.440   5.033 -0.3702  0.4640  1.9460
   81MOL    H2927389   1.584   5.081   5.110  0.3440 -0.7338  0.2243
   81MOL    H3027390   1.811   4.969   5.195  1.2348  0.5057  1.7258
   81MOL    H3127391   2.106   5.152   5.198  0.2687  0.1041  0.4644
   81MOL    H3227392   2.005   5.360   5.190 -1.0353  2.1679  0.6394
   81MOL    H3327393   1.793   5.451   5.115  0.8805  0.5681  0.3141
   81MOL    H3427394   1.430   5.265   5.219  1.3829  0.3551  1.7989
   81MOL    H3527395   1.354   5.403   5.174 -0.4607 -0.3680  0.4459
   81MOL    C3627396   1.526   5.429   5.314 -0.3086  1.0716  0.3677
   81MOL    C3727397   1.499   5.355   5.446  0.0854  0.1612  0.0777
   81MOL    C3827398   1.558   5.223   5.447 -0.0996 -0.1214  0.0571
   81MOL    C3927399   1.525   5.133   5.553 -0.4475  0.2445  0.3782
   81MOL    C4027400   1.443   5.176   5.659 -1.0187 -0.2830  0.2604
   81MOL    O4127401   1.410   5.106   5.770  0.1780  0.2384 -0.5447
   81MOL    C4227402   1.383   5.305   5.652  0.2655 -0.4529 -0.2648
   81MOL    C4327403   1.403   5.391   5.545  0.4675 -0.1436 -0.4587
   81MOL    C4427404   1.495   5.578   5.312 -0.1537  0.7517 -1.0344
   81MOL    H4527405   1.633   5.431   5.295 -0.3657  1.7606  0.1059
   81MOL    H4627406   1.624   5.188   5.368  1.1897 -0.2916  1.1945
   81MOL    H4727407   1.577   5.039   5.562 -0.6812  0.1261  0.5243
   81MOL    H4827408   1.430   5.013   5.764 -1.6363 -0.0354 -2.8577
   81MOL    H4927409   1.322   5.338   5.734 -0.2059  2.2419 -1.6544
   81MOL    H5027410   1.366   5.493   5.542  3.0759  0.8303 -0.7359
   81MOL    H5127411   1.537   5.601   5.214 -0.8837 -1.2144 -1.8352
   81MOL    H5227412   1.391   5.606   5.296  0.0330  2.8571  1.1999
   81MOL    C5327413   1.565   5.666   5.420 -0.2546  0.1966 -0.5321
   81MOL    C5427414   1.714   5.658   5.429 -0.3285  0.3033 -0.3723
   81MOL    C5527415   1.795   5.753   5.360 -0.0388  0.6605  0.4972
   81MOL    C5627416   1.934   5.737   5.347 -0.5182  0.2417 -0.4002
   81MOL    C5727417   1.999   5.625   5.411 -0.0131  0.2617 -0.2910
   81MOL    O5827418   2.136   5.611   5.394  0.0659 -0.5473 -1.1155
   81MOL    C5927419   1.921   5.536   5.486  0.5170  0.6114 -0.1647
   81MOL    C6027420   1.780   5.556   5.498  0.2554 -0.3165  0.8414
   81MOL    C6127421   1.504   5.811   5.413 -0.2872 -0.5370 -0.4056
   81MOL    H6227422   1.532   5.631   5.518 -2.0584  1.0114 -0.8254
   81MOL    H6327423   1.745   5.833   5.307 -1.6620 -1.4582 -1.2514
   81MOL    H6427424   1.991   5.804   5.283 -1.7107  0.9206 -0.7693
   81MOL    H6527425   2.154   5.523   5.422 -0.8119 -1.2359 -2.6506
   81MOL    H6627426   1.969   5.457   5.541 -1.2404  0.0477  0.5698
   81MOL    H6727427   1.719   5.491   5.559  1.5187 -1.3975  0.9718
   81MOL    H6827428   1.396   5.805   5.405 -0.2709 -1.2296 -0.1067
   81MOL    H6927429   1.540   5.862   5.323 -2.0841 -0.7402 -1.2465
   81MOL    C7027430   1.550   5.908   5.522  0.0955  0.5736  0.0431
   81MOL    C7127431   1.522   5.857   5.663  0.0569 -0.2220  0.1468
   81MOL    C7227432   1.625   5.848   5.759  0.4658 -0.4010  0.3087
   81MOL    C7327433   1.600   5.788   5.886 -0.0328  0.5745  1.3404
   81MOL    C7427434   1.468   5.752   5.916  0.5099 -0.2893  0.0464
   81MOL    O7527435   1.435   5.714   6.044 -0.8513  0.3892 -0.2994
   81MOL    C7627436   1.364   5.762   5.823 -0.0339  0.2259 -0.3069
   81MOL    C7727437   1.388   5.823   5.693 -0.8654  0.0938  0.2911
   81MOL    C7827438   1.496   6.052   5.498 -0.5087  0.0448 -0.0573
   81MOL    H7927439   1.658   5.921   5.527 -0.1244  2.0048  1.6926
   81MOL    H8027440   1.723   5.891   5.741 -0.7315  2.3411  0.0501
   81MOL    H8127441   1.676   5.784   5.963  0.8677 -2.2651  0.3774
   81MOL    H8227442   1.342   5.702   6.058 -0.5388 -2.6441 -0.5569
   81MOL    H8327443   1.265   5.731   5.853  0.0467  1.0514  0.8731
   81MOL    H8427444   1.296   5.839   5.639 -0.4275  1.8713  0.0382
   81MOL    H8527445   1.506   6.107   5.591 -0.3300  1.9055 -1.1393
   81MOL    H8627446   1.388   6.049   5.486 -0.3199  0.5194 -2.0988
   81MOL    C8727447   1.553   6.133   5.377 -0.1840  0.3045  0.6209
   81MOL    C8827448   1.706   6.125   5.373 -0.5147 -0.2923 -0.3892
   81MOL    C8927449   1.789   6.103   5.260 -0.0365 -0.4798  0.0019
   81MOL    C9027450   1.929   6.109   5.262  0.1377 -0.5239 -0.0061
   81MOL    C9127451   1.995   6.118   5.383  0.8698 -0.4255 -0.5343
   81MOL    O9227452   2.129   6.127   5.404 -0.0061 -0.5107  0.2327
   81MOL    C9327453   1.910   6.146   5.493 -0.0523 -0.0058  0.1026
   81MOL    C9427454   1.771   6.156   5.495 -0.4328  0.1043  0.6388
   81MOL    C9527455   1.493   6.273   5.387  0.2747 -0.3889 -0.0660
   81MOL    H9627456   1.514   6.089   5.285 -1.1137 -1.4605  1.8198
   81MOL    H9727457   1.746   6.085   5.162 -1.2229  0.4701  0.3299
   81MOL    H9827458   1.987   6.090   5.173 -0.1276  3.0449 -1.0195
   81MOL    H9927459   2.180   6.105   5.327 -0.9037 -0.6201 -0.3499
   81MOL   H10027460   1.963   6.164   5.585 -0.7923  2.3710  0.1069
   81MOL   H10127461   1.715   6.180   5.584  1.1248  2.4212  1.0308
   81MOL   H10227462   1.390   6.259   5.354  0.8560  0.2574 -2.2632
   81MOL   H10327463   1.495   6.320   5.485  0.2929 -1.5476  0.4906
   81MOL   C10427464   1.572   6.385   5.300 -0.5444  0.4183 -0.1595
   81MOL   C10527465   1.519   6.517   5.347 -0.8182 -0.5383 -0.9825
   81MOL   C10627466   1.390   6.559   5.324  0.7468 -0.4531 -0.3238
   81MOL   C10727467   1.337   6.677   5.377  0.1042  0.5501 -0.2627
   81MOL   C10827468   1.417   6.756   5.459 -0.0893 -0.3875 -0.0937
   81MOL   O10927469   1.356   6.870   5.502  0.2659 -0.4565 -0.2626
   81MOL   C11027470   1.552   6.719   5.484 -0.1440  0.9258 -0.7121
   81MOL   C11127471   1.597   6.594   5.439  0.4317  0.0178  0.7270
   81MOL   C11227472   1.561   6.365   5.149  0.4269 -0.3420  0.0900
   81MOL   H11327473   1.677   6.394   5.325 -0.7723  2.9993  0.0789
   81MOL   H11427474   1.330   6.499   5.257  1.6253 -0.8594 -0.7572
   81MOL   H11527475   1.235   6.699   5.348 -0.1645 -2.5249 -1.8718
   81MOL   H11627476   1.421   6.932   5.530 -0.2679  1.4956 -3.0410
   81MOL   H11727477   1.611   6.785   5.546 -2.4564  2.3552  0.0586
   81MOL   H11827478   1.693   6.571   5.483  1.6983  0.5293 -1.6907
   81MOL   H11927479   1.457   6.386   5.121  0.3135  1.2611  1.6187
   81MOL   H12027480   1.581   6.260   5.132  2.0476 -0.3002  1.6158
   81MOL   C12127481   1.655   6.447   5.059  0.3978  0.4026  0.3190
   81MOL   C12227482   1.703   6.363   4.941  0.0286  0.4248  0.1959
   81MOL   C12327483   1.816   6.287   4.965 -0.5078  0.1438  0.2361
   81MOL   C12427484   1.868   6.204   4.863  0.8136  0.0906  0.1524
   81MOL   C12527485   1.790   6.196   4.738 -0.6104  0.2062 -0.0841
   81MOL   O12627486   1.836   6.133   4.630 -0.3331  0.2351  0.5895
   81MOL   C12727487   1.679   6.279   4.715  0.1753 -0.3302  0.2898
   81MOL   C12827488   1.635   6.359   4.818  1.1082  0.0553 -0.1247
   81MOL   C12927489   1.605   6.580   4.999 -0.1245  0.0044  0.1089
   81MOL   H13027490   1.741   6.473   5.121  0.1004 -0.1450  0.9686
   81MOL   H13127491   1.858   6.291   5.064  2.8900 -0.3591 -1.1160
   81MOL   H13227492   1.961   6.150   4.872  0.9017 -0.0514 -1.3555
   81MOL   H13327493   1.888   6.055   4.646 -0.7595 -0.2477 -0.3367
   81MOL   H13427494   1.625   6.276   4.622 -0.2908 -0.5550  0.5668
   81MOL   H13527495   1.556   6.431   4.802  0.1780 -0.2210  2.9274
   81MOL   H13627496   1.504   6.569   4.961 -0.1586  0.8667 -0.0635
   81MOL   H13727497   1.665   6.596   4.910 -1.4467 -3.2982 -1.4363
   81MOL   C13827498   1.613   6.709   5.077 -0.2333  0.0716 -0.1176
   81MOL   C13927499   1.554   6.813   4.976 -0.0472 -0.7487 -0.8450
   81MOL   C14027500   1.429   6.875   5.009  0.0857  0.2123  0.5907
   81MOL   C14127501   1.365   6.960   4.923 -0.3452 -0.0272  0.2798
   81MOL   C14227502   1.437   6.999   4.808  0.2862  0.0487  0.1132
   81MOL   O14327503   1.375   7.073   4.710  0.2027 -0.2397 -0.1575
   81MOL   C14427504   1.560   6.943   4.778  0.2732 -0.2524  0.3462
   81MOL   C14527505   1.620   6.858   4.862  0.1542  0.4329  0.8574
   81MOL   C14627506   1.756   6.737   5.116  0.1019 -0.5087  0.4678
   81MOL   H14727507   1.547   6.704   5.164 -0.5698 -0.8947 -0.4254
   81MOL   H14827508   1.385   6.841   5.101 -2.5890  0.1772 -0.6591
   81MOL   H14927509   1.261   6.979   4.947  0.3650  1.1549  2.5811
   81MOL   H15027510   1.421   7.086   4.629 -1.8630 -0.7643 -1.4339
   81MOL   H15127511   1.608   6.976   4.686 -3.0821 -0.9453 -1.7158
   81MOL   H15227512   1.710   6.806   4.831 -0.3628 -0.2087  0.4340
   81MOL   H15327513   1.821   6.733   5.029 -0.4316 -2.0733  0.1350
   81MOL   H15427514   1.800   6.663   5.183  0.9683 -0.1665  0.2918
   81MOL   C15527515   1.786   6.878   5.163 -0.4349  0.7682  0.0601
   81MOL   C15627516   1.936   6.884   5.199  0.2992  0.5141 -0.0652
   81MOL   C15727517   1.987   6.823   5.319 -0.0784 -0.0634 -0.1194
   81MOL   C15827518   2.123   6.829   5.350 -0.2888 -0.8009  0.5479
   81MOL   C15927519   2.209   6.907   5.271 -0.3038 -0.3632  0.3793
   81MOL   O16027520   2.338   6.918   5.317 -0.5840 -0.1201 -0.0138
   81MOL   C16127521   2.158   6.980   5.159  0.1876  0.8003 -0.3814
   81MOL   C16227522   2.021   6.963   5.123  0.5728 -0.7084  0.0505
   81MOL   C16327523   1.699   6.930   5.282 -0.1695  0.0861  0.1215
   81MOL   H16427524   1.763   6.952   5.086 -1.2599  1.6108  1.0858
   81MOL   H16527525   1.923   6.774   5.391 -1.4478  2.1240  0.1784
   81MOL   H16627526   2.155   6.777   5.438 -0.1412  2.4867  2.5400
   81MOL   H16727527   2.399   6.873   5.260  0.5124 -0.6242  1.5144
   81MOL   H16827528   2.222   7.048   5.106 -0.4411  1.9739  0.3542
   81MOL   H16927529   1.983   7.023   5.042  0.4431  0.0496  0.6773
   81MOL   H17027530   1.700   6.852   5.358 -2.0762 -0.2907 -0.1997
   81MOL   H17127531   1.597   6.949   5.248  0.0391  0.6868 -0.1648
   81MOL   C17227532   1.742   7.065   5.345 -0.5552 -0.7354 -0.1813
   81MOL   C17327533   1.652   7.090   5.465  0.3476  0.1026 -0.6948
   81MOL   C17427534   1.520   7.142   5.454  0.3278 -0.1332 -0.0456
   81MOL   C17527535   1.444   7.163   5.565  0.1252 -0.7543  0.3567
   81MOL   C17627536   1.489   7.119   5.692 -0.0660 -0.0938  0.3041
   81MOL   O17727537   1.405   7.119   5.803 -0.2254 -0.1576  0.2304
   81MOL   C17827538   1.616   7.066   5.708 -0.1842 -0.4454 -1.3516
   81MOL   C17927539   1.695   7.055   5.595  0.2765  0.4255  0.1793
   81MOL   C18027540   1.733   7.182   5.239 -0.1298  1.2642 -0.3911
   81MOL   H18127541   1.844   7.057   5.383  0.0204 -1.0608 -1.7722
   81MOL   H18227542   1.477   7.170   5.359 -3.0042  2.6977  2.1929
   81MOL   H18327543   1.346   7.204   5.549  0.4831 -0.6510 -1.6897
   81MOL   H18427544   1.330   7.176   5.808  0.8785  1.2884  0.3829
   81MOL   H18527545   1.635   7.032   5.809 -1.7944 -0.2053 -0.9535
   81MOL   H18627546   1.789   7.003   5.607 -0.0299  0.0159  0.7829
   81MOL   H18727547   1.627   7.189   5.216  0.3430  0.6879 -2.8582
   81MOL   H18827548   1.775   7.160   5.141  2.3244  1.0455  0.6628
   81MOL   C18927549   1.781   7.322   5.281 -0.7720  0.6008 -0.1304
   81MOL   C19027550   1.931   7.334   5.256  0.1415 -0.3444 -0.6654
   81MOL   C19127551   1.990   7.323   5.131  0.7858  0.1085  0.2414
   81MOL   C19227552   2.133   7.342   5.115  0.6668  0.7691 -0.6083
   81MOL   C19327553   2.214   7.344   5.230  0.0658  0.1398  0.0138
   81MOL   O19427554   2.346   7.358   5.231 -0.1473 -0.1341  0.5916
   81MOL   C19527555   2.152   7.339   5.356  0.9701  0.1317 -0.3683
   81MOL   C19627556   2.015   7.339   5.370 -0.6585  0.3460 -0.0249
   81MOL   C19727557   1.690   7.423   5.210 -0.1537  0.4679 -0.0357
   81MOL   H19827558   1.771   7.328   5.389 -0.8317  0.2893 -0.1192
   81MOL   H19927559   1.932   7.297   5.044 -2.1877  2.6018  1.3704
   81MOL   H20027560   2.166   7.342   5.012 -0.3976  2.2645 -0.9820
   81MOL   H20127561   2.387   7.336   5.313  1.3468  0.8271  0.1362
   81MOL   H20227562   2.217   7.325   5.441 -1.8234  2.6592  2.2804
   81MOL   H20327563   1.968   7.347   5.467 -1.4455  0.8822 -0.4434
   81MOL   H20427564   1.588   7.393   5.233 -1.0058  2.0141 -1.7311
   81MOL   H20527565   1.704   7.399   5.105 -1.2074 -0.7265  0.0820
   81MOL   C20627566   1.717   7.571   5.260  0.2564 -0.3904 -0.5040
   81MOL   C20727567   1.720   7.591   5.415  0.0411  0.6440  0.3003
   81MOL   C20827568   1.816   7.677   5.464  0.2263 -0.4489 -0.0459
   81MOL   C20927569   1.823   7.690   5.606 -0.1526  0.1870  0.0330
   81MOL   C21027570   1.746   7.620   5.693 -0.3906 -0.3404 -0.5824
   81MOL   O21127571   1.768   7.633   5.824  0.1090  0.2502  0.4552
   81MOL   C21227572   1.641   7.542   5.639  1.1282 -0.0656  0.2569
   81MOL   C21327573   1.632   7.526   5.498  0.5592  0.3154  0.2684
   81MOL   C21427574   1.628   7.666   5.192  0.0422  0.2608 -0.5017
   81MOL   H21527575   1.818   7.602   5.233  0.4268  0.2731  0.8523
   81MOL   H21627576   1.867   7.739   5.392 -1.1606  0.2480 -0.4537
   81MOL   H21727577   1.908   7.745   5.641  0.7754  1.4924 -3.9397
   81MOL   H21827578   1.699   7.587   5.870 -0.7957 -0.5516 -1.6303
   81MOL   H21927579   1.569   7.490   5.700 -1.0163  1.5076 -0.8481
   81MOL   H22027580   1.561   7.461   5.449 -2.3895  2.6653  1.2970
   81MOL   H22127581   1.626   7.764   5.240 -2.1112 -0.8701  1.8136
   81MOL   H22227582   1.525   7.634   5.204  0.3768  0.0663  2.1615
   81MOL   C22327583   1.665   7.679   5.040 -0.0931  0.5407 -0.6690
   81MOL   C22427584   1.788   7.771   5.021 -0.2210  0.5777 -0.0074
   81MOL   C22527585   1.905   7.705   4.988  0.2912  0.2492 -0.9779
   81MOL   C22627586   2.030   7.775   4.981  0.3885 -0.4135 -0.1785
   81MOL   C22727587   2.025   7.915   4.997  0.5647 -0.4766 -0.1273
   81MOL   O22827588   2.145   7.981   4.976  0.1903  0.1510 -0.6139
   81MOL   C22927589   1.906   7.986   5.024  0.2470 -0.3236 -0.0455
   81MOL   C23027590   1.784   7.912   5.040 -0.3323 -0.4077  0.5236
   81MOL   C23127591   1.546   7.729   4.953  0.7980  0.0122  0.1477
   81MOL   H23227592   1.678   7.578   5.000 -3.3335  0.2610 -1.1359
   81MOL   H23327593   1.910   7.597   4.983  1.4442  0.2364  0.2129
   81MOL   H23427594   2.123   7.723   4.963  0.8924  0.2550  0.4816
   81MOL   H23527595   2.130   0.029   5.012  2.5903 -0.0513  0.9902
   81MOL   H23627596   1.903   0.056   5.029  0.6604 -0.2808 -0.6538
   81MOL   H23727597   1.694   7.972   5.037  1.5535  2.5236  0.7458
   81MOL   H23827598   1.461   7.663   4.975  1.4465 -0.9014 -0.0798
   81MOL   H23927599   1.518   7.827   4.991 -0.8445  0.0334 -1.0358
   81MOL   C24027600   1.573   7.742   4.802  0.3225  0.3538 -0.1663
   81MOL   C24127601   1.626   7.606   4.743  0.1520 -0.8838  0.0953
   81MOL   C24227602   1.755   7.597   4.701  0.3211  0.3863 -0.4025
   81MOL   C24327603   1.808   7.475   4.649 -0.5613  0.9113  0.0713
   81MOL   C24427604   1.729   7.356   4.658  0.2891  0.0862 -0.5548
   81MOL   O24527605   1.767   7.242   4.594 -0.6845  0.2109 -0.0871
   81MOL   C24627606   1.591   7.372   4.696  0.3784 -0.4943  0.2092
   81MOL   C24727607   1.544   7.491   4.741  0.4607  0.3414 -0.1257
   81MOL   C24827608   1.445   7.796   4.719  0.4171 -0.1183  0.2699
   81MOL   H24927609   1.658   7.809   4.790  0.7051  0.2119  1.6104
   81MOL   H25027610   1.820   7.683   4.713  0.1617  0.6421 -1.2927
   81MOL   H25127611   1.906   7.470   4.602 -0.6016  0.6886  0.0112
   81MOL   H25227612   1.854   7.248   4.558 -0.7093 -1.0266 -0.3838
   81MOL   H25327613   1.525   7.288   4.680 -0.7943  0.7954 -2.0815
   81MOL   H25427614   1.440   7.510   4.765  0.9673 -0.1076  2.4896
   81MOL   H25527615   1.482   7.829   4.622 -0.6439  1.8146  0.5040
   81MOL   H25627616   1.379   7.713   4.694  1.2659 -0.4670 -0.8379
   81MOL   C25727617   1.354   7.908   4.784 -0.0844  0.4198 -1.2626
   81MOL   C25827618   1.432   0.008   4.789  0.7882  0.4079 -0.3034
   81MOL   C25927619   1.466   0.068   4.661 -0.0406 -1.8622  0.2926
   81MOL   C26027620   1.537   0.192   4.662 -0.9811 -0.4171  0.4742
   81MOL   C26127621   1.566   0.261   4.788  0.5184  0.2646 -0.0236
   81MOL   O26227622   1.621   0.388   4.780 -0.1520  0.0552  0.4188
   81MOL   C26327623   1.525   0.204   4.907 -1.2637  1.2013  0.2559
   81MOL   C26427624   1.464   0.075   4.910  0.5181 -0.3110  0.1023
   81MOL   C26527625   1.219   7.903   4.704  1.2293  0.0373  0.6023
   81MOL   H26627626   1.327   7.881   4.887 -0.2925  2.2545 -0.8087
   81MOL   H26727627   1.427   0.020   4.573 -2.6990  0.8876 -0.0923
   81MOL   H26827628   1.561   0.246   4.572  1.6207  3.3625  3.2439
   81MOL   H26927629   1.581   0.450   4.840 -0.5000 -0.5254  0.7953
   81MOL   H27027630   1.537   0.262   4.997 -0.5001  0.0350  0.9287
   81MOL   H27127631   1.439   0.029   5.005 -0.1268  0.2601  0.2090
   81MOL   H27227632   1.177   7.805   4.724  2.5024 -0.9345 -1.3393
   81MOL   H27327633   1.249   7.899   4.599  1.8331 -0.2675  0.7821
   81MOL   C27427634   1.120   8.014   4.718 -0.0168  0.6218  0.5479
   81MOL   C27527635   1.091   0.007   4.865 -0.1416 -0.3413 -0.1176
   81MOL   C27627636   1.151   0.121   4.921 -0.2362  0.6078  0.0773
   81MOL   C27727637   1.121   0.158   5.056 -0.0952  0.4153 -0.2739
   81MOL   C27827638   1.029   0.085   5.136 -0.7197  0.0455 -0.8178
   81MOL   O27927639   1.003   0.121   5.267 -0.0210  0.5166  0.3774
   81MOL   C28027640   0.974   8.008   5.078  0.1113  0.1081 -0.3835
   81MOL   C28127641   1.001   7.973   4.943  0.4443  0.0167  0.3488
   81MOL   C28227642   0.996   7.987   4.628  0.0089  0.2706 -0.0091
   81MOL   H28327643   1.164   0.060   4.664 -0.8700  0.1744 -0.8633
   81MOL   H28427644   1.221   0.179   4.862 -0.6983  0.3804 -0.6981
   81MOL   H28527645   1.162   0.246   5.103  0.7152 -0.5759  0.9039
   81MOL   H28627646   0.981   0.213   5.269  1.1742  0.8751 -1.9208
   81MOL   H28727647   0.887   7.967   5.128 -0.5374 -0.1808 -1.7262
   81MOL   H28827648   0.944   7.889   4.907  0.7113 -0.5966  1.3587
   81MOL   H28927649   1.016   8.000   4.522  0.9232  1.8373  0.3305
   81MOL   H29027650   0.969   7.885   4.655 -0.4478  0.9241  2.0862
   81MOL   C29127651   0.881   0.052   4.649 -0.3232  0.4107 -0.1583
   81MOL   C29227652   0.759   8.033   4.569  0.3760 -0.8630 -0.3847
   81MOL   C29327653   0.649   7.987   4.642  0.2623  0.7169  0.1357
   81MOL   C29427654   0.524   7.960   4.568  0.2253 -0.0601 -1.1683
   81MOL   C29527655   0.524   7.959   4.431  0.0902  0.7155  0.0679
   81MOL   O29627656   0.407   7.950   4.365  0.5950  0.1893 -0.0606
   81MOL   C29727657   0.648   7.972   4.362 -0.2164 -0.7473  0.2304
   81MOL   C29827658   0.763   8.016   4.425 -0.2295  0.6005 -0.7280
   81MOL   C29927659   0.906   0.201   4.593 -0.2635  0.2620  0.8579
   81MOL   H30027660   0.847   0.063   4.752  1.0395  0.8290  0.2541
   81MOL   H30127661   0.649   7.980   4.750  0.7157  0.8561  0.1466
   81MOL   H30227662   0.431   7.949   4.623  0.8675  1.3353  0.2407
   81MOL   H30327663   0.336   7.913   4.415  0.4473 -0.1176 -0.4909
   81MOL   H30427664   0.644   7.955   4.255 -0.5242  2.1204 -0.2358
   81MOL   H30527665   0.848   8.031   4.360 -1.5374 -0.9610 -2.8401
   81MOL   H30627666   0.819   0.228   4.533  1.8160 -2.3954 -3.5843
   81MOL   H30727667   0.990   0.187   4.525 -2.0188  0.1487 -1.3474
   81MOL   C30827668   0.925   0.311   4.702  0.0462 -0.2931  0.4655
   81MOL   C30927669   0.799   0.324   4.781 -0.5359 -0.5850 -0.0157
   81MOL   C31027670   0.813   0.306   4.924 -0.3235  1.2769  0.7214
   81MOL   C31127671   0.712   0.354   5.005  0.4995  0.4343 -0.2992
   81MOL   C31227672   0.588   0.403   4.954 -0.3914 -0.3258 -0.6493
   81MOL   O31327673   0.501   0.462   5.042 -0.5871  0.0265 -1.0250
   81MOL   C31427674   0.567   0.402   4.813 -0.1950 -0.2889  0.1427
   81MOL   C31527675   0.672   0.365   4.726  0.8354  0.3002  0.0243
   81MOL   C31627676   0.943   0.443   4.623 -0.9330 -0.2108  0.5993
   81MOL   H31727677   1.009   0.288   4.769 -2.1219  0.3135  3.4769
   81MOL   H31827678   0.910   0.275   4.959 -1.1662 -0.9027  1.2419
   81MOL   H31927679   0.723   0.352   5.113 -1.2731  2.4965 -0.0493
   81MOL   H32027680   0.413   0.481   5.014 -0.8217  1.5116  0.5990
   81MOL   H32127681   0.480   0.446   4.768 -0.6144 -0.8496  0.4002
   81MOL   H32227682   0.669   0.369   4.618  2.1094 -4.4981 -0.2829
   81MOL   H32327683   0.897   0.526   4.678  1.1179  0.1946  1.7348
   81MOL   H32427684   0.885   0.427   4.532  2.6557 -0.9413 -1.6496
   81MOL   C32527685   1.085   0.487   4.584  0.2324 -0.8425 -0.6269
   81MOL   C32627686   1.137   0.403   4.467  0.8397  0.1283 -0.1531
   81MOL   C32727687   1.258   0.330   4.493  0.1752 -0.3191  0.5694
   81MOL   C32827688   1.311   0.247   4.384  0.1021 -0.5090  0.0963
   81MOL   C32927689   1.238   0.239   4.260 -0.0266  0.6413  0.0472
   81MOL   O33027690   1.291   0.164   4.155 -0.2034 -0.1897  0.1330
   81MOL   C33127691   1.124   0.316   4.239 -0.4739 -0.4887  0.3592
   81MOL   C33227692   1.073   0.397   4.340  0.4977 -0.1010 -0.0062
   81MOL   C33327693   1.157   0.507   4.719 -0.4125  0.0218  0.3249
   81MOL   H33427694   1.076   0.588   4.544 -0.6253 -0.3087  0.8604
   81MOL   H33527695   1.324   0.352   4.575  1.5958 -0.0395 -0.6175
   81MOL   H33627696   1.408   0.200   4.384  0.5981  0.4962  0.3415
   81MOL   H33727697   1.239   0.174   4.076 -0.4984  0.4744  0.4091
   81MOL   H33827698   1.069   0.323   4.147  0.6273 -1.0595 -0.3562
   81MOL   H33927699   0.988   0.463   4.325 -0.1706 -0.0829  3.3682
   81MOL   H34027700   1.240   0.576   4.707  0.5807 -1.2443 -0.2058
   81MOL   H34127701   1.195   0.408   4.744 -0.8009 -0.1088  0.4004
   81MOL   H34227702   1.094   0.558   4.793 -1.8180 -0.6899 -0.3630
   82MOL     C127703   4.057   7.835   7.007  0.2489 -0.4169 -0.1020
   82MOL     C227704   4.145   7.729   6.942 -0.3073 -0.2340 -0.2379
   82MOL     C327705   4.204   7.755   6.818  0.1473  0.2227 -0.0646
   82MOL     C427706   4.263   7.650   6.743 -0.3410  0.3029  0.2884
   82MOL     C527707   4.254   7.515   6.792 -0.4384 -0.4466 -0.4850
   82MOL     O627708   4.303   7.410   6.714 -0.0405  0.2776  0.1410
   82MOL     C727709   4.188   7.492   6.913 -0.0635 -0.1186  0.1024
   82MOL     C827710   4.137   7.594   6.993 -0.1515 -0.3874 -0.1286
   82MOL     C927711   4.078   7.842   7.162  0.2245  0.3365  0.2015
   82MOL    H1027712   4.068   7.933   6.960  0.1274 -0.7687 -0.8797
   82MOL    H1127713   4.203   7.857   6.784  1.3489  0.4215  0.4896
   82MOL    H1227714   4.309   7.675   6.649  2.3419  2.5151  2.1347
   82MOL    H1327715   4.307   7.327   6.759 -1.5791  0.9604  1.6074
   82MOL    H1427716   4.179   7.388   6.940 -2.3414  0.7316  2.8214
   82MOL    H1527717   4.076   7.569   7.078 -0.0942  0.2413  0.1009
   82MOL    H1627718   4.159   7.905   7.198  0.6434 -0.5135  0.7506
   82MOL    H1727719   4.080   7.740   7.201 -3.6243 -0.2697 -0.9207
   82MOL    H1827720   3.955   7.800   6.995 -1.2103  2.9125  1.9784
   82MOL    C1927721   3.956   7.911   7.236  0.0733 -0.5510  0.8741
   82MOL    C2027722   3.900   0.004   7.173 -0.4263  0.4233 -0.1111
   82MOL    C2127723   3.768   0.013   7.125 -0.0176  0.1912  0.3026
   82MOL    C2227724   3.719   0.131   7.071  0.0343  0.1334  0.5273
   82MOL    C2327725   3.805   0.239   7.065 -0.7098 -0.5522  0.3471
   82MOL    O2427726   3.765   0.351   6.989  0.2725  0.3105  0.0639
   82MOL    C2527727   3.941   0.234   7.116 -0.0541  0.0416 -0.5916
   82MOL    C2627728   3.988   0.110   7.165  0.0272 -0.3850  0.4037
   82MOL    C2727729   3.991   7.941   7.386 -0.0434  0.0596  0.2208
   82MOL    H2827730   3.871   7.844   7.233  0.7176 -1.3085 -1.4344
   82MOL    H2927731   3.699   7.972   7.148  0.1249  0.1006  0.4250
   82MOL    H3027732   3.617   0.133   7.037 -0.4121  2.7271  1.9049
   82MOL    H3127733   3.674   0.362   6.967  0.2132 -0.5951 -0.1529
   82MOL    H3227734   4.003   0.322   7.105  1.0653 -0.4978  1.0521
   82MOL    H3327735   4.088   0.116   7.204  1.0615 -2.2404 -1.8334
   82MOL    H3427736   3.976   0.009   7.404 -1.2208 -0.0354 -0.0920
   82MOL    H3527737   4.094   7.915   7.411 -0.1767 -1.1378 -0.4188
   82MOL    C3627738   3.909   7.860   7.494  0.3916  0.2038  0.8726
   82MOL    C3727739   3.943   7.711   7.470 -0.1379 -0.4292  0.1047
   82MOL    C3827740   4.056   7.641   7.524  0.3288  0.5277  0.1063
   82MOL    C3927741   4.084   7.509   7.489  0.2866  0.5405  0.3589
   82MOL    C4027742   3.997   7.438   7.405  0.1891 -0.1155 -0.5734
   82MOL    O4127743   4.030   7.310   7.380  0.1889  0.6471 -0.1671
   82MOL    C4227744   3.883   7.506   7.345  0.4366  0.9970 -0.3776
   82MOL    C4327745   3.851   7.636   7.384  0.0865  0.8375 -0.2690
   82MOL    C4427746   3.761   7.897   7.485  0.7602  0.6101 -0.2015
   82MOL    H4527747   3.937   7.893   7.595  0.3438 -1.9499  1.6295
   82MOL    H4627748   4.114   7.701   7.593 -1.2030  0.8599  1.1184
   82MOL    H4727749   4.168   7.450   7.525 -0.5351 -0.5190  0.5747
   82MOL    H4827750   4.115   7.276   7.401 -0.7672 -0.7037  1.7031
   82MOL    H4927751   3.813   7.446   7.289  0.2051  0.2355  0.6956
   82MOL    H5027752   3.758   7.673   7.345 -2.0964 -1.3145  2.7012
   82MOL    H5127753   3.760   8.000   7.521  0.0733 -0.2158  2.2909
   82MOL    H5227754   3.721   7.875   7.386 -0.3100 -1.2899  0.6284
   82MOL    C5327755   3.659   7.832   7.584 -0.0354  0.8551  0.3302
   82MOL    C5427756   3.704   7.846   7.727 -0.0870  0.2161  0.2902
   82MOL    C5527757   3.746   7.733   7.800 -0.0234 -0.4147  0.3351
   82MOL    C5627758   3.784   7.740   7.935  0.3765 -0.0056 -0.2091
   82MOL    C5727759   3.795   7.869   7.994  0.1406 -0.4519 -0.2615
   82MOL    O5827760   3.852   7.880   0.081  0.4433  0.4336 -0.0049
   82MOL    C5927761   3.752   7.982   7.924  0.4458  0.5309 -0.4702
   82MOL    C6027762   3.704   7.973   7.788  0.2848  0.2106 -0.2226
   82MOL    C6127763   3.512   7.886   7.561  0.5202  0.3827 -0.0912
   82MOL    H6227764   3.662   7.729   7.548 -0.1990  1.2693 -0.8821
   82MOL    H6327765   3.742   7.636   7.753 -0.3473 -0.7815  1.1055
   82MOL    H6427766   3.823   7.654   7.987  1.6594  1.0914  0.6359
   82MOL    H6527767   3.875   7.799   0.122 -1.9569  0.6646  1.8803
   82MOL    H6627768   3.775   0.036   7.977  0.2109 -0.1461  0.7995
   82MOL    H6727769   3.679   0.021   7.727  1.3657 -0.7154 -1.9875
   82MOL    H6827770   3.481   7.889   7.456 -0.6561  2.1169  0.2880
   82MOL    H6927771   3.511   7.984   7.608  1.3331 -0.7027  2.2654
   82MOL    C7027772   3.398   7.803   7.629  0.5609 -0.4522 -0.3740
   82MOL    C7127773   3.417   7.653   7.625  0.3614  0.2054  0.1566
   82MOL    C7227774   3.436   7.579   7.736 -0.6989  0.0984  0.6022
   82MOL    C7327775   3.452   7.436   7.723 -0.0034  0.1386 -0.1518
   82MOL    C7427776   3.440   7.380   7.598  0.0087  0.3099  0.1431
   82MOL    O7527777   3.425   7.239   7.581  0.3333  0.3078  0.2562
   82MOL    C7627778   3.438   7.462   7.480 -0.3119  0.2651 -0.2757
   82MOL    C7727779   3.423   7.598   7.500  0.3233 -0.8630  0.2110
   82MOL    C7827780   3.259   7.852   7.591  0.5354 -0.5397  0.0065
   82MOL    H7927781   3.411   7.832   7.734 -1.8785  0.8149 -0.3827
   82MOL    H8027782   3.445   7.610   7.839  2.7152 -1.0787  0.7211
   82MOL    H8127783   3.460   7.376   7.812 -3.0492 -1.5354 -0.9508
   82MOL    H8227784   3.419   7.211   7.491  1.7152 -0.4556  0.3909
   82MOL    H8327785   3.457   7.419   7.382  0.5725 -1.4924  0.6480
   82MOL    H8427786   3.407   7.649   7.406 -0.4729 -1.6920 -0.1118
   82MOL    H8527787   3.244   7.845   7.484 -1.1498 -1.0193  0.2539
   82MOL    H8627788   3.246   7.958   7.612 -0.5525 -0.7696  0.5671
   82MOL    C8727789   3.133   7.783   7.651 -0.3562 -0.2086  0.5086
   82MOL    C8827790   3.008   7.834   7.574  0.5901 -0.0585 -0.5322
   82MOL    C8927791   2.973   7.968   7.581  0.4116  0.3964  0.4446
   82MOL    C9027792   2.847   8.002   7.530  0.5982  0.0930  0.5237
   82MOL    C9127793   2.771   7.918   7.442  0.7530  0.2271 -0.0146
   82MOL    O9227794   2.654   7.960   7.375 -0.2749  0.1695  0.3151
   82MOL    C9327795   2.808   7.781   7.436 -0.2955  0.5805  0.2955
   82MOL    C9427796   2.923   7.741   7.508  0.0353  0.6418 -0.1716
   82MOL    C9527797   3.111   7.790   7.806  0.1726  0.1483  0.3831
   82MOL    H9627798   3.140   7.676   7.628  0.0348 -0.2718  0.9113
   82MOL    H9727799   3.017   0.006   7.644 -0.0988 -2.0801  3.9242
   82MOL    H9827800   2.815   0.068   7.535  0.0402 -0.0093 -0.6579
   82MOL    H9927801   2.654   0.017   7.375 -1.8193  0.1927  2.0554
   82MOL   H10027802   2.752   7.704   7.385 -0.4334 -0.2262  1.6545
   82MOL   H10127803   2.944   7.635   7.513 -1.4852  0.2894 -1.2192
   82MOL   H10227804   3.205   7.750   7.847  0.0623 -1.4130 -0.8526
   82MOL   H10327805   3.114   7.893   7.840  2.1956 -0.3305  1.7659
   82MOL   C10427806   2.985   7.724   7.865 -0.2292 -0.7841 -0.4681
   82MOL   C10527807   2.871   7.826   7.895  0.2003  0.7135 -0.2934
   82MOL   C10627808   2.880   7.934   7.987  0.1090 -0.4978 -0.5576
   82MOL   C10727809   2.782   8.034   7.990 -0.1217 -0.4251 -0.1899
   82MOL   C10827810   2.663   8.016   7.919  0.2269 -0.0373  0.6746
   82MOL   O10927811   2.562   0.066   7.934 -0.6832 -0.3458 -0.2367
   82MOL   C11027812   2.652   7.908   7.831 -0.6330  0.0823 -0.1975
   82MOL   C11127813   2.755   7.816   7.817  0.0618 -0.0181  0.5570
   82MOL   C11227814   3.013   7.632   7.986 -0.5142 -0.7068  0.0186
   82MOL   H11327815   2.942   7.653   7.794  0.1938 -1.7918  0.2532
   82MOL   H11427816   2.978   7.953   8.028 -1.2101  2.8000  1.2791
   82MOL   H11527817   2.793   0.087   0.011 -0.4665 -2.5977  3.3520
   82MOL   H11627818   2.491   0.037   7.879  0.3994 -0.7035 -1.4753
   82MOL   H11727819   2.569   7.885   7.767  0.3805 -0.6963 -1.2479
   82MOL   H11827820   2.746   7.739   7.741  5.0978  0.0160 -0.2111
   82MOL   H11927821   3.022   7.686   0.042 -1.2311 -1.0937  0.3127
   82MOL   H12027822   3.105   7.578   7.962  0.1827  0.1832  0.6698
   82MOL   C12127823   2.904   7.525   8.014 -0.9129  0.5901 -0.5305
   82MOL   C12227824   2.884   7.425   7.893  0.1942 -0.5251  0.3906
   82MOL   C12327825   2.999   7.362   7.832 -0.0305  0.2018 -0.1182
   82MOL   C12427826   2.979   7.286   7.715 -0.5096  0.0263  0.0254
   82MOL   C12527827   2.846   7.280   7.657 -0.3644 -0.3353 -0.0365
   82MOL   O12627828   2.817   7.203   7.548  0.2306  0.6067  0.9633
   82MOL   C12727829   2.736   7.346   7.711 -0.6525 -0.2617  0.0433
   82MOL   C12827830   2.758   7.417   7.829 -0.3917 -0.6634  0.6401
   82MOL   C12927831   2.929   7.452   0.111  0.1445  0.0750  0.1248
   82MOL   H13027832   2.819   7.593   8.024 -1.4328 -0.0475 -0.5145
   82MOL   H13127833   3.099   7.371   7.870 -0.1498 -1.1988  0.5521
   82MOL   H13227834   3.061   7.233   7.669 -0.7301  0.6685 -1.1107
   82MOL   H13327835   2.882   7.141   7.518  0.1500 -0.0375  2.0951
   82MOL   H13427836   2.636   7.337   7.670  0.4482 -0.7303 -2.6678
   82MOL   H13527837   2.674   7.471   7.871  1.7463  1.7654  2.0169
   82MOL   H13627838   2.941   7.536   0.180  1.4772  0.1410 -0.1762
   82MOL   H13727839   3.024   7.400   0.119  0.7577  1.1331 -0.1326
   82MOL   C13827840   2.816   7.353   0.152 -0.5521  0.2388  0.0664
   82MOL   C13927841   2.760   7.383   0.294  0.6391 -0.3054  0.6228
   82MOL   C14027842   2.846   7.402   0.402 -0.5195 -0.3806  0.1738
   82MOL   C14127843   2.790   7.417   0.529  0.5502 -0.0307 -0.9288
   82MOL   C14227844   2.651   7.425   0.544 -0.0842  0.3116  0.6911
   82MOL   O14327845   2.595   7.440   0.666  0.1951  0.3856 -0.2214
   82MOL   C14427846   2.566   7.415   0.434  0.7407  0.7618  0.6370
   82MOL   C14527847   2.616   7.386   0.309  0.0715 -0.0625  0.0495
   82MOL   C14627848   2.854   7.206   0.148 -0.1348  0.1605 -0.6231
   82MOL   H14727849   2.730   7.364   0.085  0.0383 -1.2763 -0.9769
   82MOL   H14827850   2.952   7.405   0.383 -0.7094 -0.8431 -1.0099
   82MOL   H14927851   2.855   7.428   0.614  0.5369 -0.1788 -0.8993
   82MOL   H15027852   2.505   7.468   0.670  0.3388  0.8456 -0.1450
   82MOL   H15127853   2.460   7.408   0.451  0.4841 -2.1451 -1.7999
   82MOL   H15227854   2.544   7.373   0.229  0.3355 -0.1529 -0.1780
   82MOL   H15327855   2.922   7.195   0.233  0.9348  0.1586 -1.4690
   82MOL   H15427856   2.918   7.189   0.062  0.7927  0.5311 -0.0210
   82MOL   C15527857   2.730   7.106   0.159  0.1118 -0.7883 -0.1609
   82MOL   C15627858   2.777   6.968   0.209  0.1793 -0.2151 -0.4110
   82MOL   C15727859   2.901   6.908   0.161  0.1243 -0.2626 -0.5707
   82MOL   C15827860   2.958   6.793   0.225  0.3728 -0.2537  0.3172
   82MOL   C15927861   2.892   6.743   0.340  0.5996 -0.0093  0.8498
   82MOL   O16027862   2.939   6.632   0.403  0.7938 -0.1959  0.1139
   82MOL   C16127863   2.768   6.802   0.380 -0.0653  0.0774  0.2107
   82MOL   C16227864   2.711   6.912   0.317  0.0103 -0.1191 -0.2067
   82MOL   C16327865   2.672   7.099   0.017 -0.2715 -0.3141  0.0127
   82MOL   H16427866   2.664   7.152   0.233  1.7248 -0.2376  0.9673
   82MOL   H16527867   2.956   6.948   0.077  1.6169 -0.8130  0.1349
   82MOL   H16627868   3.050   6.752   0.187 -0.5727 -0.6595 -1.6234
   82MOL   H16727869   2.980   6.650   0.487  0.1635  1.8230 -0.0029
   82MOL   H16827870   2.717   6.757   0.465  1.3367  0.4719  1.2854
   82MOL   H16927871   2.624   6.964   0.356  1.5333  2.2344  0.1472
   82MOL   H17027872   2.684   7.000   8.011 -1.7950 -0.1911 -0.7370
   82MOL   H17127873   2.723   7.163   7.982 -2.5152  2.3402  0.6977
   82MOL   C17227874   2.528   7.140   0.006  0.0517 -0.0130 -0.8785
   82MOL   C17327875   2.447   7.053   0.101  0.3023  0.4831  0.5448
   82MOL   C17427876   2.437   6.914   0.078  0.1045  1.0079  0.3463
   82MOL   C17527877   2.372   6.831   0.167 -0.7407 -0.3609  0.1886
   82MOL   C17627878   2.297   6.886   0.274  0.1428 -0.2909 -0.0570
   82MOL   O17727879   2.226   6.806   0.360  0.0169  0.0037  0.1204
   82MOL   C17827880   2.297   7.025   0.291  0.3940 -0.3244 -0.0470
   82MOL   C17927881   2.382   7.105   0.211  0.8554 -0.6955  0.2164
   82MOL   C18027882   2.477   7.138   7.897 -0.0462  0.0131 -0.2382
   82MOL   H18127883   2.528   7.244   0.039  0.8198 -0.5592  0.8953
   82MOL   H18227884   2.489   6.873   8.030  0.5100 -0.3983  1.2452
   82MOL   H18327885   2.376   6.726   0.143  1.0613  0.0870 -1.6346
   82MOL   H18427886   2.232   6.849   0.443 -1.9964  1.5357 -0.5086
   82MOL   H18527887   2.240   7.072   0.370  0.8055  0.6382 -0.3188
   82MOL   H18627888   2.382   7.212   0.219  2.1177 -0.6719 -0.1384
   82MOL   H18727889   2.484   7.038   7.856  0.2823  0.0249 -0.2152
   82MOL   H18827890   2.544   7.195   7.832 -0.5163  0.2729 -0.5042
   82MOL   C18927891   2.333   7.193   7.872 -0.3559 -0.1056  0.8371
   82MOL   C19027892   2.327   7.345   7.895 -0.5809 -0.7147 -0.5609
   82MOL   C19127893   2.255   7.396   8.006  0.3526  0.1132  0.4318
   82MOL   C19227894   2.244   7.532   8.029 -0.3659  0.5008 -0.2547
   82MOL   C19327895   2.298   7.621   7.933  0.0444  0.2820 -0.5946
   82MOL   O19427896   2.286   7.755   7.953  0.1576 -0.3939 -0.0715
   82MOL   C19527897   2.360   7.574   7.823 -0.0477 -0.1557  0.5260
   82MOL   C19627898   2.378   7.432   7.800  0.1359 -0.0662 -0.0433
   82MOL   C19727899   2.265   7.145   7.738 -0.0221 -0.1273  0.0476
   82MOL   H19827900   2.281   7.145   7.955 -1.3329 -0.3890  0.0742
   82MOL   H19927901   2.207   7.324   0.033  0.8756 -1.4398 -0.8759
   82MOL   H20027902   2.190   7.572   0.076 -1.3038 -0.2557 -0.4802
   82MOL   H20127903   2.210   7.771   7.900 -0.5924 -0.1316  1.0634
   82MOL   H20227904   2.397   7.642   7.748  0.8337 -1.2348 -0.0409
   82MOL   H20327905   2.417   7.405   7.703 -0.9014 -0.9710 -0.2234
   82MOL   H20427906   2.270   7.037   7.739  0.6212 -0.1105 -0.8920
   82MOL   H20527907   2.330   7.168   7.653  1.1057 -1.5513  0.5016
   82MOL   C20627908   2.120   7.192   7.721 -0.1220  0.4418  0.4938
   82MOL   C20727909   2.035   7.150   7.842  0.0254 -0.6609 -0.2249
   82MOL   C20827910   1.966   7.243   7.916 -0.1198 -0.0588 -1.0299
   82MOL   C20927911   1.890   7.207   8.029  0.4398  0.0005  0.7490
   82MOL   C21027912   1.884   7.069   0.028  0.3326  0.5325  0.2355
   82MOL   O21127913   1.832   7.042   0.152 -0.2957 -0.1230  0.0069
   82MOL   C21227914   1.959   6.974   7.995  0.2012 -0.2613 -0.0594
   82MOL   C21327915   2.034   7.011   7.881 -0.3474 -0.2469 -0.2621
   82MOL   C21427916   2.041   7.150   7.590  0.7926  0.0824  0.0758
   82MOL   H21527917   2.121   7.301   7.713 -0.8551  0.4407  0.3021
   82MOL   H21627918   1.975   7.344   7.881  3.2727  0.2766  0.5860
   82MOL   H21727919   1.847   7.290   0.045 -1.9214  0.7731 -2.2557
   82MOL   H21827920   1.863   6.960   0.190  0.7334  0.7876  1.1919
   82MOL   H21927921   1.956   6.872   8.028 -1.2553 -0.1628  0.1673
   82MOL   H22027922   2.094   6.942   7.824  0.7238  0.0548  0.4988
   82MOL   H22127923   1.934   7.159   7.604  0.7552  1.2836 -0.8980
   82MOL   H22227924   2.065   7.045   7.573  1.2864  0.1043  0.6154
   82MOL   C22327925   2.083   7.232   7.468 -0.1971 -0.4341  0.6345
   82MOL   C22427926   2.053   7.383   7.491  0.5330 -0.2160  0.2095
   82MOL   C22527927   2.151   7.481   7.491 -0.1029  0.1437  0.5166
   82MOL   C22627928   2.117   7.613   7.496 -0.3251 -0.0626 -0.2016
   82MOL   C22727929   1.983   7.650   7.524 -0.0985  0.0676  0.1217
   82MOL   O22827930   1.941   7.781   7.540  0.1373 -0.1275 -0.2446
   82MOL   C22927931   1.883   7.551   7.531 -0.0303  0.8119  0.4373
   82MOL   C23027932   1.913   7.416   7.500 -0.3617  0.0699 -0.0075
   82MOL   C23127933   2.016   7.189   7.329  0.2285  0.3716  0.6212
   82MOL   H23227934   2.191   7.217   7.464  0.2326  2.0664  1.7948
   82MOL   H23327935   2.257   7.458   7.491 -0.1926 -0.2759  0.2190
   82MOL   H23427936   2.192   7.689   7.511 -1.9008  1.5027 -0.2120
   82MOL   H23527937   1.849   7.798   7.536  0.0702 -0.5533 -0.5387
   82MOL   H23627938   1.778   7.575   7.545 -0.7689 -0.1744 -2.8319
   82MOL   H23727939   1.839   7.338   7.502  1.3903 -1.6152  1.4987
   82MOL   H23827940   1.912   7.170   7.357  0.6422  0.0564  1.9993
   82MOL   H23927941   1.997   7.276   7.267 -1.7781 -1.1217 -0.9224
   82MOL   C24027942   2.072   7.062   7.254 -0.7732 -0.5482  0.2556
   82MOL   C24127943   1.955   7.001   7.183 -0.5029  0.1122  0.1310
   82MOL   C24227944   1.921   6.866   7.217 -0.2509 -0.0133 -0.3573
   82MOL   C24327945   1.817   6.801   7.144 -0.0645 -0.2529  0.0140
   82MOL   C24427946   1.756   6.873   7.037  0.4857  1.0522 -0.6497
   82MOL   O24527947   1.681   6.797   6.947  0.5026  0.4959 -0.4499
   82MOL   C24627948   1.784   7.007   7.011 -1.0567 -0.1433  0.0039
   82MOL   C24727949   1.880   7.076   7.088  0.1737 -0.1613 -0.1761
   82MOL   C24827950   2.173   7.109   7.142 -0.0990  0.0881 -0.2986
   82MOL   H24927951   2.114   6.986   7.319  1.4181 -1.1829 -1.8239
   82MOL   H25027952   1.988   6.813   7.283  0.4876 -1.0101 -1.8685
   82MOL   H25127953   1.790   6.698   7.161 -0.5618 -0.1425 -0.0959
   82MOL   H25227954   1.641   6.722   6.987 -1.0854 -0.1523 -3.1448
   82MOL   H25327955   1.737   7.062   6.931 -1.5429  0.2108  0.5238
   82MOL   H25427956   1.891   7.183   7.080  1.1200 -0.3734 -1.8951
   82MOL   H25527957   2.168   7.033   7.064  1.3010  1.1224 -1.4168
   82MOL   H25627958   2.136   7.204   7.104  1.7119  0.7816 -0.3301
   82MOL   C25727959   2.318   7.138   7.179 -0.3145  0.4109  0.4744
   82MOL   C25827960   2.387   7.024   7.256 -0.5392 -0.4801 -0.0302
   82MOL   C25927961   2.411   6.903   7.187  0.7406  0.0447 -0.4269
   82MOL   C26027962   2.487   6.805   7.249 -0.2875 -0.3444 -0.6459
   82MOL   C26127963   2.535   6.817   7.382  0.4303 -0.2371 -0.1962
   82MOL   O26227964   2.615   6.729   7.435 -0.1493  0.1224 -0.7324
   82MOL   C26327965   2.501   6.939   7.453  0.1931 -0.2309  0.2757
   82MOL   C26427966   2.427   7.042   7.391  0.2555 -0.8734  0.1110
   82MOL   C26527967   2.400   7.193   7.066  0.2415 -0.4936  0.2087
   82MOL   H26627968   2.309   7.212   7.258  1.7558 -1.7378  2.8263
   82MOL   H26727969   2.389   6.890   7.082  0.6245  1.0552 -0.5316
   82MOL   H26827970   2.512   6.713   7.199 -1.3598 -0.3122 -1.2685
   82MOL   H26927971   2.663   6.686   7.365  1.7967 -0.7040  1.0477
   82MOL   H27027972   2.542   6.977   7.546  0.2275 -1.2967  0.7015
   82MOL   H27127973   2.435   7.139   7.437  0.9887 -0.1893 -1.4054
   82MOL   H27227974   2.345   7.237   6.983 -1.5262 -0.1894  1.5034
   82MOL   H27327975   2.443   7.108   7.014  0.3748 -1.1784  1.4037
   82MOL   C27427976   2.510   7.284   7.116 -0.9509  0.3350  0.3225
   82MOL   C27527977   2.469   7.428   7.155 -0.6042  0.0087  0.0422
   82MOL   C27627978   2.382   7.508   7.076  0.3414  0.3215  0.4597
   82MOL   C27727979   2.385   7.650   7.093 -0.4827  0.1736  0.7507
   82MOL   C27827980   2.452   7.703   7.198 -0.1442 -0.9896  0.9984
   82MOL   O27927981   2.465   7.837   7.200  0.5276 -0.0649 -0.2014
   82MOL   C28027982   2.526   7.623   7.284  0.2227 -0.0342  0.1543
   82MOL   C28127983   2.535   7.485   7.262 -0.6359 -0.6494  0.0536
   82MOL   C28227984   2.638   7.296   7.033 -0.0517 -0.3300 -0.5497
   82MOL   H28327985   2.548   7.246   7.211 -1.5159 -1.6384 -0.2090
   82MOL   H28427986   2.322   7.453   7.005  0.6430 -2.1177  2.0366
   82MOL   H28527987   2.311   7.704   7.036 -1.3648 -0.9315  0.8190
   82MOL   H28627988   2.522   7.864   7.271 -0.3669  1.4688 -0.0480
   82MOL   H28727989   2.568   7.668   7.372 -0.4903 -1.1429  1.0662
   82MOL   H28827990   2.584   7.431   7.341 -0.1879  0.1276  0.3173
   82MOL   H28927991   2.717   7.326   7.103  0.7959 -3.8311  0.0837
   82MOL   H29027992   2.661   7.195   6.999  0.9773 -0.0530 -0.6887
   82MOL   C29127993   2.636   7.390   6.907  0.0614 -0.3635  0.0376
   82MOL   C29227994   2.556   7.328   6.789 -0.0771  0.2351  0.0258
   82MOL   C29327995   2.434   7.389   6.739 -0.5463  0.0273 -0.3074
   82MOL   C29427996   2.358   7.325   6.638  0.1389 -0.4019 -0.6742
   82MOL   C29527997   2.398   7.200   6.587 -0.1410 -0.8760 -0.0172
   82MOL   O29627998   2.315   7.132   6.505  0.7980 -0.1720 -0.3968
   82MOL   C29727999   2.526   7.143   6.628  0.0192 -0.6086 -0.6917
   82MOL   C29828000   2.596   7.209   6.730 -1.1649 -0.4367  0.2909
   82MOL   C29928001   2.779   7.411   6.868 -0.4385 -0.3115 -0.1610
   82MOL   H30028002   2.593   7.489   6.926 -1.9674 -0.5183 -3.2355
   82MOL   H30128003   2.412   7.489   6.772  1.7914  0.7708 -0.9161
   82MOL   H30228004   2.265   7.368   6.604 -0.7221  0.4728  2.6401
   82MOL   H30328005   2.231   7.171   6.485 -0.5330 -3.9842 -2.7495
   82MOL   H30428006   2.575   7.061   6.579 -0.0430 -2.3250  2.0367
   82MOL   H30528007   2.692   7.165   6.754 -1.4196 -0.7210  0.7945
   82MOL   H30628008   2.772   7.433   6.761  0.0157  0.2746 -0.0669
   82MOL   H30728009   2.838   7.321   6.888  0.3906 -0.1181 -1.6704
   82MOL   C30828010   2.855   7.526   6.948  0.4327  0.1241 -0.0641
   82MOL   C30928011   2.823   7.668   6.898 -0.2743  0.5373  0.2513
   82MOL   C31028012   2.825   7.707   6.759 -0.4008 -0.3795  0.1380
   82MOL   C31128013   2.803   7.844   6.721 -1.0036  0.1953  0.1233
   82MOL   C31228014   2.768   7.939   6.819  0.2502 -0.1410 -0.2157
   82MOL   O31328015   2.761   0.038   6.785 -0.6826 -0.2406  0.1776
   82MOL   C31428016   2.754   7.907   6.952 -0.0570  0.3901  0.1334
   82MOL   C31528017   2.782   7.773   6.990 -0.0309  0.4425  0.0251
   82MOL   C31628018   3.006   7.508   6.961  0.7408  1.0738  0.7515
   82MOL   H31728019   2.823   7.527   7.052 -1.2281  2.1176 -0.5707
   82MOL   H31828020   2.851   7.636   6.682 -3.2732 -1.0037 -0.3379
   82MOL   H31928021   2.806   7.884   6.621 -0.6361  0.1496  0.1157
   82MOL   H32028022   2.743   0.076   6.870 -0.5630 -1.1086  0.5931
   82MOL   H32128023   2.729   7.981   7.027 -0.1638  1.2960 -0.7969
   82MOL   H32228024   2.768   7.752   7.095 -0.9305 -2.5515 -0.6290
   82MOL   H32328025   3.047   7.533   6.863  1.0087 -0.7233  0.3843
   82MOL   H32428026   3.023   7.403   6.986 -0.6681  0.8339  0.7695
   82MOL   C32528027   3.083   7.595   7.062  0.6957 -0.7338  0.0123
   82MOL   C32628028   3.240   7.597   7.055  0.5510  0.2347 -0.3171
   82MOL   C32728029   3.310   7.488   7.004 -0.5029  0.1209  0.8641
   82MOL   C32828030   3.453   7.481   7.023 -0.5755  0.6470  0.5346
   82MOL   C32928031   3.522   7.597   7.071  0.5449  0.6988  0.3053
   82MOL   O33028032   3.658   7.593   7.067 -0.9238  0.4073 -0.1236
   82MOL   C33128033   3.450   7.709   7.114  0.1942  0.1321  0.2311
   82MOL   C33228034   3.311   7.707   7.108 -0.0697 -0.9464  0.2826
   82MOL   C33328035   3.046   7.572   7.207 -0.0441 -0.5202 -0.2753
   82MOL   H33428036   3.048   7.698   7.058  0.4555 -0.8692 -1.5862
   82MOL   H33528037   3.261   7.403   6.958 -1.0989  1.0545 -0.2602
   82MOL   H33628038   3.500   7.388   6.996 -0.1874  1.1689 -0.6162
   82MOL   H33728039   3.689   7.556   6.986 -1.8724  0.7218 -0.6395
   82MOL   H33828040   3.500   7.800   7.143 -0.9620  0.6956  0.4932
   82MOL   H33928041   3.255   7.795   7.136 -0.1419 -0.4748 -1.2898
   82MOL   H34028042   3.071   7.470   7.233  2.1587  0.4514  1.6134
   82MOL   H34128043   2.948   7.595   7.249 -0.3115 -2.8048  0.4066
   82MOL   H34228044   3.121   7.628   7.263  0.3734 -0.4943 -0.8605
   83MOL     C128045   6.559   4.129   3.733  0.0702  0.1760  0.4796
   83MOL     C228046   6.496   4.238   3.817 -0.4169  0.3711  0.1635
   83MOL     C328047   6.570   4.321   3.904  1.1275  0.3716 -0.6897
   83MOL     C428048   6.520   4.425   3.980 -0.0668  0.0419 -0.7299
   83MOL     C528049   6.382   4.447   3.974  0.3190 -0.3680  0.3669
   83MOL     O628050   6.333   4.545   4.050 -0.4150  0.3028 -0.4806
   83MOL     C728051   6.302   4.365   3.897 -0.4956 -0.3607  0.1388
   83MOL     C828052   6.354   4.253   3.824 -0.1833  0.1108 -0.5066
   83MOL     C928053   6.699   4.147   3.681 -0.5059 -0.5492 -0.5730
   83MOL    H1028054   6.565   4.042   3.800 -0.2735  1.0958  1.7309
   83MOL    H1128055   6.674   4.293   3.911  0.4470 -2.5300 -1.5124
   83MOL    H1228056   6.591   4.475   4.045 -0.6307  1.2540 -1.0393
   83MOL    H1328057   6.355   4.532   4.140 -1.5376 -1.2262 -0.4042
   83MOL    H1428058   6.202   4.403   3.889 -0.5330 -0.5230 -0.1743
   83MOL    H1528059   6.298   4.182   3.764  0.9237 -2.7708  1.7148
   83MOL    H1628060   6.766   4.209   3.739 -1.5092 -0.8648  0.9482
   83MOL    H1728061   6.683   4.204   3.589 -0.4528  0.6928  0.1711
   83MOL    H1828062   6.491   4.106   3.651 -1.5704  0.3818  1.7557
   83MOL    C1928063   6.779   4.022   3.649  0.2318 -0.0581 -0.3908
   83MOL    C2028064   6.697   3.920   3.573 -0.3686 -0.2027  0.9052
   83MOL    C2128065   6.726   3.913   3.433  0.3764 -0.0082  0.0811
   83MOL    C2228066   6.665   3.813   3.351 -0.0479  0.5139 -0.1789
   83MOL    C2328067   6.572   3.734   3.413  0.0614  0.0116 -0.4362
   83MOL    O2428068   6.519   3.635   3.338  0.6399 -0.3339  0.2548
   83MOL    C2528069   6.550   3.726   3.552 -0.6412  0.0714  0.4807
   83MOL    C2628070   6.611   3.820   3.636  0.1522 -0.5698  0.2257
   83MOL    C2728071   6.842   3.964   3.780  0.2253 -0.3577  0.1924
   83MOL    H2828072   6.860   4.056   3.585  1.7269 -0.0654  1.4736
   83MOL    H2928073   6.792   3.983   3.383 -0.4941  1.5635  1.1169
   83MOL    H3028074   6.689   3.802   3.246  0.1331 -2.1215  0.0921
   83MOL    H3128075   6.590   3.608   3.281  0.3840 -0.2884 -0.0894
   83MOL    H3228076   6.482   3.651   3.591  0.3137 -0.2812  1.5199
   83MOL    H3328077   6.588   3.813   3.742 -0.9564 -2.0565 -0.0996
   83MOL    H3428078   6.791   3.876   3.818  1.6514 -2.1864 -1.9550
   83MOL    H3528079   6.843   4.046   3.851  1.7511 -0.5025  0.3681
   83MOL    C3628080   6.989   3.927   3.753 -0.5074 -0.5389 -0.0993
   83MOL    C3728081   6.988   3.815   3.648 -0.4665 -0.5893 -0.5437
   83MOL    C3828082   7.031   3.839   3.517 -0.1928  0.2590 -0.3112
   83MOL    C3928083   7.010   3.743   3.416 -0.0687 -0.0493 -0.0188
   83MOL    C4028084   6.950   3.621   3.447  0.4533  0.1037  0.1677
   83MOL    O4128085   6.925   3.527   3.350 -0.6437  0.5994  0.0886
   83MOL    C4228086   6.908   3.594   3.576  0.3280  0.3439 -0.2919
   83MOL    C4328087   6.936   3.691   3.674 -0.0740 -0.3082  0.1192
   83MOL    C4428088   7.065   3.895   3.886 -0.0955  0.0221  0.6340
   83MOL    H4528089   7.047   4.009   3.712 -0.9225 -1.0639 -1.8104
   83MOL    H4628090   7.088   3.926   3.488  1.2926 -0.3182  0.8175
   83MOL    H4728091   7.043   3.773   3.318  0.0475  1.6672  0.5368
   83MOL    H4828092   6.950   3.437   3.367 -1.9625 -0.4380 -3.0885
   83MOL    H4928093   6.841   3.518   3.616  0.1404  0.1146 -1.0372
   83MOL    H5028094   6.895   3.665   3.770  0.3638  0.5141  0.5345
   83MOL    H5128095   7.067   3.993   3.935  0.0708  1.1494 -1.5323
   83MOL    H5228096   6.997   3.838   3.949 -0.7563 -0.2347 -0.3002
   83MOL    C5328097   7.209   3.831   3.874  0.2315  0.7809  0.3360
   83MOL    C5428098   7.318   3.934   3.818  0.2148  0.3156 -0.8701
   83MOL    C5528099   7.377   3.912   3.697  0.2683 -0.2998 -0.6650
   83MOL    C5628100   7.481   4.008   3.659 -0.0532  0.4830 -0.2489
   83MOL    C5728101   7.531   4.108   3.745  0.1792  0.1450 -0.3927
   83MOL    O5828102   7.655   4.161   3.726  0.1240  0.2470 -0.5793
   83MOL    C5928103   7.467   4.120   3.869  0.2144  0.7130  0.3959
   83MOL    C6028104   7.362   4.034   3.908 -0.2040  0.9452  0.2946
   83MOL    C6128105   7.266   3.779   4.006  0.0673  0.4859  0.1388
   83MOL    H6228106   7.210   3.736   3.820 -1.9580 -0.6777  2.7426
   83MOL    H6328107   7.350   3.831   3.630  0.2888 -0.9368  0.0875
   83MOL    H6428108   7.530   3.987   3.564  3.0115 -3.4607  2.0335
   83MOL    H6528109   7.711   4.095   3.688 -3.1152 -3.0526  0.0948
   83MOL    H6628110   7.506   4.182   3.947 -0.7630 -0.7993  2.1238
   83MOL    H6728111   7.322   4.036   4.009 -1.1565 -2.6257  0.0466
   83MOL    H6828112   7.227   3.838   4.089  0.1852 -0.4750  0.8933
   83MOL    H6928113   7.373   3.763   4.021  0.3890  0.9381 -1.5253
   83MOL    C7028114   7.202   3.642   4.039  0.5064 -0.0187 -0.8783
   83MOL    C7128115   7.201   3.630   4.193 -0.4809 -0.0654 -0.2080
   83MOL    C7228116   7.320   3.601   4.264 -0.3153 -0.4391 -0.8523
   83MOL    C7328117   7.316   3.593   4.406  0.3702  0.6896 -0.2598
   83MOL    C7428118   7.196   3.614   4.471 -0.4972 -0.0488 -0.1207
   83MOL    O7528119   7.193   3.618   4.609 -0.7524 -0.2031 -0.6918
   83MOL    C7628120   7.072   3.632   4.400  0.1468  0.0311 -0.1486
   83MOL    C7728121   7.077   3.641   4.261  0.3501  0.5066 -0.1077
   83MOL    C7828122   7.269   3.524   3.968  0.0802  0.6670 -0.4031
   83MOL    H7928123   7.097   3.655   4.012  0.7543  3.1107 -0.5344
   83MOL    H8028124   7.409   3.581   4.206  0.3065  0.1300 -0.1012
   83MOL    H8128125   7.404   3.584   4.469 -1.6477  0.0714  2.5412
   83MOL    H8228126   7.103   3.601   4.634 -0.3681 -0.0394  0.8558
   83MOL    H8328127   6.984   3.630   4.463 -0.4408 -0.6035 -0.9727
   83MOL    H8428128   6.987   3.665   4.205 -0.9046 -0.9389  1.2516
   83MOL    H8528129   7.369   3.525   4.011  1.0299  1.3902 -2.5611
   83MOL    H8628130   7.283   3.554   3.864 -0.1863  0.9785 -0.3539
   83MOL    C8728131   7.202   3.385   3.983 -0.2698 -0.7171 -0.4795
   83MOL    C8828132   7.284   3.267   3.937 -0.2247  0.6868  0.2716
   83MOL    C8928133   7.291   3.228   3.802  0.5931 -0.0152 -0.4243
   83MOL    C9028134   7.379   3.125   3.763 -0.2073 -0.3150  0.0140
   83MOL    C9128135   7.443   3.048   3.861 -0.0944  0.5007  0.1290
   83MOL    O9228136   7.527   2.950   3.827 -0.6908 -0.0175  0.8094
   83MOL    C9328137   7.427   3.082   3.997  0.1501  0.3452 -0.3054
   83MOL    C9428138   7.347   3.193   4.033 -0.5734  0.7182  0.1528
   83MOL    C9528139   7.063   3.386   3.918 -0.2146 -0.0547 -0.1743
   83MOL    H9628140   7.189   3.372   4.090 -0.0912  1.0399 -0.2198
   83MOL    H9728141   7.248   3.289   3.723  0.5603 -2.2046 -2.1584
   83MOL    H9828142   7.401   3.102   3.660  1.6663  0.3493  0.2298
   83MOL    H9928143   7.565   2.899   3.897  2.2909  1.7858  0.6090
   83MOL   H10028144   7.475   3.016   4.067 -0.5447  0.3226  0.1533
   83MOL   H10128145   7.348   3.219   4.138  0.7588 -0.8901  0.5514
   83MOL   H10228146   7.034   3.490   3.902  1.4352  0.3263 -0.7593
   83MOL   H10328147   7.065   3.357   3.813 -1.3014  1.1049 -0.5275
   83MOL   C10428148   6.944   3.319   3.988 -0.3017  0.2890  0.0280
   83MOL   C10528149   6.821   3.362   3.912 -0.3178 -0.8385 -0.7059
   83MOL   C10628150   6.746   3.264   3.838 -0.9409 -0.1352 -0.3804
   83MOL   C10728151   6.635   3.305   3.765  0.6184 -0.3922  0.7270
   83MOL   C10828152   6.574   3.430   3.780 -0.1250  0.6583 -0.1866
   83MOL   O10928153   6.459   3.451   3.710 -0.0431  0.1355 -0.1749
   83MOL   C11028154   6.641   3.527   3.859  0.0910  0.1776 -0.3216
   83MOL   C11128155   6.763   3.489   3.928 -0.0135 -0.0162 -0.8174
   83MOL   C11228156   6.923   3.350   4.141  0.3965 -0.3481 -0.5994
   83MOL   H11328157   6.955   3.214   3.960  1.5666 -0.1017  2.1198
   83MOL   H11428158   6.778   3.161   3.832 -0.5791  0.0253 -1.2166
   83MOL   H11528159   6.594   3.225   3.705 -2.9312  0.6928  1.5950
   83MOL   H11628160   6.415   3.531   3.735  0.6078 -0.2596  2.3585
   83MOL   H11728161   6.601   3.625   3.877  0.4437  0.3204 -0.3166
   83MOL   H11828162   6.802   3.564   3.996  0.1728 -0.6925 -0.1655
   83MOL   H11928163   6.825   3.389   4.165  0.7580 -0.3185  0.8550
   83MOL   H12028164   6.979   3.440   4.165  0.0541 -0.3643  0.2668
   83MOL   C12128165   6.951   3.236   4.235  0.6549 -0.3000  0.1208
   83MOL   C12228166   6.956   3.276   4.381 -0.0901  1.0691  0.7419
   83MOL   C12328167   6.836   3.303   4.447  0.7623  0.2411 -0.1741
   83MOL   C12428168   6.834   3.344   4.579 -0.0577 -0.0140 -0.8484
   83MOL   C12528169   6.952   3.347   4.652  0.3788 -0.4080  0.3086
   83MOL   O12628170   6.949   3.362   4.787  0.0487  0.8742  0.0639
   83MOL   C12728171   7.077   3.326   4.586 -0.0892  1.0816  0.6374
   83MOL   C12828172   7.075   3.290   4.452  0.1725  0.5723 -0.3578
   83MOL   C12928173   6.852   3.115   4.211 -0.0093 -0.0090 -0.0399
   83MOL   H13028174   7.053   3.214   4.202  0.3448  0.0103 -1.0574
   83MOL   H13128175   6.741   3.300   4.395 -0.7192  1.9733  2.3107
   83MOL   H13228176   6.739   3.365   4.626  1.2211  2.5436  0.6951
   83MOL   H13328177   7.023   3.352   4.845  0.5175 -0.9550 -0.8016
   83MOL   H13428178   7.174   3.338   4.631  0.8316  0.4910 -1.1414
   83MOL   H13528179   7.172   3.265   4.412  0.6175  2.4502 -0.5135
   83MOL   H13628180   6.851   3.086   4.106 -2.2609  0.6972 -0.2518
   83MOL   H13728181   6.749   3.151   4.212 -0.0287 -0.0701  1.0782
   83MOL   C13828182   6.884   2.987   4.294  0.2000  0.1012 -0.2010
   83MOL   C13928183   7.024   2.931   4.278  0.3765  0.1014  0.1571
   83MOL   C14028184   7.069   2.879   4.155 -0.2875 -0.1482  0.0645
   83MOL   C14128185   7.201   2.832   4.144 -0.1222  0.3045  0.0171
   83MOL   C14228186   7.290   2.856   4.252 -0.9723  0.9714 -0.1635
   83MOL   O14328187   7.413   2.807   4.246 -0.1301 -0.1074 -0.8704
   83MOL   C14428188   7.253   2.925   4.367 -0.6000  0.1981  0.3999
   83MOL   C14528189   7.118   2.960   4.380  0.5533 -0.4887  0.2495
   83MOL   C14628190   6.778   2.879   4.275 -0.0822 -0.2307 -0.3514
   83MOL   H14728191   6.872   3.024   4.396 -1.6552  0.2517 -0.4532
   83MOL   H14828192   7.002   2.865   4.072  0.8542 -0.1121 -0.8884
   83MOL   H14928193   7.230   2.781   4.053  0.3486 -0.3796  0.5458
   83MOL   H15028194   7.471   2.849   4.307  0.9790 -1.1078 -1.2114
   83MOL   H15128195   7.329   2.942   4.442 -0.5500  2.1715 -0.0598
   83MOL   H15228196   7.083   2.996   4.476 -2.5633 -0.2690 -0.9284
   83MOL   H15328197   6.775   2.858   4.168  0.8654  0.7257 -0.5802
   83MOL   H15428198   6.682   2.921   4.305  0.0651 -1.0605  1.3363
   83MOL   C15528199   6.792   2.750   4.352  1.0969  0.1462  0.5679
   83MOL   C15628200   6.672   2.664   4.325  0.2553  0.0647  0.9711
   83MOL   C15728201   6.667   2.577   4.214 -0.2486 -0.1532  0.2912
   83MOL   C15828202   6.548   2.513   4.174 -0.6677 -0.8144  0.0927
   83MOL   C15928203   6.433   2.530   4.248  0.1968 -0.1715  0.4099
   83MOL   O16028204   6.326   2.460   4.209  0.2976  0.0666  0.1989
   83MOL   C16128205   6.430   2.613   4.365  0.2994 -0.3349  0.6709
   83MOL   C16228206   6.548   2.684   4.389  0.4373  0.0104  0.4979
   83MOL   C16328207   6.808   2.779   4.502  0.3616 -0.0814 -0.1321
   83MOL   H16428208   6.880   2.698   4.313  0.9915 -0.2910  0.9017
   83MOL   H16528209   6.755   2.557   4.154  0.0778 -1.0236  1.0422
   83MOL   H16628210   6.551   2.453   4.084 -0.4644 -2.0415  0.9134
   83MOL   H16728211   6.243   2.491   4.240  0.8853  3.4031 -1.3641
   83MOL   H16828212   6.341   2.620   4.425 -0.7242 -1.5515 -0.6589
   83MOL   H16928213   6.537   2.749   4.474 -0.6553  0.8268 -0.2662
   83MOL   H17028214   6.718   2.806   4.557 -0.3278 -1.7117 -0.4263
   83MOL   H17128215   6.887   2.853   4.507  0.3395  0.1074 -2.2855
   83MOL   C17228216   6.876   2.670   4.579  0.1674 -0.4916  0.1501
   83MOL   C17328217   6.786   2.561   4.638  0.3887  0.0944  0.4606
   83MOL   C17428218   6.678   2.593   4.724 -0.2521 -0.1901  0.2867
   83MOL   C17528219   6.598   2.490   4.773  0.7539  0.4094  0.4128
   83MOL   C17628220   6.621   2.351   4.746 -0.3404 -0.1560  0.3846
   83MOL   O17728221   6.535   2.254   4.793  0.7389  0.0973 -0.5916
   83MOL   C17828222   6.733   2.323   4.662  0.3975 -0.3703 -0.1893
   83MOL   C17928223   6.812   2.424   4.612 -0.3168  0.1040  0.0220
   83MOL   C18028224   6.976   2.718   4.680  0.2459 -0.7645  0.1814
   83MOL   H18128225   6.940   2.621   4.506  1.2113  1.9242 -0.6343
   83MOL   H18228226   6.662   2.696   4.751 -0.2765 -0.4961  1.4607
   83MOL   H18328227   6.506   2.499   4.830  0.7106  4.7415 -0.1432
   83MOL   H18428228   6.491   2.280   4.872  0.3794  0.1526 -0.8104
   83MOL   H18528229   6.756   2.227   4.617  0.5528 -0.0348 -0.8406
   83MOL   H18628230   6.907   2.399   4.567 -0.2795  1.2267 -0.5530
   83MOL   H18728231   6.919   2.776   4.753 -2.0119  0.6367 -2.6094
   83MOL   H18828232   7.044   2.794   4.641 -2.2503  1.4349  0.0014
   83MOL   C18928233   7.058   2.614   4.760  0.2890  0.1805 -0.3339
   83MOL   C19028234   7.157   2.535   4.674  0.2618 -1.0195 -0.3015
   83MOL   C19128235   7.231   2.603   4.578  0.0898  0.3017  0.6660
   83MOL   C19228236   7.316   2.536   4.488 -0.5454 -0.1929 -0.1308
   83MOL   C19328237   7.325   2.388   4.500 -0.3998 -0.1143 -0.2533
   83MOL   O19428238   7.413   2.318   4.426  0.5411  0.4075  0.2503
   83MOL   C19528239   7.241   2.321   4.593 -0.2106  0.0239 -0.3477
   83MOL   C19628240   7.158   2.395   4.679  0.2211  0.5591 -0.7488
   83MOL   C19728241   7.110   2.668   4.899 -0.0978  0.0734 -0.4914
   83MOL   H19828242   7.000   2.531   4.799 -0.3721  0.3701 -0.9067
   83MOL   H19928243   7.227   2.709   4.559 -0.6745 -0.1455 -1.7576
   83MOL   H20028244   7.374   2.598   4.421 -1.1886  0.6106  0.0500
   83MOL   H20128245   7.436   2.353   4.341  0.3477 -0.8682 -0.3375
   83MOL   H20228246   7.237   2.214   4.602 -0.4520  0.1652  1.2320
   83MOL   H20328247   7.089   2.343   4.744 -0.0973 -0.6083 -1.9860
   83MOL   H20428248   7.139   2.770   4.876 -2.0139  0.7589  0.0518
   83MOL   H20528249   7.198   2.609   4.923 -0.2985  0.4798  1.3331
   83MOL   C20628250   7.002   2.659   5.016 -0.0434  0.0783 -0.1242
   83MOL   C20728251   6.889   2.765   5.008  0.4903  0.2932 -1.0451
   83MOL   C20828252   6.756   2.719   5.007 -0.0012 -0.4841  0.2355
   83MOL   C20928253   6.654   2.813   4.994 -0.0498 -0.3740  0.4295
   83MOL   C21028254   6.685   2.950   4.985  0.2349  0.5932  0.0103
   83MOL   O21128255   6.584   3.038   4.985 -0.1975  0.3941 -0.2449
   83MOL   C21228256   6.820   2.993   4.989 -0.0003  0.2115  1.2244
   83MOL   C21328257   6.925   2.899   4.996  0.6738 -0.9383 -0.1645
   83MOL   C21428258   7.068   2.648   5.162 -0.6784  0.4761  0.7094
   83MOL   H21528259   6.949   2.565   5.005  0.2683  0.0704 -1.6663
   83MOL   H21628260   6.729   2.614   5.012  1.5255 -0.9167 -0.5117
   83MOL   H21728261   6.550   2.785   5.002  0.1084 -1.5701 -1.4656
   83MOL   H21828262   6.618   3.123   5.008  2.0025 -0.1450 -1.4219
   83MOL   H21928263   6.829   3.100   4.978  0.6128  0.1643  1.2492
   83MOL   H22028264   7.027   2.936   4.997 -0.6778  3.0000  0.1745
   83MOL   H22128265   6.984   2.668   5.229  1.2810 -0.1590  3.4527
   83MOL   H22228266   7.134   2.731   5.183  3.3341 -2.2477 -0.5527
   83MOL   C22328267   7.145   2.515   5.195  0.1394  0.2127 -1.0853
   83MOL   C22428268   7.064   2.393   5.153  0.8147  0.6660 -0.1976
   83MOL   C22528269   7.114   2.304   5.058 -0.2869 -0.9110 -0.1131
   83MOL   C22628270   7.037   2.198   5.008  0.4904 -0.0663 -0.4506
   83MOL   C22728271   6.918   2.161   5.078  0.1628 -0.1954  0.4887
   83MOL   O22828272   6.845   2.052   5.037  0.1283 -0.1651 -0.2326
   83MOL   C22928273   6.870   2.241   5.181  0.2070  0.4116 -0.5190
   83MOL   C23028274   6.936   2.365   5.207  0.0272 -0.5644 -0.6849
   83MOL   C23128275   7.170   2.511   5.349 -0.4381 -0.3420 -0.4905
   83MOL   H23228276   7.238   2.512   5.138  1.3179 -2.3500  0.9025
   83MOL   H23328277   7.214   2.323   5.021 -1.1285 -0.1757 -2.0881
   83MOL   H23428278   7.082   2.139   4.930  3.8972  1.8087  0.0064
   83MOL   H23528279   6.881   2.029   4.953  0.8323 -2.4995  0.6417
   83MOL   H23628280   6.785   2.203   5.235  1.1669 -2.2209 -0.7422
   83MOL   H23728281   6.900   2.425   5.289 -1.0515 -0.6479 -1.0925
   83MOL   H23828282   7.241   2.592   5.369  2.6793 -1.8840 -4.4784
   83MOL   H23928283   7.076   2.543   5.393  0.0710 -0.8034  0.9712
   83MOL   C24028284   7.222   2.376   5.410  0.4964 -0.3429  0.3111
   83MOL   C24128285   7.374   2.348   5.381 -0.8710 -0.6437  0.7461
   83MOL   C24228286   7.411   2.219   5.345  0.6650  0.1964 -1.0278
   83MOL   C24328287   7.548   2.194   5.310  0.0556 -0.8161 -0.0149
   83MOL   C24428288   7.642   2.297   5.333 -0.1842  0.2663 -0.0423
   83MOL   O24528289   7.770   2.269   5.303  0.3566 -0.4891 -0.1803
   83MOL   C24628290   7.608   2.422   5.383 -0.2113  0.1997 -0.0064
   83MOL   C24728291   7.469   2.449   5.401 -0.1846  0.0543  0.3204
   83MOL   C24828292   7.193   2.363   5.565  0.1788 -0.6771  1.2348
   83MOL   H24928293   7.166   2.297   5.361  0.4439  0.5535 -1.1095
   83MOL   H25028294   7.337   2.144   5.320  1.4605 -0.9251 -0.0482
   83MOL   H25128295   7.578   2.096   5.275  0.7247 -0.4450 -0.4832
   83MOL   H25228296   7.823   2.346   5.308  0.5174 -0.7210  1.8583
   83MOL   H25328297   7.681   2.501   5.397  1.4730 -1.6710  2.3934
   83MOL   H25428298   7.439   2.551   5.418 -1.3695 -0.0812 -0.8204
   83MOL   H25528299   7.265   2.411   5.631 -0.1196 -1.5257  2.1895
   83MOL   H25628300   7.096   2.410   5.586 -0.1328 -0.6254 -0.2797
   83MOL   C25728301   7.176   2.221   5.609  0.6991  0.1652  0.6669
   83MOL   C25828302   7.201   2.212   5.756 -0.5760  0.6860  0.1901
   83MOL   C25928303   7.105   2.263   5.849  0.0477 -0.0832  0.4897
   83MOL   C26028304   7.135   2.252   5.985 -0.6790  0.4096 -0.5205
   83MOL   C26128305   7.264   2.200   6.030 -0.4355 -0.9246  0.1972
   83MOL   O26228306   7.303   2.212   6.158  0.0412  0.4195 -0.1417
   83MOL   C26328307   7.357   2.150   5.935 -0.5159  0.9595  0.7002
   83MOL   C26428308   7.323   2.151   5.803  0.1911  0.0780 -0.2088
   83MOL   C26528309   7.040   2.156   5.570 -0.2854 -0.1298  0.6178
   83MOL   H26628310   7.261   2.171   5.562  0.0419 -0.0817 -0.2744
   83MOL   H26728311   7.020   2.325   5.822 -1.4809 -0.9121  3.1798
   83MOL   H26828312   7.066   2.291   6.059 -1.3295  0.5630 -1.2017
   83MOL   H26928313   7.226   2.228   6.209 -0.3358  0.8080 -0.8303
   83MOL   H27028314   7.450   2.104   5.962 -1.2728 -0.4795  0.9088
   83MOL   H27128315   7.394   2.110   5.732 -2.5537 -0.4462 -2.7750
   83MOL   H27228316   7.012   2.179   5.467  1.4239 -0.2657  0.1057
   83MOL   H27328317   6.956   2.205   5.618 -0.2845  1.6471 -1.1188
   83MOL   C27428318   7.044   2.002   5.595  0.5981 -0.3803 -0.1456
   83MOL   C27528319   7.138   1.938   5.495 -0.6983  1.1290  0.2350
   83MOL   C27628320   7.107   1.947   5.361  0.2639 -0.7582 -0.0160
   83MOL   C27728321   7.197   1.893   5.262  0.0406 -0.2403 -0.2992
   83MOL   C27828322   7.317   1.835   5.303 -0.3242  0.3452 -0.6543
   83MOL   O27928323   7.416   1.794   5.213 -0.0665  0.0841  0.3146
   83MOL   C28028324   7.345   1.810   5.441  0.5317 -0.1872 -0.1775
   83MOL   C28128325   7.247   1.851   5.533  0.9246  0.1255  0.0378
   83MOL   C28228326   6.907   1.933   5.606 -0.3939  0.4661 -0.2195
   83MOL   H28328327   7.095   1.987   5.690  2.0017  0.8649 -0.6781
   83MOL   H28428328   7.018   1.997   5.324  0.0125 -1.3298 -0.1986
   83MOL   H28528329   7.178   1.904   5.156 -1.4348 -2.3110 -0.2775
   83MOL   H28628330   7.414   1.831   5.126  1.4688  0.4922  0.4443
   83MOL   H28728331   7.439   1.774   5.479 -1.4624 -2.0010  3.3135
   83MOL   H28828332   7.260   1.831   5.638  0.2436 -2.5308 -0.3564
   83MOL   H28928333   6.854   1.947   5.512 -2.1416  1.2466  0.8714
   83MOL   H29028334   6.946   1.832   5.625 -0.2691  1.0037  2.6746
   83MOL   C29128335   6.832   1.976   5.733  0.2561 -0.6697  0.2735
   83MOL   C29228336   6.871   1.874   5.849  0.4235  0.0434 -0.3331
   83MOL   C29328337   6.838   1.739   5.845 -0.3193  0.3608 -0.6900
   83MOL   C29428338   6.855   1.654   5.961  0.6957 -0.3044 -0.3919
   83MOL   C29528339   6.903   1.710   6.081 -0.0020 -0.3411 -0.7071
   83MOL   O29628340   6.920   1.636   6.198 -0.7588 -0.0748 -0.1808
   83MOL   C29728341   6.943   1.846   6.079  0.3895 -0.0060  0.5027
   83MOL   C29828342   6.928   1.925   5.962  0.0575  0.2555 -0.1935
   83MOL   C29928343   6.676   1.968   5.710 -0.1276 -0.2949 -0.0090
   83MOL   H30028344   6.854   2.076   5.770 -1.6785 -0.7464  1.7197
   83MOL   H30128345   6.811   1.694   5.751 -0.9004 -1.5285  0.3617
   83MOL   H30228346   6.833   1.549   5.951  2.1947 -0.6543 -0.1841
   83MOL   H30328347   6.888   1.547   6.197  0.1528 -0.4189 -2.9119
   83MOL   H30428348   6.996   1.895   6.159  0.6103 -1.5054  1.2940
   83MOL   H30528349   6.959   2.029   5.964  0.0519  0.2497  0.3355
   83MOL   H30628350   6.635   1.985   5.809  2.0413 -0.7195  0.9752
   83MOL   H30728351   6.640   1.867   5.686  1.4249 -1.3574  2.0098
   83MOL   C30828352   6.623   2.078   5.611  0.1848 -0.5643 -0.0633
   83MOL   C30928353   6.640   2.218   5.675 -0.0178  0.0771 -0.2260
   83MOL   C31028354   6.718   2.319   5.613  0.3063 -0.3847  0.3291
   83MOL   C31128355   6.739   2.444   5.670 -0.0233 -0.0869 -0.3803
   83MOL   C31228356   6.687   2.463   5.804 -0.0791 -0.3272  0.1948
   83MOL   O31328357   6.723   2.570   5.882  0.2915  0.1801  0.5093
   83MOL   C31428358   6.609   2.369   5.866  0.2817  0.0011  0.0949
   83MOL   C31528359   6.574   2.249   5.797 -0.3146 -0.4452  0.2559
   83MOL   C31628360   6.476   2.057   5.560 -0.0333 -0.0320 -0.5034
   83MOL   H31728361   6.682   2.075   5.520  1.7380 -3.3672  0.9839
   83MOL   H31828362   6.772   2.302   5.521 -0.3185  1.8655 -0.4873
   83MOL   H31928363   6.801   2.520   5.626  0.4154 -1.1866 -1.6776
   83MOL   H32028364   6.808   2.575   5.924  0.3337  1.3804  0.2918
   83MOL   H32128365   6.570   2.383   5.966  1.6839  0.2177  0.6184
   83MOL   H32228366   6.515   2.167   5.836 -1.1858 -0.4200 -0.9731
   83MOL   H32328367   6.435   2.155   5.536  0.3265 -0.1357 -1.5583
   83MOL   H32428368   6.426   2.024   5.651  0.1596  0.9125 -0.0443
   83MOL   C32528369   6.452   1.958   5.435 -0.1005  0.3340 -0.4450
   83MOL   C32628370   6.415   2.032   5.309  0.2138 -0.1663 -0.9551
   83MOL   C32728371   6.281   2.066   5.285 -0.2457  0.0558 -0.5342
   83MOL   C32828372   6.248   2.134   5.170 -0.3019  0.1126 -0.1473
   83MOL   C32928373   6.347   2.187   5.087 -0.6674  0.2660 -0.0477
   83MOL   O33028374   6.321   2.261   4.977 -0.1742 -0.8534  0.5453
   83MOL   C33128375   6.484   2.165   5.120 -0.8065  0.3212  0.2112
   83MOL   C33228376   6.518   2.092   5.235  0.5079 -1.0061 -0.4010
   83MOL   C33328377   6.348   1.851   5.478 -0.1059 -0.7745 -0.4150
   83MOL   H33428378   6.542   1.899   5.419  0.1808  0.7108 -0.2300
   83MOL   H33528379   6.206   2.029   5.353  1.3822 -0.4680  1.0162
   83MOL   H33628380   6.144   2.155   5.150 -0.5001 -1.7451 -1.1125
   83MOL   H33728381   6.232   2.291   4.968  1.1714  3.2367  0.0620
   83MOL   H33828382   6.571   2.198   5.065  1.6440 -3.1964  1.7738
   83MOL   H33928383   6.620   2.073   5.263  0.9269  1.0087 -0.5381
   83MOL   H34028384   6.354   1.776   5.399  1.3581 -1.5987  0.4520
   83MOL   H34128385   6.243   1.876   5.492  0.1997 -0.4888  1.5529
   83MOL   H34228386   6.373   1.799   5.570  0.0533 -2.4721 -1.3996
   84MOL     C128387   0.704   0.598   7.599 -0.9435  0.0523 -0.4191
   84MOL     C228388   0.724   0.445   7.632  0.3911  0.5183 -0.5626
   84MOL     C328389   0.636   0.350   7.582  0.0162 -0.6169 -0.0485
   84MOL     C428390   0.643   0.215   7.622 -0.3345  0.8345 -0.5810
   84MOL     C528391   0.748   0.175   7.712  0.2775 -0.2166  0.1607
   84MOL     O628392   0.758   0.051   7.754 -0.4107  0.0638  1.0600
   84MOL     C728393   0.839   0.269   7.753 -0.0448  0.0873 -0.7237
   84MOL     C828394   0.832   0.405   7.716  0.1470 -0.1033  0.5442
   84MOL     C928395   0.617   0.672   7.708  0.5941  0.0977  0.0066
   84MOL    H1028396   0.805   0.639   7.588 -2.0204  2.2449 -2.6204
   84MOL    H1128397   0.562   0.382   7.511 -0.9249 -0.1172  1.1440
   84MOL    H1228398   0.567   0.148   7.585  1.5923 -0.4414 -2.3566
   84MOL    H1328399   0.687   8.029   7.737  0.1263 -0.7277  1.6007
   84MOL    H1428400   0.919   0.232   7.815  0.5070  0.1137 -1.4282
   84MOL    H1528401   0.906   0.478   7.746 -2.1882  1.4447  2.7972
   84MOL    H1628402   0.638   0.778   7.696  0.7461  0.2876  1.8652
   84MOL    H1728403   0.649   0.643   7.807  0.1429  1.7246  0.6453
   84MOL    H1828404   0.670   0.606   7.496 -0.2235  2.0595 -0.5279
   84MOL    C1928405   0.462   0.626   7.700  0.8188  0.6490 -0.0546
   84MOL    C2028406   0.404   0.647   7.560  0.0732  0.0532 -0.1566
   84MOL    C2128407   0.400   0.779   7.506  0.2208 -0.4250 -0.2109
   84MOL    C2228408   0.344   0.805   7.383  0.2787 -0.8017  0.9157
   84MOL    C2328409   0.262   0.704   7.324 -0.7634 -0.1618 -0.5501
   84MOL    O2428410   0.181   0.727   7.216 -0.3295 -0.1145  0.2391
   84MOL    C2528411   0.258   0.574   7.383 -0.3925 -0.5499 -0.1821
   84MOL    C2628412   0.343   0.540   7.491  0.1816 -0.4918  0.1068
   84MOL    C2728413   0.390   0.701   7.811  0.7120  0.3480  0.1704
   84MOL    H2828414   0.444   0.520   7.717  0.4745  0.4415 -1.6260
   84MOL    H2928415   0.465   0.850   7.555  0.4225  0.4724 -1.7509
   84MOL    H3028416   0.351   0.905   7.344  1.3436 -1.7082 -1.3361
   84MOL    H3128417   0.188   0.648   7.164 -0.2565 -0.6219  1.0125
   84MOL    H3228418   0.196   0.494   7.347  2.3864 -3.2135  0.7431
   84MOL    H3328419   0.327   0.445   7.540  0.3520  0.0915  1.3342
   84MOL    H3428420   0.428   0.803   7.818 -0.5703  0.9265 -1.0554
   84MOL    H3528421   0.426   0.656   7.903 -2.5381 -0.4804  1.0841
   84MOL    C3628422   0.243   0.724   7.820  0.9794  0.4613  0.2622
   84MOL    C3728423   0.209   0.797   7.953 -0.7346 -0.8563 -0.0985
   84MOL    C3828424   0.198   0.725   0.036  0.1354 -0.4849 -0.1577
   84MOL    C3928425   0.155   0.798   0.149 -0.6809 -0.2537 -0.0174
   84MOL    C4028426   0.146   0.943   0.155 -0.6013  0.4398  0.8385
   84MOL    O4128427   0.100   1.012   0.273 -0.1308 -0.6347  0.1464
   84MOL    C4228428   0.163   1.010   0.036 -0.4138  0.1479  0.2060
   84MOL    C4328429   0.196   0.936   7.955  0.6582 -0.0611  0.6115
   84MOL    C4428430   0.166   0.595   7.805  0.3707  0.4245  0.6670
   84MOL    H4528431   0.207   0.790   7.742  0.0139 -2.6227 -1.9846
   84MOL    H4628432   0.194   0.618   0.027 -2.1214 -0.3866 -0.6992
   84MOL    H4728433   0.120   0.738   0.231  0.5430 -0.7954  0.1199
   84MOL    H4828434   0.055   0.953   0.332 -1.9323 -1.4001 -1.9287
   84MOL    H4928435   0.170   1.118   0.042 -3.0726  0.4245 -1.0243
   84MOL    H5028436   0.208   0.993   7.864  2.0381  1.9692  2.0502
   84MOL    H5128437   0.182   0.547   7.708 -2.0538 -2.1994  1.4752
   84MOL    H5228438   0.225   0.536   7.875  0.6220  0.2580  0.3171
   84MOL    C5328439   0.015   0.600   7.841  0.1837 -0.1818  0.3411
   84MOL    C5428440   7.989   0.695   7.743  0.0638  0.6565 -0.2310
   84MOL    C5528441   7.994   0.670   7.605 -0.1321  0.0185 -0.3435
   84MOL    C5628442   7.930   0.765   7.517  0.2323 -0.2781 -0.1038
   84MOL    C5728443   7.867   0.877   7.567 -0.0045  0.2766  0.2144
   84MOL    O5828444   7.804   0.957   7.477  0.1048  0.0774 -0.2739
   84MOL    C5928445   7.850   0.894   7.706  0.6073 -0.0634  0.2718
   84MOL    C6028446   7.913   0.804   7.798 -0.2715 -0.8224  0.4087
   84MOL    C6128447   8.006   0.453   7.846  0.5271 -0.0290 -0.0316
   84MOL    H6228448   8.038   0.633   7.944  0.6741  1.7617 -0.1853
   84MOL    H6328449   0.005   0.584   7.564  2.5101  1.5199 -0.4402
   84MOL    H6428450   7.944   0.739   7.413 -1.1925 -1.4251 -0.0193
   84MOL    H6528451   7.815   0.930   7.388  3.0916  2.2700 -0.6340
   84MOL    H6628452   7.796   0.978   7.747 -0.3354 -0.5899  0.1071
   84MOL    H6728453   7.903   0.823   7.904 -1.5878 -0.2298  0.1902
   84MOL    H6828454   0.029   0.402   7.920 -2.0784 -0.7976  1.6216
   84MOL    H6928455   8.016   0.392   7.756 -2.0465  0.4113 -0.6759
   84MOL    C7028456   7.855   0.436   7.884 -0.7190 -0.4927 -0.4982
   84MOL    C7128457   7.824   0.474   8.030  0.0609  0.1338  0.3533
   84MOL    C7228458   7.701   0.539   0.024  0.3671  0.5609  0.4436
   84MOL    C7328459   7.687   0.606   0.146  0.6333  0.6432  0.0406
   84MOL    C7428460   7.785   0.598   0.242  0.2565  1.2318  0.7451
   84MOL    O7528461   7.775   0.662   0.362 -0.4315 -0.0921  0.3400
   84MOL    C7628462   7.900   0.521   0.219 -0.0696  0.6913 -0.1125
   84MOL    C7728463   7.923   0.459   0.098  0.5701  0.1993 -0.1041
   84MOL    C7828464   7.823   0.287   7.858  0.5124 -0.6691  0.4111
   84MOL    H7928465   7.802   0.498   7.812 -0.1341  2.2391  1.3699
   84MOL    H8028466   7.627   0.570   7.990  1.1244  1.2200 -0.0679
   84MOL    H8128467   7.595   0.661   0.162 -0.9005 -1.9716  0.5346
   84MOL    H8228468   7.710   0.729   0.347  1.0675  1.4584  0.7025
   84MOL    H8328469   7.976   0.521   0.296  0.2685 -0.4047 -0.4418
   84MOL    H8428470   8.024   0.423   0.086 -0.1486 -1.6515 -0.8492
   84MOL    H8528471   7.756   0.253   7.937 -1.6465  1.0363 -0.6318
   84MOL    H8628472   7.914   0.229   7.873  1.2951  0.0136 -1.5433
   84MOL    C8728473   7.762   0.248   7.716 -0.0201  0.2084 -0.0931
   84MOL    C8828474   7.772   0.096   7.711  0.5756 -0.3219  0.4602
   84MOL    C8928475   7.901   0.036   7.698  0.7893 -0.1079  0.5076
   84MOL    C9028476   7.907   7.933   7.682  0.7176  0.5475  0.4065
   84MOL    C9128477   7.791   7.861   7.675 -0.5818 -0.4939  0.9154
   84MOL    O9228478   7.799   7.729   7.645  0.2328  0.5725  0.0290
   84MOL    C9328479   7.663   7.920   7.698  0.2755  0.2793  0.1959
   84MOL    C9428480   7.657   0.023   7.716 -0.6217 -0.4446 -0.0171
   84MOL    C9528481   7.817   0.317   7.590  0.6373  0.0108 -0.0690
   84MOL    H9628482   7.656   0.274   7.719  1.0889  5.1804 -0.1643
   84MOL    H9728483   7.995   0.090   7.697  0.4198  0.5182 -0.5950
   84MOL    H9828484   8.005   7.890   7.674 -0.2485 -2.0135  1.8205
   84MOL    H9928485   7.877   7.718   7.592 -0.3247 -0.3480 -0.6061
   84MOL   H10028486   7.577   7.857   7.711  0.2926 -0.4880 -3.0360
   84MOL   H10128487   7.559   0.068   7.722  0.6499  2.3499  0.4109
   84MOL   H10228488   7.811   0.425   7.601  0.5998 -0.1037  1.1319
   84MOL   H10328489   7.923   0.291   7.585 -0.0639 -2.6204 -4.2308
   84MOL   C10428490   7.749   0.280   7.458  0.6519 -0.2376 -0.5102
   84MOL   C10528491   7.800   0.345   7.332  0.2476 -0.1939 -0.0523
   84MOL   C10628492   7.811   0.490   7.328  1.0028  0.1834  0.1891
   84MOL   C10728493   7.876   0.553   7.216 -0.2830  0.3046  0.0305
   84MOL   C10828494   7.912   0.476   7.105 -0.0129  1.1436 -0.0225
   84MOL   O10928495   7.970   0.543   7.000 -0.5627  0.3089  0.1870
   84MOL   C11028496   7.896   0.337   7.103  0.8654 -0.1364  0.0836
   84MOL   C11128497   7.842   0.274   7.218  0.1181  0.0371 -1.0203
   84MOL   C11228498   7.591   0.293   7.456  0.1720  0.3777 -0.0800
   84MOL   H11328499   7.764   0.173   7.440  2.1859 -0.2212  0.5565
   84MOL   H11428500   7.782   0.552   7.412  0.8673 -0.0053  0.2826
   84MOL   H11528501   7.895   0.659   7.218  3.8054 -0.2852 -1.4770
   84MOL   H11628502   7.983   0.478   6.933 -0.6887 -0.2699  0.7211
   84MOL   H11728503   7.915   0.277   7.016  0.0890 -1.4881  0.8219
   84MOL   H11828504   7.836   0.166   7.209 -0.3850  0.2563 -3.7866
   84MOL   H11928505   7.568   0.399   7.442 -1.2489  0.2578  1.1801
   84MOL   H12028506   7.550   0.251   7.547  0.6770 -1.5897 -0.7290
   84MOL   C12128507   7.520   0.209   7.344  0.2306 -0.0974 -0.9448
   84MOL   C12228508   7.493   0.060   7.382  0.1947 -0.5564 -0.4955
   84MOL   C12328509   7.390   0.026   7.466  0.6090  0.6129 -0.4286
   84MOL   C12428510   7.367   7.929   7.500  0.2023 -0.0165  0.3104
   84MOL   C12528511   7.452   7.826   7.446 -0.0512 -0.1805  0.6392
   84MOL   O12628512   7.425   7.699   7.479  0.5705  0.2979  0.0818
   84MOL   C12728513   7.556   7.867   7.365 -0.3512  0.6782  0.4306
   84MOL   C12828514   7.587   7.999   7.339  0.3536  0.0234  0.2874
   84MOL   C12928515   7.396   0.281   7.288  0.5046 -0.5071 -0.0825
   84MOL   H13028516   7.573   0.204   7.249  2.3502 -1.3153  0.2506
   84MOL   H13128517   7.328   0.098   7.516  1.2010  1.1872 -0.5215
   84MOL   H13228518   7.286   7.902   7.566  0.4623 -1.7460 -0.0635
   84MOL   H13328519   7.483   7.632   7.448 -0.2000  0.9571 -2.9459
   84MOL   H13428520   7.630   7.794   7.336  0.0040  0.8526  0.8956
   84MOL   H13528521   7.679   8.011   7.284 -0.5969 -0.8225 -1.5482
   84MOL   H13628522   7.411   0.387   7.270  2.5372 -0.8746 -0.6385
   84MOL   H13728523   7.316   0.285   7.363  1.3098  1.9381  0.7032
   84MOL   C13828524   7.340   0.203   7.166 -0.5269 -0.3685 -0.0419
   84MOL   C13928525   7.426   0.230   7.031  0.4267  0.2159  0.4073
   84MOL   C14028526   7.395   0.342   6.948 -0.5531 -0.5277 -0.4973
   84MOL   C14128527   7.466   0.364   6.827  0.5309 -0.7597  0.7811
   84MOL   C14228528   7.568   0.278   6.789  1.2803 -0.5113  0.5727
   84MOL   O14328529   7.638   0.298   6.677  0.3518 -0.2679  0.3413
   84MOL   C14428530   7.596   0.166   6.866  1.1558  0.0141 -0.8955
   84MOL   C14528531   7.519   0.136   6.985 -0.2982 -0.8630  0.7631
   84MOL   C14628532   7.188   0.216   7.157 -0.8090 -0.0037  0.2040
   84MOL   H14728533   7.367   0.098   7.178 -1.1777 -0.4387  0.8110
   84MOL   H14828534   7.317   0.411   6.980 -1.7461 -1.3716 -1.5272
   84MOL   H14928535   7.439   0.453   6.773  3.9616  2.2659  3.7839
   84MOL   H15028536   7.594   0.353   6.614 -0.3251 -1.5591 -0.3159
   84MOL   H15128537   7.680   0.103   6.837  0.9010 -0.7869  0.0735
   84MOL   H15228538   7.544   0.047   7.043  3.8763  0.2888  0.8993
   84MOL   H15328539   7.167   0.322   7.142 -1.4019  0.0364  1.3380
   84MOL   H15428540   7.148   0.199   7.256 -1.0576 -0.5656  0.0115
   84MOL   C15528541   7.109   0.128   7.050  0.3078  0.2040 -0.1468
   84MOL   C15628542   6.961   0.165   7.036  0.4540 -0.5627 -0.1104
   84MOL   C15728543   6.883   0.176   7.153 -0.1039  1.0300  0.8754
   84MOL   C15828544   6.747   0.216   7.143 -0.2631 -1.0850 -0.3559
   84MOL   C15928545   6.692   0.243   7.017  0.4410  0.0525 -0.2575
   84MOL   O16028546   6.561   0.285   7.012 -0.0280 -0.6228 -0.2763
   84MOL   C16128547   6.769   0.226   6.900  0.0533 -0.1749  0.1148
   84MOL   C16228548   6.906   0.187   6.907 -0.5399 -0.2485  0.2285
   84MOL   C16328549   7.127   8.014   7.069  0.4287  0.1123 -0.4968
   84MOL   H16428550   7.151   0.148   6.952  0.7648 -1.2695 -0.2543
   84MOL   H16528551   6.935   0.155   7.246 -0.4776  0.1688  0.8941
   84MOL   H16628552   6.697   0.230   7.238 -0.5603 -0.2563 -0.6319
   84MOL   H16728553   6.538   0.287   6.920  0.9394  1.3653 -0.4865
   84MOL   H16828554   6.730   0.241   6.801  2.6624 -0.3920 -0.9600
   84MOL   H16928555   6.967   0.167   6.821 -1.0696  2.3129 -0.7858
   84MOL   H17028556   7.050   7.982   7.139 -0.6560  0.0570 -1.7090
   84MOL   H17128557   7.220   7.988   7.120  0.2400 -1.3867 -0.8947
   84MOL   C17228558   7.118   7.938   6.934  0.4771 -0.7844  0.2025
   84MOL   C17328559   7.076   7.791   6.949  0.4702 -0.7117 -0.7293
   84MOL   C17428560   7.135   7.715   7.054 -0.2754 -0.1288  0.0674
   84MOL   C17528561   7.103   7.578   7.073  0.5052  0.2339  0.2597
   84MOL   C17628562   7.028   7.509   6.969 -0.7789  0.3155 -0.2531
   84MOL   O17728563   7.023   7.377   6.967 -0.2734 -1.0099 -0.1853
   84MOL   C17828564   6.965   7.589   6.874  0.2573  0.3239 -0.7939
   84MOL   C17928565   6.975   7.730   6.872  0.1886 -0.1416 -0.2387
   84MOL   C18028566   7.254   7.933   6.855  0.6674 -0.0840  0.2853
   84MOL   H18128567   7.043   7.987   6.872 -1.4977 -0.0414  3.1130
   84MOL   H18228568   7.202   7.761   7.125  1.3940 -2.2494 -0.0870
   84MOL   H18328569   7.145   7.516   7.151  1.8420  1.1517  0.2872
   84MOL   H18428570   7.052   7.340   7.049 -0.3582  0.7603  0.6504
   84MOL   H18528571   6.894   7.537   6.812  0.4285 -1.6581  0.6008
   84MOL   H18628572   6.915   7.779   6.797 -1.6652  1.4673  2.2032
   84MOL   H18728573   7.308   7.845   6.889 -0.4690 -0.5278  0.9730
   84MOL   H18828574   7.324   8.010   6.890  0.5686  0.4846 -0.7393
   84MOL   C18928575   7.250   7.952   6.698 -0.1977 -0.0739  0.2582
   84MOL   C19028576   7.172   0.035   6.653 -0.5191 -0.5859 -0.3958
   84MOL   C19128577   7.216   0.160   6.698 -0.1963 -0.4055 -0.1959
   84MOL   C19228578   7.167   0.281   6.654 -0.4045 -0.5082  0.4659
   84MOL   C19328579   7.050   0.281   6.575 -0.1655 -0.2115 -0.2907
   84MOL   O19428580   6.982   0.389   6.535  0.2369 -1.1123  0.1161
   84MOL   C19528581   6.992   0.157   6.528 -0.6632  0.2690 -0.1131
   84MOL   C19628582   7.058   0.037   6.566  0.3837 -0.1578 -0.5833
   84MOL   C19728583   7.395   7.952   6.637  0.3168 -0.0817  0.4939
   84MOL   H19828584   7.205   7.855   6.675  1.5287 -1.2168  1.4832
   84MOL   H19928585   7.293   0.159   6.774  1.1827 -0.9015 -1.5691
   84MOL   H20028586   7.210   0.373   6.693 -1.4047 -0.4840  1.5506
   84MOL   H20128587   7.008   0.473   6.569  4.2925 -1.1619 -2.5479
   84MOL   H20228588   6.904   0.153   6.465 -0.7456 -1.4618  0.0945
   84MOL   H20328589   7.012   7.981   6.537 -1.9454  0.4427  0.9856
   84MOL   H20428590   7.463   7.883   6.687  2.1721  0.9626 -0.5240
   84MOL   H20528591   7.433   0.015   6.658 -1.5396  0.6780  0.2607
   84MOL   C20628592   7.430   7.918   6.488 -0.7512  0.1145 -0.3386
   84MOL   C20728593   7.563   7.987   6.459 -0.8322 -0.1246 -0.1700
   84MOL   C20828594   7.561   0.065   6.386  0.5929  0.1516 -0.8006
   84MOL   C20928595   7.680   0.119   6.341 -0.5584  0.2365  0.6814
   84MOL   C21028596   7.806   0.061   6.368 -0.0676  0.3721  0.2216
   84MOL   O21128597   7.919   0.115   6.315 -0.4057  0.7365  0.1802
   84MOL   C21228598   7.811   7.971   6.437 -0.4667 -0.7897  0.3692
   84MOL   C21328599   7.691   7.915   6.481 -0.1191 -0.1378  0.1218
   84MOL   C21428600   7.317   7.924   6.389  0.5476 -0.1568  0.0798
   84MOL   H21528601   7.459   7.813   6.495 -1.3003 -0.0140  0.0420
   84MOL   H21628602   7.477   0.128   6.359 -0.3906  0.0184  1.8019
   84MOL   H21728603   7.677   0.216   6.292 -1.9880 -0.2992 -0.3304
   84MOL   H21828604   7.902   0.187   6.256  0.1655  0.6840 -0.0494
   84MOL   H21928605   7.910   7.932   6.456 -0.4576 -0.0474  1.9464
   84MOL   H22028606   7.690   7.830   6.547 -2.2666 -1.3073 -1.3642
   84MOL   H22128607   7.295   8.030   6.385 -0.2658 -0.2603  1.6015
   84MOL   H22228608   7.225   7.869   6.412 -1.4418  3.3236  0.7238
   84MOL   C22328609   7.355   7.870   6.249 -0.3999 -0.4966  1.2442
   84MOL   C22428610   7.272   7.939   6.137 -0.3287  0.1431  0.0829
   84MOL   C22528611   7.298   0.035   6.113 -0.6439 -0.5688 -0.1733
   84MOL   C22628612   7.216   0.098   6.017 -0.6731 -0.2445 -0.2469
   84MOL   C22728613   7.115   0.032   5.954 -0.1343 -0.3175 -0.2642
   84MOL   O22828614   7.020   0.103   5.884 -0.0194 -0.1448  0.3573
   84MOL   C22928615   7.084   7.937   5.981 -0.4212 -0.4815  0.1059
   84MOL   C23028616   7.159   7.873   6.085 -0.1407 -0.1848  0.2292
   84MOL   C23128617   7.357   7.720   6.238  0.1443 -0.0838 -0.1673
   84MOL   H23228618   7.462   7.895   6.245 -0.7877  1.1304  0.7417
   84MOL   H23328619   7.373   0.085   6.172 -2.1523  1.3479  0.1506
   84MOL   H23428620   7.225   0.205   5.999  0.6641 -0.0901  1.2152
   84MOL   H23528621   7.044   0.191   5.862 -1.2904 -0.1247 -1.0506
   84MOL   H23628622   6.995   7.890   5.942 -0.5627 -0.6551  0.6268
   84MOL   H23728623   7.131   7.773   6.118  0.2373 -1.0016 -1.8808
   84MOL   H23828624   7.408   7.671   6.321  0.4966 -2.7236 -1.8968
   84MOL   H23928625   7.255   7.681   6.235  0.5989 -1.2682 -0.1922
   84MOL   C24028626   7.416   7.668   6.109  0.5090 -0.0980 -0.7845
   84MOL   C24128627   7.566   7.702   6.102  0.9857 -0.4661 -0.0399
   84MOL   C24228628   7.660   7.633   6.178 -0.4812  0.1223  0.0853
   84MOL   C24328629   7.796   7.679   6.194 -0.2986 -0.0109  0.3274
   84MOL   C24428630   7.833   7.805   6.128  0.6432  1.0412  0.5473
   84MOL   O24528631   7.953   7.865   6.165 -0.3250  0.2432  0.5029
   84MOL   C24628632   7.738   7.868   6.041 -0.3819 -0.6673  0.0786
   84MOL   C24728633   7.606   7.818   6.031  0.3891  0.4184  0.7110
   84MOL   C24828634   7.390   7.518   6.093  0.5682 -0.3740  0.8206
   84MOL   H24928635   7.360   7.713   6.027 -1.8051  0.9906  1.3107
   84MOL   H25028636   7.618   7.545   6.225 -0.0833 -0.3937 -0.5182
   84MOL   H25128637   7.870   7.629   6.255 -0.7580  1.5287  2.1927
   84MOL   H25228638   7.934   7.952   6.197 -2.1061 -0.1463  0.5577
   84MOL   H25328639   7.772   7.954   5.985 -0.1500 -1.3146 -0.7820
   84MOL   H25428640   7.535   7.881   5.980 -0.2436 -1.3841 -0.6928
   84MOL   H25528641   7.438   7.467   6.176 -1.9531  1.9723  3.8231
   84MOL   H25628642   7.287   7.487   6.108  0.1301  0.6539 -0.0449
   84MOL   C25728643   7.432   7.458   5.958 -0.2676 -0.5732  0.3418
   84MOL   C25828644   7.467   7.311   5.959  0.2395 -0.1715 -0.0564
   84MOL   C25928645   7.368   7.211   6.000  0.1579  0.5406 -0.0381
   84MOL   C26028646   7.395   7.077   5.970 -1.2620 -0.3174 -0.6303
   84MOL   C26128647   7.521   7.042   5.919  0.1792  0.2952  0.2779
   84MOL   O26228648   7.548   6.910   5.899 -0.2618  0.3117 -0.0885
   84MOL   C26328649   7.617   7.136   5.892  0.2430 -0.3052 -0.2960
   84MOL   C26428650   7.592   7.272   5.918  1.0181 -0.3821 -0.6029
   84MOL   C26528651   7.338   7.493   5.846 -0.4991 -0.4262  0.1555
   84MOL   H26628652   7.523   7.512   5.931 -0.8611  0.3662  0.1913
   84MOL   H26728653   7.267   7.228   6.034 -0.1612  0.6673 -1.0381
   84MOL   H26828654   7.320   7.001   5.981  0.8505 -2.4526 -0.5476
   84MOL   H26928655   7.594   6.907   5.816 -0.3837  0.5009 -0.1651
   84MOL   H27028656   7.715   7.108   5.857  1.0005  2.6133 -0.6491
   84MOL   H27128657   7.669   7.341   5.888 -1.9225  2.4606 -1.9295
   84MOL   H27228658   7.285   7.587   5.856  0.6746  0.1030  1.7314
   84MOL   H27328659   7.257   7.420   5.849  0.6554 -1.8166 -1.4090
   84MOL   C27428660   7.408   7.511   5.706  0.3367 -0.0527 -0.1313
   84MOL   C27528661   7.506   7.624   5.689  0.3366  0.7851 -0.1286
   84MOL   C27628662   7.646   7.593   5.673 -0.1890 -0.6683  0.3084
   84MOL   C27728663   7.743   7.691   5.655 -0.0349  0.2306 -0.5664
   84MOL   C27828664   7.702   7.826   5.667  1.0792  0.5273  0.2537
   84MOL   O27928665   7.793   7.929   5.659 -0.3989 -0.4853 -0.4239
   84MOL   C28028666   7.565   7.854   5.682  0.4521 -0.0583  0.2122
   84MOL   C28128667   7.464   7.759   5.696 -0.2083 -0.0151 -0.4166
   84MOL   C28228668   7.301   7.534   5.592  0.2796 -0.2762  0.1729
   84MOL   H28328669   7.458   7.417   5.685 -0.3317 -0.4350 -0.0347
   84MOL   H28428670   7.679   7.490   5.666 -1.2687 -0.9855 -0.0870
   84MOL   H28528671   7.847   7.665   5.637 -0.2443 -0.4167 -0.8386
   84MOL   H28628672   7.882   7.901   5.678  0.6911  0.4001 -3.9829
   84MOL   H28728673   7.540   7.957   5.701  1.2875  0.3522 -0.8605
   84MOL   H28828674   7.359   7.779   5.709 -0.1259  1.3919 -1.7430
   84MOL   H28928675   7.231   7.613   5.621  0.3916  0.2216 -0.8858
   84MOL   H29028676   7.360   7.565   5.505 -1.0924 -0.2208 -0.7611
   84MOL   C29128677   7.216   7.408   5.555 -0.1838  0.4087 -0.1271
   84MOL   C29228678   7.308   7.296   5.513 -0.1709  0.2410  0.0368
   84MOL   C29328679   7.372   7.309   5.383 -0.6289  0.3730 -0.1610
   84MOL   C29428680   7.465   7.215   5.340  0.0972 -0.2738  0.3208
   84MOL   C29528681   7.499   7.111   5.425  0.4065  0.1588 -0.1922
   84MOL   O29628682   7.586   7.015   5.383 -0.3559  0.1570  0.2080
   84MOL   C29728683   7.427   7.090   5.545 -0.5121  0.0906  0.6599
   84MOL   C29828684   7.333   7.178   5.586 -0.0709 -0.1217  0.2585
   84MOL   C29928685   7.107   7.438   5.450 -0.1008 -0.0442 -0.1651
   84MOL   H30028686   7.153   7.373   5.637 -0.5679  0.6898 -0.3045
   84MOL   H30128687   7.335   7.389   5.321  2.0799  1.8753  0.0965
   84MOL   H30228688   7.502   7.218   5.239 -0.9577  1.2582 -0.0380
   84MOL   H30328689   7.630   7.040   5.303 -0.5050 -0.1023  0.0434
   84MOL   H30428690   7.442   7.001   5.605 -1.0924  2.1644  4.0465
   84MOL   H30528691   7.281   7.163   5.680 -0.3177  1.8292  0.4572
   84MOL   H30628692   7.070   7.341   5.417  1.2857 -0.7132  0.2138
   84MOL   H30728693   7.139   7.483   5.356 -0.4756 -2.1602 -1.3453
   84MOL   C30828694   6.981   7.510   5.510  0.0666 -0.0651  0.5827
   84MOL   C30928695   6.846   7.456   5.467  0.8684  0.0646  0.1026
   84MOL   C31028696   6.753   7.397   5.553 -0.1220  0.1191  0.0838
   84MOL   C31128697   6.634   7.345   5.508 -0.2832 -0.1201 -0.0375
   84MOL   C31228698   6.596   7.360   5.377 -0.8754 -0.4135  0.2802
   84MOL   O31328699   6.482   7.315   5.328  0.6692 -0.4915 -0.5234
   84MOL   C31428700   6.682   7.424   5.286 -0.3725  0.5500 -0.0112
   84MOL   C31528701   6.808   7.471   5.334  0.4234 -0.4823  0.6430
   84MOL   C31628702   6.991   7.661   5.477  0.0541 -0.6449  0.4639
   84MOL   H31728703   6.972   7.487   5.616 -3.2473  0.5239  0.4895
   84MOL   H31828704   6.781   7.381   5.656 -0.8420  0.4422  0.3297
   84MOL   H31928705   6.574   7.281   5.570 -1.9304  0.6327 -0.8406
   84MOL   H32028706   6.420   7.290   5.395  1.1204  0.1755  0.1481
   84MOL   H32128707   6.652   7.434   5.183 -0.8984 -1.4557 -0.0738
   84MOL   H32228708   6.879   7.510   5.262 -1.2557 -0.0297 -0.8144
   84MOL   H32328709   6.975   7.677   5.370 -2.4270 -2.9369  0.4571
   84MOL   H32428710   7.091   7.702   5.495  0.0893  1.1174 -3.2931
   84MOL   C32528711   6.890   7.745   5.560  0.1945 -1.0765  0.8617
   84MOL   C32628712   6.890   7.898   5.532  0.3130 -0.3413  1.3542
   84MOL   C32728713   6.794   7.948   5.448 -0.1719  0.5381 -0.3630
   84MOL   C32828714   6.813   0.044   5.409 -0.2779  0.4202  0.1662
   84MOL   C32928715   6.918   0.130   5.454  0.1234 -0.2398  0.0328
   84MOL   O33028716   6.920   0.265   5.421  0.4024  0.2574 -0.3596
   84MOL   C33128717   7.002   0.074   5.548 -0.1857  0.2660  0.0508
   84MOL   C33228718   6.988   7.983   5.586  0.0143 -0.1458  0.1920
   84MOL   C33328719   6.915   7.714   5.709 -0.2344 -0.2020 -0.4726
   84MOL   H33428720   6.788   7.720   5.530  0.0479  1.4708 -0.9583
   84MOL   H33528721   6.717   7.902   5.387 -1.0602 -0.0215  1.1625
   84MOL   H33628722   6.735   0.085   5.347 -0.8960 -1.2338 -0.1701
   84MOL   H33728723   7.006   0.304   5.424 -0.0884  1.2317  1.1800
   84MOL   H33828724   7.075   0.138   5.595 -0.2197 -0.7370  1.4892
   84MOL   H33928725   7.055   7.938   5.658  0.0599  0.5638  0.6040
   84MOL   H34028726   6.874   7.779   5.786  1.2472 -0.6613  0.7495
   84MOL   H34128727   7.022   7.705   5.730 -0.7071 -2.2823  1.3525
   84MOL   H34228728   6.878   7.617   5.742 -0.2709 -0.4894 -1.3548
   85MOL     C128729   7.717   2.195   6.739  0.3791  0.5778 -0.6256
   85MOL     C228730   7.832   2.152   6.837 -0.5349  0.0987 -0.0641
   85MOL     C328731   7.933   2.065   6.786  0.0496  0.0270  0.2686
   85MOL     C428732   8.037   2.026   6.874  0.1889  0.3192  0.3585
   85MOL     C528733   8.036   2.065   7.010  0.3425 -0.0350  0.6227
   85MOL     O628734   0.090   2.010   7.095 -0.3251 -0.1582  0.4823
   85MOL     C728735   7.941   2.159   7.058 -0.8255  0.3341 -0.0463
   85MOL     C828736   7.833   2.201   6.974  0.0383  1.0332 -0.6643
   85MOL     C928737   7.581   2.191   6.805  0.8585 -0.2116  0.3475
   85MOL    H1028738   7.718   2.301   6.715  1.4928  1.4455  2.9136
   85MOL    H1128739   7.939   2.037   6.682  0.3625  1.3379 -0.0770
   85MOL    H1228740   0.058   1.946   6.833 -2.0041 -1.0569 -0.1731
   85MOL    H1328741   0.069   2.037   7.182  1.7630  0.0222  0.9507
   85MOL    H1428742   7.953   2.188   7.161  2.9481  1.4561 -0.7143
   85MOL    H1528743   7.762   2.274   7.010 -0.4053  0.0467  0.5089
   85MOL    H1628744   7.576   2.282   6.864 -0.9517 -0.8063  1.1554
   85MOL    H1728745   7.579   2.113   6.882  1.6733  0.9565  1.5638
   85MOL    H1828746   7.723   2.126   6.655 -1.8925 -1.4720  0.7956
   85MOL    C1928747   7.454   2.174   6.723  0.7971 -0.3124  0.5337
   85MOL    C2028748   7.412   2.035   6.673  0.2796 -0.2955 -0.0627
   85MOL    C2128749   7.377   1.937   6.771 -0.1731  0.2463  0.4516
   85MOL    C2228750   7.315   1.815   6.737 -0.2822  0.5550  0.7997
   85MOL    C2328751   7.296   1.781   6.600 -0.2788 -0.0899 -1.0515
   85MOL    O2428752   7.242   1.662   6.560  0.5808 -0.2964  0.1577
   85MOL    C2528753   7.335   1.879   6.506  0.5758  0.3078 -0.0897
   85MOL    C2628754   7.394   2.004   6.541  0.4062 -0.3903 -0.2681
   85MOL    C2728755   7.428   2.291   6.627  0.8451 -0.1403  0.1855
   85MOL    H2828756   7.364   2.193   6.782  0.6254 -0.5234  0.3402
   85MOL    H2928757   7.390   1.967   6.874  1.3496  3.7358 -0.6617
   85MOL    H3028758   7.285   1.750   6.818 -0.1683 -0.5610 -0.0310
   85MOL    H3128759   7.219   1.661   6.468  3.1129 -3.1782 -0.5614
   85MOL    H3228760   7.325   1.856   6.401 -0.0229 -0.0541  0.0440
   85MOL    H3328761   7.422   2.072   6.462 -2.7367 -0.3679 -1.4387
   85MOL    H3428762   7.331   2.267   6.582  1.2633  1.8959 -1.8661
   85MOL    H3528763   7.500   2.293   6.546  0.3041 -1.6125 -0.3682
   85MOL    C3628764   7.443   2.433   6.689 -0.1647  0.6655  0.0860
   85MOL    C3728765   7.364   2.473   6.817 -0.7043 -0.1498 -0.4431
   85MOL    C3828766   7.229   2.440   6.833  0.1558  0.1560 -0.5983
   85MOL    C3928767   7.161   2.467   6.955  0.2098 -0.7496  0.5615
   85MOL    C4028768   7.222   2.541   7.058  0.4761 -0.7551 -0.5193
   85MOL    O4128769   7.146   2.584   7.163 -0.2209 -0.2379  0.3300
   85MOL    C4228770   7.360   2.569   7.054  0.0007  0.4093  0.0746
   85MOL    C4328771   7.429   2.531   6.933 -0.3919 -0.1772 -0.1562
   85MOL    C4428772   7.400   2.544   6.582 -0.5868 -0.3253 -0.2811
   85MOL    H4528773   7.549   2.444   6.712 -0.4408  2.6892  0.5167
   85MOL    H4628774   7.186   2.383   6.752  0.6804 -3.4758  1.5887
   85MOL    H4728775   7.056   2.441   6.953 -0.8351  3.2476 -1.5526
   85MOL    H4828776   7.105   2.519   7.217 -1.1486 -0.2012 -0.3220
   85MOL    H4928777   7.402   2.631   7.131  0.7922 -2.4212  2.0260
   85MOL    H5028778   7.535   2.549   6.924 -0.3524 -0.2544  0.1796
   85MOL    H5128779   7.433   2.505   6.486 -0.0012 -0.4860 -0.0152
   85MOL    H5228780   7.292   2.551   6.569 -0.4692  3.2049  0.3028
   85MOL    C5328781   7.456   2.689   6.597  0.4726 -0.4875  0.6419
   85MOL    C5428782   7.607   2.693   6.624  0.5163 -0.3044  1.0794
   85MOL    C5528783   7.698   2.628   6.535 -0.1692  0.1033 -0.5213
   85MOL    C5628784   7.834   2.638   6.554 -0.6763 -0.8123 -0.5987
   85MOL    C5728785   7.883   2.712   6.662  0.3876 -0.1604  0.7381
   85MOL    O5828786   8.017   2.720   6.671  0.0080 -0.7745  0.0094
   85MOL    C5928787   7.794   2.771   6.751  0.4857 -0.1450 -0.0123
   85MOL    C6028788   7.658   2.767   6.740 -0.8924  0.8823 -0.0858
   85MOL    C6128789   7.406   2.775   6.480  0.1722  0.2903  0.1076
   85MOL    H6228790   7.408   2.728   6.687 -0.6406  0.4860 -0.3632
   85MOL    H6328791   7.658   2.571   6.452  0.5182 -0.2307 -0.6306
   85MOL    H6428792   7.911   2.585   6.499  0.3659 -0.6785  0.7022
   85MOL    H6528793   0.027   2.748   6.747  0.8358 -1.6402 -0.1869
   85MOL    H6628794   7.834   2.830   6.832  1.4280  0.6628 -1.0602
   85MOL    H6728795   7.585   2.809   6.807 -1.3951  0.4714 -0.3742
   85MOL    H6828796   7.300   2.794   6.500  0.5804  0.9578  1.7023
   85MOL    H6928797   7.405   2.720   6.386  0.4168  1.1849 -0.4254
   85MOL    C7028798   7.465   2.912   6.445  0.1046  0.0273 -0.9226
   85MOL    C7128799   7.488   3.007   6.558 -0.3830  0.1114 -0.2354
   85MOL    C7228800   7.608   3.083   6.580  0.5413  0.2163 -0.2323
   85MOL    C7328801   7.616   3.174   6.687  0.0191 -0.0983  0.0947
   85MOL    C7428802   7.512   3.192   6.776 -0.2596  1.0680  0.4953
   85MOL    O7528803   7.519   3.284   6.876  0.4161  0.4727 -0.8014
   85MOL    C7628804   7.397   3.109   6.762  0.3850 -0.2621  0.7376
   85MOL    C7728805   7.387   3.014   6.656  0.1024 -0.5513  0.4332
   85MOL    C7828806   7.413   2.975   6.321 -0.0321  0.1650 -0.3201
   85MOL    H7928807   7.567   2.883   6.419  1.0899  2.0269  0.5914
   85MOL    H8028808   7.694   3.067   6.516  1.2965 -2.0383  1.3272
   85MOL    H8128809   7.708   3.225   6.712 -0.5135  1.2691 -0.6861
   85MOL    H8228810   7.437   3.290   6.922 -1.1754 -4.5323 -2.6093
   85MOL    H8328811   7.311   3.118   6.827  0.2897 -0.9130  0.7007
   85MOL    H8428812   7.296   2.960   6.636  0.5891 -0.7951 -1.1626
   85MOL    H8528813   7.413   2.902   6.241 -0.0032  0.0685 -0.2326
   85MOL    H8628814   7.488   3.051   6.299 -1.3741  1.7714  0.5239
   85MOL    C8728815   7.264   3.026   6.325 -0.0100 -0.5124  0.8629
   85MOL    C8828816   7.153   2.928   6.355 -0.5119 -0.8658  0.5720
   85MOL    C8928817   7.068   2.943   6.470 -0.2561 -0.1701  0.0396
   85MOL    C9028818   6.955   2.858   6.480  0.4947  0.2465  0.2013
   85MOL    C9128819   6.927   2.754   6.389 -0.3443  0.0019 -0.2712
   85MOL    O9228820   6.827   2.663   6.412 -0.2840 -0.0850  0.4489
   85MOL    C9328821   7.005   2.750   6.274  0.0876 -1.0439 -0.3797
   85MOL    C9428822   7.118   2.838   6.254  0.0335  0.7973 -0.5430
   85MOL    C9528823   7.228   3.105   6.196  0.4194  0.2589 -0.4451
   85MOL    H9628824   7.255   3.094   6.409  0.3466 -0.3077  0.7396
   85MOL    H9728825   7.091   3.020   6.542 -4.7540  0.2291  1.1943
   85MOL    H9828826   6.884   2.878   6.559 -0.1866 -0.3655 -0.2458
   85MOL    H9928827   6.798   2.652   6.501 -0.5266  1.8010  0.6317
   85MOL   H10028828   6.993   2.673   6.199 -0.3748 -0.6098 -0.7561
   85MOL   H10128829   7.161   2.829   6.156 -1.0902 -0.7327 -0.8973
   85MOL   H10228830   7.220   3.038   6.110  2.4835 -1.5002  0.6749
   85MOL   H10328831   7.132   3.156   6.208  0.4631  0.0296  1.0913
   85MOL   C10428832   7.324   3.222   6.156  0.7127  0.6124  0.3509
   85MOL   C10528833   7.432   3.180   6.059  0.8748 -0.4879  0.1668
   85MOL   C10628834   7.568   3.166   6.092  0.5316 -0.2782 -0.3020
   85MOL   C10728835   7.656   3.137   5.989 -0.0173  0.6010 -0.2824
   85MOL   C10828836   7.620   3.101   5.859  0.2843  0.2410  0.0405
   85MOL   O10928837   7.708   3.057   5.761  0.0715 -0.3853  0.5250
   85MOL   C11028838   7.486   3.118   5.822  0.9729  0.0296 -0.5459
   85MOL   C11128839   7.388   3.149   5.921  0.1394  1.3499  0.0764
   85MOL   C11228840   7.360   3.316   6.272 -0.5195 -0.4119  0.0973
   85MOL   H11328841   7.260   3.284   6.092 -1.0284  0.2061  1.6768
   85MOL   H11428842   7.618   3.187   6.186  3.2034  1.7158 -2.0936
   85MOL   H11528843   7.759   3.122   6.022  0.1865  3.1396  0.2970
   85MOL   H11628844   7.664   3.037   5.680  2.8802 -1.6150 -0.7402
   85MOL   H11728845   7.449   3.103   5.722  0.3483 -0.0378 -0.3109
   85MOL   H11828846   7.285   3.158   5.889  0.0650  2.8147  0.6663
   85MOL   H11928847   7.427   3.259   6.337  1.2505  0.9962 -0.4697
   85MOL   H12028848   7.274   3.327   6.338  1.1463 -2.1170  2.6634
   85MOL   C12128849   7.414   3.455   6.225 -0.0236  0.4762  0.4108
   85MOL   C12228850   7.311   3.550   6.165 -1.1413  0.2333  0.5253
   85MOL   C12328851   7.212   3.617   6.235  0.9765  0.1381 -0.0505
   85MOL   C12428852   7.115   3.700   6.170 -0.0659  0.1726  0.5023
   85MOL   C12528853   7.122   3.712   6.030  0.2202  0.1560  0.1614
   85MOL   O12628854   7.031   3.785   5.958 -0.4651  0.0167 -0.0002
   85MOL   C12728855   7.217   3.639   5.951  0.0317 -0.5201 -0.3459
   85MOL   C12828856   7.308   3.563   6.022 -0.0081  0.6307 -0.5949
   85MOL   C12928857   7.467   3.515   6.354  0.5178 -0.3072  0.0826
   85MOL   H13028858   7.491   3.445   6.148 -0.9008 -1.4460 -0.2612
   85MOL   H13128859   7.205   3.593   6.340 -1.4770 -0.9905 -0.4395
   85MOL   H13228860   7.041   3.754   6.228 -2.0966 -1.1651 -0.7578
   85MOL   H13328861   6.948   3.791   6.002 -0.3514 -0.4960  0.2820
   85MOL   H13428862   7.200   3.631   5.845 -1.5690 -1.6266 -0.0141
   85MOL   H13528863   7.373   3.500   5.964 -1.8007  0.3294 -2.3206
   85MOL   H13628864   7.530   3.440   6.401  1.5902  0.3080 -0.3721
   85MOL   H13728865   7.392   3.535   6.431  1.6519  0.5780  0.9623
   85MOL   C13828866   7.555   3.639   6.346 -0.2555  0.1522 -0.5115
   85MOL   C13928867   7.671   3.613   6.245 -0.0012  0.1311  0.1038
   85MOL   C14028868   7.681   3.718   6.150  0.3962  0.1529  0.3602
   85MOL   C14128869   7.769   3.713   6.040 -0.1563 -0.0258  0.1599
   85MOL   C14228870   7.851   3.597   6.027  0.3806  0.2335 -0.7347
   85MOL   O14328871   7.925   3.588   5.917 -0.2448 -0.8037  0.0911
   85MOL   C14428872   7.840   3.493   6.125 -0.7486  0.0262 -0.2206
   85MOL   C14528873   7.755   3.497   6.236 -0.2382 -0.6815 -0.1628
   85MOL   C14628874   7.603   3.694   6.482 -0.3876 -0.4215  0.2676
   85MOL   H14728875   7.488   3.712   6.303 -0.3539  1.4720  1.7932
   85MOL   H14828876   7.614   3.804   6.150  0.8720  0.5326 -1.1772
   85MOL   H14928877   7.768   3.791   5.965  1.7016 -1.5321 -1.4628
   85MOL   H15028878   7.948   3.505   5.876  3.4433  0.2566 -0.1536
   85MOL   H15128879   7.897   3.404   6.103  0.3734  0.3905  1.1098
   85MOL   H15228880   7.770   3.414   6.302  2.4290 -0.9856 -1.0694
   85MOL   H15328881   7.666   3.619   6.529 -1.7113 -1.8629 -0.2207
   85MOL   H15428882   7.520   3.701   6.554 -1.1536  1.5410 -0.7480
   85MOL   C15528883   7.678   3.835   6.466 -0.5742 -0.1080 -0.1503
   85MOL   C15628884   7.761   3.890   6.580  0.1635  0.2692 -0.5287
   85MOL   C15728885   7.690   3.938   6.694 -0.1696  0.7487 -0.2195
   85MOL   C15828886   7.753   3.965   6.815  0.2420 -0.4253  0.2316
   85MOL   C15928887   7.896   3.960   6.813 -0.2412 -0.0103 -0.2298
   85MOL   O16028888   7.976   3.982   6.922 -0.0474  0.7520  0.1040
   85MOL   C16128889   7.970   3.949   6.698  0.2486 -0.1297 -0.2861
   85MOL   C16228890   7.904   3.905   6.583  0.5344  0.5427  0.5901
   85MOL   C16328891   7.579   3.948   6.426  0.6840  0.6110  0.5247
   85MOL   H16428892   7.751   3.823   6.385  0.0278  2.1932  0.0135
   85MOL   H16528893   7.582   3.930   6.705  0.1982 -3.1272  1.5741
   85MOL   H16628894   7.696   3.991   6.902  1.2095 -2.2185  1.4380
   85MOL   H16728895   7.920   3.994   6.998 -0.7883 -0.9197 -0.1504
   85MOL   H16828896   0.040   3.942   6.696  0.2922  0.8193 -2.4077
   85MOL   H16928897   7.967   3.885   6.498  0.7285 -2.2335  1.3313
   85MOL   H17028898   7.529   3.990   6.514 -0.2312 -1.5855  1.0875
   85MOL   H17128899   7.492   3.913   6.370 -0.0094  2.0136  0.7000
   85MOL   C17228900   7.650   4.073   6.357 -0.6214 -0.3020 -0.0272
   85MOL   C17328901   7.550   4.192   6.338 -0.2589 -0.0257  0.0012
   85MOL   C17428902   7.543   4.298   6.432 -0.2348  0.1626 -0.0170
   85MOL   C17528903   7.469   4.415   6.411 -0.0469  0.0696 -0.2665
   85MOL   C17628904   7.380   4.422   6.301 -0.8632 -0.2981  0.2755
   85MOL   O17728905   7.286   4.518   6.290  0.2267 -0.3121 -0.2281
   85MOL   C17828906   7.390   4.316   6.208 -0.3856 -0.3653 -0.2895
   85MOL   C17928907   7.469   4.201   6.229 -0.2025 -0.9508  0.0721
   85MOL   C18028908   7.728   4.047   6.225 -0.5957 -0.5047  0.3824
   85MOL   H18128909   7.731   4.111   6.420  0.9585 -3.8556  0.2411
   85MOL   H18228910   7.609   4.289   6.517 -0.2852 -2.0270 -0.1782
   85MOL   H18328911   7.470   4.490   6.489  2.3931 -1.3220  1.1106
   85MOL   H18428912   7.292   4.590   6.351 -2.1755 -0.4404  0.2386
   85MOL   H18528913   7.333   4.339   6.120 -1.1947  1.5975  0.7102
   85MOL   H18628914   7.467   4.138   6.141  2.3299 -0.1069 -0.6210
   85MOL   H18728915   7.660   4.027   6.142  0.7260  0.4960 -0.9859
   85MOL   H18828916   7.779   3.952   6.231 -3.1958 -2.3143 -3.5843
   85MOL   C18928917   7.835   4.142   6.184  0.3239 -0.3552 -0.5076
   85MOL   C19028918   7.973   4.116   6.258  0.3916 -0.2234  0.4764
   85MOL   C19128919   0.036   4.022   6.213  0.2884  0.2301  0.0697
   85MOL   C19228920   0.160   4.011   6.287  0.6013 -0.3641 -0.9900
   85MOL   C19328921   0.184   4.088   6.399  0.4657 -0.5070 -0.8271
   85MOL   O19428922   0.311   4.084   6.454 -0.0768 -0.0164 -0.4109
   85MOL   C19528923   0.085   4.172   6.444 -0.2545  0.0852 -0.0242
   85MOL   C19628924   8.001   4.193   6.376  0.0040  0.4258 -0.7794
   85MOL   C19728925   7.845   4.151   6.034  0.6100 -0.0852 -0.0468
   85MOL   H19828926   7.812   4.244   6.214  1.3106  0.3256 -2.0062
   85MOL   H19928927   0.028   3.967   6.120 -0.9026  0.2755  0.1335
   85MOL   H20028928   0.238   3.940   6.266 -2.5694 -4.4854  0.6633
   85MOL   H20128929   0.322   4.140   6.530 -0.3883  0.9701 -1.0792
   85MOL   H20228930   0.104   4.238   6.527 -0.2231 -1.2938  1.0842
   85MOL   H20328931   7.935   4.273   6.406  2.0141  1.6675  0.4610
   85MOL   H20428932   7.756   4.192   5.986  1.0403 -0.1068 -0.8783
   85MOL   H20528933   7.842   4.054   5.984 -0.0162 -0.6152  1.0075
   85MOL   C20628934   7.972   4.220   5.973  0.1662  0.3447 -0.1931
   85MOL   C20728935   8.003   4.357   6.038 -0.1303  0.1203 -0.1555
   85MOL   C20828936   7.903   4.454   6.050  0.4091  0.2444 -0.2689
   85MOL   C20928937   7.933   4.577   6.102 -0.2392  0.7627 -0.5141
   85MOL   C21028938   0.026   4.603   6.157  0.1257  0.0414  0.0489
   85MOL   O21128939   0.051   4.730   6.213 -0.2822 -0.6048  0.0725
   85MOL   C21228940   0.126   4.505   6.153 -0.5137 -0.6780 -0.2728
   85MOL   C21328941   0.089   4.375   6.104  0.2636 -0.5649 -0.1062
   85MOL   C21428942   7.953   4.251   5.824 -0.2670  0.0788  0.3589
   85MOL   H21528943   0.020   4.153   5.982  0.5792  0.9851  0.6411
   85MOL   H21628944   7.801   4.443   6.017 -0.1957  0.5692  1.4371
   85MOL   H21728945   7.868   4.663   6.094 -4.1156 -1.8270  1.6594
   85MOL   H21828946   0.090   4.709   6.296 -0.4828  0.4448  0.4434
   85MOL   H21928947   0.221   4.526   6.201 -1.0503  2.3139 -0.4172
   85MOL   H22028948   0.159   4.292   6.101 -3.5893 -3.9769 -0.1038
   85MOL   H22128949   8.035   4.310   5.783 -0.9360 -0.1834 -1.3774
   85MOL   H22228950   7.870   4.319   5.805 -0.4356  0.3674  2.0338
   85MOL   C22328951   7.950   4.119   5.745 -0.3548 -0.3426 -0.0730
   85MOL   C22428952   0.037   4.029   5.777 -0.6969 -0.0809 -0.0777
   85MOL   C22528953   0.166   4.069   5.737 -0.1627  0.0203 -0.7834
   85MOL   C22628954   0.279   4.005   5.787  0.2241 -0.5195 -0.4141
   85MOL   C22728955   0.262   3.886   5.862  0.0240  0.0803 -0.7630
   85MOL   O22828956   0.371   3.815   5.904  0.1752  0.1541  0.2433
   85MOL   C22928957   0.132   3.839   5.897  0.3364 -0.0084 -0.1558
   85MOL   C23028958   0.024   3.915   5.857  0.5488 -0.4279 -0.0444
   85MOL   C23128959   7.956   4.159   5.598 -0.6049 -0.2377 -0.4539
   85MOL   H23228960   7.859   4.068   5.776 -0.1194  0.0877  1.3702
   85MOL   H23328961   0.174   4.154   5.671 -0.9888 -1.7450 -3.2370
   85MOL   H23428962   0.380   4.035   5.764  0.1375  0.8982  0.9263
   85MOL   H23528963   0.438   3.865   5.948  1.6393 -0.6466 -1.0732
   85MOL   H23628964   0.108   3.750   5.953 -0.5591  0.5669  0.3999
   85MOL   H23728965   7.967   3.887   5.901  2.3783 -2.3183  2.8297
   85MOL   H23828966   7.881   4.237   5.588 -1.0535 -0.6924 -0.6686
   85MOL   H23928967   0.009   4.216   5.578  0.2935 -0.4392  2.7724
   85MOL   C24028968   7.926   4.049   5.497  0.1191  0.0599 -0.8132
   85MOL   C24128969   7.812   3.954   5.531 -0.0194 -0.2069 -0.7386
   85MOL   C24228970   7.837   3.840   5.607  0.3326  0.4539 -0.9759
   85MOL   C24328971   7.743   3.750   5.662 -0.1068  0.2463 -0.1441
   85MOL   C24428972   7.605   3.787   5.646 -0.4544 -0.6134 -0.4527
   85MOL   O24528973   7.501   3.715   5.704 -0.0281 -0.1587  0.4146
   85MOL   C24628974   7.578   3.911   5.582  0.0173 -0.3023 -0.2700
   85MOL   C24728975   7.679   3.986   5.519  0.1421 -0.3542 -0.3624
   85MOL   C24828976   7.908   4.118   5.364 -0.1789 -0.2240 -0.1069
   85MOL   H24928977   8.018   3.990   5.499  0.3193  0.3872 -0.0194
   85MOL   H25028978   7.940   3.815   5.628  0.5233  1.2498 -0.9584
   85MOL   H25128979   7.783   3.663   5.711 -1.1663 -1.4002 -2.1302
   85MOL   H25228980   7.470   3.773   5.772  0.1325 -0.2825  0.5935
   85MOL   H25328981   7.478   3.951   5.577  0.3826  0.7812  0.8252
   85MOL   H25428982   7.646   4.082   5.480  1.3934 -0.4780 -1.7431
   85MOL   H25528983   7.824   4.187   5.379  0.0154 -0.0519  0.1974
   85MOL   H25628984   7.995   4.180   5.344  0.8180 -1.2613  0.8958
   85MOL   C25728985   7.882   4.029   5.242 -0.3298  0.2551 -0.0106
   85MOL   C25828986   7.800   4.102   5.142  0.2456 -0.3053 -0.2211
   85MOL   C25928987   7.849   4.221   5.085  0.0106 -0.8251 -0.7961
   85MOL   C26028988   7.775   4.285   4.991 -0.4299  0.1008  0.4245
   85MOL   C26128989   7.651   4.236   4.948 -0.0841 -0.1372  0.0115
   85MOL   O26228990   7.588   4.297   4.848  0.8598 -0.6045 -0.2567
   85MOL   C26328991   7.598   4.122   5.007  0.6575  0.3947  0.1462
   85MOL   C26428992   7.676   4.053   5.097  0.1618  0.3382 -0.2019
   85MOL   C26528993   8.013   3.972   5.178 -0.0634  0.5507 -0.9159
   85MOL   H26628994   7.813   3.954   5.281 -0.5200  0.6854  0.4887
   85MOL   H26728995   7.942   4.266   5.117 -0.0418 -2.6658  2.1058
   85MOL   H26828996   7.822   4.373   4.949 -0.9443  1.3314  2.3341
   85MOL   H26928997   7.518   4.239   4.824  2.0686 -1.2786 -2.3080
   85MOL   H27028998   7.501   4.083   4.980 -0.4985  2.7990  0.7110
   85MOL   H27128999   7.633   3.972   5.155  0.4580 -0.2285 -0.7666
   85MOL   H27229000   0.041   3.944   5.260 -0.1998 -0.1680 -1.0527
   85MOL   H27329001   0.032   4.058   5.141  0.2702  0.1427 -1.3423
   85MOL   C27429002   7.990   3.865   5.067  0.3828  0.3674 -0.3259
   85MOL   C27529003   7.916   3.742   5.116  0.3590 -0.8110 -0.1096
   85MOL   C27629004   7.905   3.707   5.250 -0.0238 -0.2593  0.0107
   85MOL   C27729005   7.816   3.606   5.289  0.5191 -0.8559 -0.0824
   85MOL   C27829006   7.748   3.535   5.193  0.6721  0.2857  0.5335
   85MOL   O27929007   7.668   3.439   5.234 -0.5780 -0.3901  0.0190
   85MOL   C28029008   7.758   3.568   5.055  0.5274 -0.2075  0.0293
   85MOL   C28129009   7.845   3.672   5.018  0.4515 -0.2813 -0.3625
   85MOL   C28229010   0.084   3.820   4.992  0.3997  0.4108 -0.1759
   85MOL   H28329011   7.922   3.905   4.991  0.8042 -1.1513 -1.5181
   85MOL   H28429012   7.945   3.765   5.331  1.3577 -1.0200 -0.1214
   85MOL   H28529013   7.807   3.581   5.394 -1.4304 -2.4905 -0.5872
   85MOL   H28629014   7.630   3.455   5.320  1.0030 -1.0472  0.8668
   85MOL   H28729015   7.696   3.517   4.982 -0.3476  0.0235  0.6029
   85MOL   H28829016   7.851   3.695   4.912 -1.4283  1.1561 -0.1919
   85MOL   H28929017   0.063   3.842   4.888  1.2139  0.4619 -0.3317
   85MOL   H29029018   0.160   3.895   5.012  0.6009  0.0343  0.5054
   85MOL   C29129019   0.138   3.670   5.000  0.2087  0.2384 -0.5163
   85MOL   C29229020   0.168   3.624   5.140  0.4892  0.1554  0.0370
   85MOL   C29329021   0.148   3.490   5.180 -0.0143  0.0370  0.3140
   85MOL   C29429022   0.169   3.457   5.313 -0.4106  0.3468 -0.3279
   85MOL   C29529023   0.215   3.549   5.412 -0.2070 -0.1195  0.3884
   85MOL   O29629024   0.214   3.517   5.548 -0.6209  0.0633 -0.1414
   85MOL   C29729025   0.241   3.682   5.369  0.0612  0.0787 -0.0696
   85MOL   C29829026   0.215   3.717   5.236 -0.0026 -0.0173  0.4864
   85MOL   C29929027   0.264   3.649   4.912 -1.4991  0.0904 -0.7384
   85MOL   H30029028   0.057   3.605   4.968 -0.0847  0.3182  0.0589
   85MOL   H30129029   0.109   3.417   5.111 -0.4502  0.3235  0.2555
   85MOL   H30229030   0.148   3.355   5.340  0.0214  0.7005  1.4132
   85MOL   H30329031   0.270   3.572   5.601  0.1568 -1.8055  1.0392
   85MOL   H30429032   0.282   3.752   5.441  3.1000 -0.7553 -0.9056
   85MOL   H30529033   0.235   3.820   5.208  2.1262 -0.8343 -1.1520
   85MOL   H30629034   0.303   3.552   4.942 -0.9832  1.0642  1.8231
   85MOL   H30729035   0.346   3.715   4.940 -0.9932  0.2419 -2.5306
   85MOL   C30829036   0.250   3.639   4.750 -0.4352 -0.8903 -0.5511
   85MOL   C30929037   0.104   3.605   4.709 -0.0793  0.1514  0.2997
   85MOL   C31029038   0.026   3.697   4.640  0.7053  0.3856 -0.1237
   85MOL   C31129039   7.924   3.670   4.629  0.7985  0.6559 -0.1764
   85MOL   C31229040   7.857   3.562   4.692  0.0193 -0.8143 -0.4454
   85MOL   O31329041   7.721   3.545   4.701  0.1829  0.4133  0.1620
   85MOL   C31429042   7.944   3.466   4.746  0.0575 -1.3350 -0.1961
   85MOL   C31529043   0.042   3.487   4.753  0.7965 -0.3503 -0.1003
   85MOL   C31629044   0.355   3.553   4.671 -0.5022 -0.2055 -0.1662
   85MOL   H31729045   0.272   3.743   4.727 -2.1689 -0.0847  1.2128
   85MOL   H31829046   0.073   3.794   4.629 -0.7854  0.7590 -3.5902
   85MOL   H31929047   7.846   3.740   4.603  1.5077  1.9928  1.2241
   85MOL   H32029048   7.662   3.616   4.717 -0.4181  0.1983 -1.0489
   85MOL   H32129049   7.902   3.387   4.806  0.2873 -0.9633  0.4612
   85MOL   H32229050   0.099   3.409   4.802 -0.2794  0.4942  2.5619
   85MOL   H32329051   0.320   3.559   4.568 -0.2204  0.3057 -0.2338
   85MOL   H32429052   0.347   3.445   4.687  0.0467  0.0011  1.5415
   85MOL   C32529053   0.497   3.609   4.693 -0.0854  0.0722 -0.5522
   85MOL   C32629054   0.578   3.589   4.562 -0.5697 -0.0864  0.2163
   85MOL   C32729055   0.571   3.472   4.485 -0.1863  0.1175 -0.1603
   85MOL   C32829056   0.659   3.454   4.379 -0.1207 -0.4199  0.2694
   85MOL   C32929057   0.750   3.561   4.348 -0.1060 -0.1510  0.3216
   85MOL   O33029058   0.832   3.539   4.242  0.2146  0.5808 -0.5154
   85MOL   C33129059   0.756   3.676   4.421  0.3774 -0.4828  0.4758
   85MOL   C33229060   0.671   3.690   4.534 -0.4552  0.1529 -0.1077
   85MOL   C33329061   0.574   3.528   4.808  0.3077  0.2941 -0.9251
   85MOL   H33429062   0.508   3.716   4.710  0.8467  0.2902 -2.3454
   85MOL   H33529063   0.506   3.390   4.509  0.6133 -0.5878 -0.4036
   85MOL   H33629064   0.655   3.363   4.320  2.0649 -0.2527 -0.1985
   85MOL   H33729065   0.822   3.454   4.202 -0.4918  0.2226  0.3997
   85MOL   H33829066   0.826   3.753   4.392 -1.2638  0.6812 -0.5460
   85MOL   H33929067   0.669   3.784   4.588 -0.3432 -0.1448  0.4122
   85MOL   H34029068   0.514   3.530   4.899  0.8375  0.2640 -0.5744
   85MOL   H34129069   0.667   3.578   4.833 -0.7934  2.5050 -1.1257
   85MOL   H34229070   0.592   3.426   4.775 -0.1933  0.3725 -1.4685
   86MOL     C129071   2.342   6.587   3.967 -0.0569  0.0718 -0.1556
   86MOL     C229072   2.485   6.573   4.010  0.4275 -0.3577 -0.0656
   86MOL     C329073   2.573   6.505   3.927  0.2531 -0.3480  0.1830
   86MOL     C429074   2.711   6.482   3.959  0.8220 -0.2303 -0.0157
   86MOL     C529075   2.758   6.523   4.086 -0.6670  0.3198 -0.7302
   86MOL     O629076   2.880   6.476   4.124 -0.4011 -0.5229 -0.2288
   86MOL     C729077   2.676   6.594   4.176 -0.1120 -0.6731  0.2630
   86MOL     C829078   2.540   6.622   4.132  0.1637 -0.1883 -0.3731
   86MOL     C929079   2.261   6.499   4.058  0.2586 -0.1774  0.3283
   86MOL    H1029080   2.314   6.692   3.962  0.3275  0.2730  1.5713
   86MOL    H1129081   2.533   6.475   3.831  2.3205  1.3149 -1.2375
   86MOL    H1229082   2.780   6.427   3.897  0.6181 -1.0488  0.4712
   86MOL    H1329083   2.922   6.510   4.201 -0.7212 -1.3559  0.3223
   86MOL    H1429084   2.704   6.628   4.275  0.5527  1.1207 -0.5280
   86MOL    H1529085   2.481   6.683   4.200  0.2305  0.0758 -0.5521
   86MOL    H1629086   2.296   6.529   4.157  0.4817 -2.7019  1.0440
   86MOL    H1729087   2.293   6.395   4.055 -0.8595 -0.5681  1.6001
   86MOL    H1829088   2.340   6.560   3.861  0.6377  1.0406 -0.4239
   86MOL    C1929089   2.104   6.527   4.046 -0.6184 -0.1462  0.3259
   86MOL    C2029090   2.037   6.526   4.188 -0.3270 -0.2145 -0.1443
   86MOL    C2129091   1.966   6.413   4.235  0.6455  0.5580 -0.6039
   86MOL    C2229092   1.919   6.410   4.368  0.1458 -0.3086 -0.3848
   86MOL    C2329093   1.941   6.520   4.451 -0.1596  0.5509 -0.2949
   86MOL    O2429094   1.900   6.507   4.579  0.5601  0.1033 -0.4359
   86MOL    C2529095   2.013   6.629   4.408 -0.1407  0.7152  0.1429
   86MOL    C2629096   2.053   6.638   4.275 -0.1261 -0.4264 -0.4324
   86MOL    C2729097   2.031   6.436   3.948  0.1713 -0.2537  0.3734
   86MOL    H2829098   2.088   6.628   4.010 -0.5412 -0.3343 -0.2501
   86MOL    H2929099   1.947   6.326   4.174  0.6876  0.5901 -0.6634
   86MOL    H3029100   1.877   6.319   4.409  1.3185 -0.8139 -0.2807
   86MOL    H3129101   1.860   6.423   4.594  0.1188  0.1008 -1.5910
   86MOL    H3229102   2.051   6.707   4.473  1.2534  0.2606 -0.1237
   86MOL    H3329103   2.115   6.723   4.250  1.5300 -1.4733  0.0302
   86MOL    H3429104   1.926   6.465   3.950  0.1219 -0.4811  1.9750
   86MOL    H3529105   2.036   6.337   3.994  1.2760 -0.5098 -0.2868
   86MOL    C3629106   2.083   6.437   3.803 -0.8508 -0.0337 -0.3553
   86MOL    C3729107   2.053   6.555   3.711  0.2858  0.7932 -0.1251
   86MOL    C3829108   1.920   6.589   3.686  0.2301 -0.8638  0.2313
   86MOL    C3929109   1.890   6.693   3.590 -0.5202 -0.6632 -0.1008
   86MOL    C4029110   1.989   6.767   3.531  0.3240 -0.0740  0.1274
   86MOL    O4129111   1.960   6.867   3.446  0.0500  0.6030 -0.1407
   86MOL    C4229112   2.121   6.732   3.559 -0.7713 -1.0742 -0.3904
   86MOL    C4329113   2.155   6.621   3.643 -0.0041  0.8425  0.4228
   86MOL    C4429114   2.055   6.303   3.739 -0.3819  0.2248 -0.2841
   86MOL    H4529115   2.190   6.437   3.819 -0.7484 -0.2742 -1.0154
   86MOL    H4629116   1.837   6.540   3.735 -0.6648 -0.2485 -0.6298
   86MOL    H4729117   1.786   6.708   3.564  0.1608  1.9681 -1.4911
   86MOL    H4829118   2.025   6.935   3.442  0.7877 -0.1952 -2.1049
   86MOL    H4929119   2.205   6.790   3.524 -1.7837  1.1803  0.8375
   86MOL    H5029120   2.261   6.602   3.648 -0.1200  0.0104 -0.1434
   86MOL    H5129121   2.048   6.216   3.804 -1.0330 -0.0505 -0.7210
   86MOL    H5229122   1.951   6.307   3.707 -0.5252 -1.0988 -0.0011
   86MOL    C5329123   2.123   6.275   3.605 -0.1457 -0.1473  0.2758
   86MOL    C5429124   2.270   6.243   3.617 -0.1970  0.0334  0.5014
   86MOL    C5529125   2.351   6.259   3.505 -0.2869  0.2323  0.0308
   86MOL    C5629126   2.487   6.212   3.505  0.4866 -0.2934 -0.1554
   86MOL    C5729127   2.537   6.140   3.615 -0.4454 -0.0026 -0.3934
   86MOL    O5829128   2.668   6.103   3.612 -0.5066 -0.9506  0.3638
   86MOL    C5929129   2.454   6.125   3.730 -0.5607 -0.0618  0.1044
   86MOL    C6029130   2.318   6.170   3.727  0.1831  0.3040 -0.8431
   86MOL    C6129131   2.052   6.152   3.535 -0.2611 -0.7745 -0.3457
   86MOL    H6229132   2.116   6.367   3.547  0.0358 -0.2967  0.0165
   86MOL    H6329133   2.307   6.300   3.415 -1.8652 -0.5880  0.4082
   86MOL    H6429134   2.553   6.230   3.421  0.4569  1.6716  0.2031
   86MOL    H6529135   2.681   6.037   3.679  0.5145 -1.7529 -0.5854
   86MOL    H6629136   2.483   6.063   3.813 -2.4208 -0.6189  0.3516
   86MOL    H6729137   2.255   6.145   3.811  0.9552  1.2644  0.0522
   86MOL    H6829138   2.017   6.079   3.607  0.4641 -0.7709  0.0127
   86MOL    H6929139   2.133   6.095   3.489  0.5710  0.4321 -0.3924
   86MOL    C7029140   1.952   6.187   3.416  0.1727 -0.6245 -0.0739
   86MOL    C7129141   2.001   6.307   3.325 -0.5187 -0.6496  0.0998
   86MOL    C7229142   1.969   6.440   3.360  0.6419 -1.5006  0.2049
   86MOL    C7329143   2.019   6.543   3.277  0.3609  0.3662 -0.7346
   86MOL    C7429144   2.098   6.516   3.165 -0.2993  0.3802  0.1706
   86MOL    O7529145   2.156   6.615   3.090  0.1478 -0.0358  0.6434
   86MOL    C7629146   2.131   6.382   3.138  0.5596  0.1587  0.1136
   86MOL    C7729147   2.081   6.278   3.216  0.3048 -0.0412 -0.3244
   86MOL    C7829148   1.807   6.207   3.472  0.3095  0.5688 -0.2120
   86MOL    H7929149   1.948   6.101   3.350 -1.8238 -1.2240  0.7632
   86MOL    H8029150   1.908   6.465   3.446  0.0113  0.2569 -0.7090
   86MOL    H8129151   1.988   6.646   3.290 -0.4335  0.1903 -1.1968
   86MOL    H8229152   2.126   6.704   3.101  0.0762 -0.1442  1.3806
   86MOL    H8329153   2.185   6.363   3.047 -1.3755 -0.7586 -0.8792
   86MOL    H8429154   2.102   6.174   3.200  1.3162  0.0775  0.2363
   86MOL    H8529155   1.749   6.238   3.386  0.9490 -0.6612 -1.1097
   86MOL    H8629156   1.788   6.294   3.534  1.4587  0.0605  0.8909
   86MOL    C8729157   1.742   6.084   3.539  0.4463 -0.1138 -0.2085
   86MOL    C8829158   1.743   5.957   3.459 -0.0709 -0.0155  0.2631
   86MOL    C8929159   1.696   5.944   3.328  0.1217  0.2684  0.4157
   86MOL    C9029160   1.703   5.820   3.259  0.3949  0.3348  0.1264
   86MOL    C9129161   1.762   5.710   3.315 -0.8402  0.2220 -0.0141
   86MOL    O9229162   1.764   5.591   3.253 -0.3857  0.3854  0.3802
   86MOL    C9329163   1.817   5.721   3.446 -0.1690 -0.0264 -0.2854
   86MOL    C9429164   1.808   5.844   3.519  0.1772 -0.5841  0.4227
   86MOL    C9529165   1.604   6.119   3.589 -0.1772 -0.1515  0.5831
   86MOL    H9629166   1.803   6.079   3.629 -1.0545  0.1285  0.8163
   86MOL    H9729167   1.637   6.021   3.281 -1.5508 -0.5416  1.1256
   86MOL    H9829168   1.663   5.812   3.160 -0.8345  0.7273  0.5822
   86MOL    H9929169   1.694   5.605   3.190  0.3955  2.8213 -0.0256
   86MOL   H10029170   1.861   5.633   3.489 -0.3539 -0.1007 -0.2450
   86MOL   H10129171   1.839   5.856   3.621  2.1067 -1.1695 -0.0686
   86MOL   H10229172   1.606   6.197   3.666 -2.5029 -1.5418  2.1183
   86MOL   H10329173   1.556   6.163   3.501  1.3941  1.9832  0.7626
   86MOL   C10429174   1.512   6.020   3.648 -0.1410  0.5349  0.1053
   86MOL   C10529175   1.385   6.088   3.686  0.2458 -0.6163  0.4258
   86MOL   C10629176   1.384   6.193   3.787 -0.4617  0.0133  0.6837
   86MOL   C10729177   1.270   6.276   3.810  0.5076 -0.2351  0.4614
   86MOL   C10829178   1.150   6.240   3.743  0.4907 -0.1553 -0.1036
   86MOL   O10929179   1.034   6.311   3.768  0.0811  0.0372  0.6720
   86MOL   C11029180   1.153   6.139   3.646  0.1060 -0.1881  0.7273
   86MOL   C11129181   1.263   6.058   3.620 -0.3666 -0.3510  0.3706
   86MOL   C11229182   1.574   5.947   3.774  0.2911  0.2289 -0.6149
   86MOL   H11329183   1.483   5.947   3.573  1.4077  0.5472 -0.5321
   86MOL   H11429184   1.482   6.215   3.827  0.1438 -1.9799  0.3361
   86MOL   H11529185   1.268   6.351   3.888  0.3143 -1.4743  1.6701
   86MOL   H11629186   0.960   6.263   3.735 -0.8342  1.7958  0.0602
   86MOL   H11729187   1.067   6.113   3.585  0.2485 -0.5409  0.6759
   86MOL   H11829188   1.259   5.979   3.548  1.7847  0.7073 -0.9515
   86MOL   H11929189   1.541   5.982   3.872 -0.1807 -1.2101 -0.2527
   86MOL   H12029190   1.682   5.967   3.769  0.5177 -1.2102 -1.8904
   86MOL   C12129191   1.559   5.794   3.766  0.1659 -0.2982  0.1254
   86MOL   C12229192   1.626   5.713   3.871  0.0161  0.3269 -0.5345
   86MOL   C12329193   1.662   5.763   4.002  0.6093  0.5968  0.3187
   86MOL   C12429194   1.699   5.672   4.101 -0.6709  0.7420 -0.2360
   86MOL   C12529195   1.703   5.529   4.071 -0.3846  0.0630  0.2626
   86MOL   O12629196   1.737   5.443   4.167  0.2962 -0.4315 -0.3696
   86MOL   C12729197   1.680   5.485   3.941 -0.5174  0.0660 -0.5996
   86MOL   C12829198   1.640   5.577   3.840 -1.2026 -0.0725 -0.0109
   86MOL   C12929199   1.408   5.745   3.755  0.6488  0.2332  0.5506
   86MOL   H13029200   1.603   5.758   3.673  1.0300 -1.0450  0.8181
   86MOL   H13129201   1.650   5.866   4.032 -1.3436  0.7504 -0.8709
   86MOL   H13229202   1.728   5.712   4.197 -2.1219  1.2631 -0.0096
   86MOL   H13329203   1.744   5.356   4.130  1.7547 -1.5459  2.3304
   86MOL   H13429204   1.689   5.384   3.905 -2.4776  0.0828 -1.1863
   86MOL   H13529205   1.616   5.536   3.743 -0.4787  0.9679 -0.6430
   86MOL   H13629206   1.413   5.638   3.734 -1.4477  0.4101 -1.0115
   86MOL   H13729207   1.357   5.788   3.668 -0.7492 -0.0808  1.2084
   86MOL   C13829208   1.327   5.733   3.887 -0.0194 -0.5390 -0.0503
   86MOL   C13929209   1.223   5.626   3.877  0.3081 -0.0638 -0.5385
   86MOL   C14029210   1.233   5.500   3.939 -0.1862 -0.1123 -0.2485
   86MOL   C14129211   1.124   5.412   3.932 -0.1855 -0.3537  0.1112
   86MOL   C14229212   1.003   5.437   3.863 -0.1538  0.5415 -0.2552
   86MOL   O14329213   0.902   5.345   3.860  0.2429 -0.1000 -0.3887
   86MOL   C14429214   0.994   5.559   3.791 -0.5906 -0.6368  0.1975
   86MOL   C14529215   1.103   5.652   3.798 -0.5840 -0.3028 -0.1561
   86MOL   C14629216   1.255   5.864   3.931 -0.9734 -0.0222  0.8975
   86MOL   H14729217   1.389   5.694   3.968  2.1682  0.7750 -1.0763
   86MOL   H14829218   1.316   5.474   4.002  0.7866  2.0498 -0.5772
   86MOL   H14929219   1.123   5.318   3.985  0.6362 -1.4523 -1.7711
   86MOL   H15029220   0.822   5.359   3.813 -0.1887 -1.9135 -0.2065
   86MOL   H15129221   0.905   5.574   3.732  0.4555 -2.2581 -1.8652
   86MOL   H15229222   1.096   5.748   3.749 -3.4109  0.6156  1.9044
   86MOL   H15329223   1.205   5.919   3.851  1.4472  2.1373  0.8034
   86MOL   H15429224   1.330   5.941   3.951  0.1819 -0.8329 -0.2499
   86MOL   C15529225   1.169   5.851   4.056 -0.5085  0.9874 -0.4334
   86MOL   C15629226   1.033   5.926   4.039  0.2888 -0.4642  0.7213
   86MOL   C15729227   0.911   5.877   4.095 -0.2593  0.5516  0.0580
   86MOL   C15829228   0.797   5.956   4.108  0.1145 -0.5401  0.2760
   86MOL   C15929229   0.803   6.091   4.068 -0.1907  0.2461 -0.2915
   86MOL   O16029230   0.699   6.184   4.077 -0.0980  0.0749 -0.1358
   86MOL   C16129231   0.923   6.145   4.014 -0.1826 -0.0304  0.3955
   86MOL   C16229232   1.034   6.061   3.994 -0.4711  0.6567  0.2548
   86MOL   C16329233   1.251   5.895   4.183  0.3030 -0.6909 -0.5795
   86MOL   H16429234   1.149   5.744   4.064  1.5658  0.6473  0.6830
   86MOL   H16529235   0.913   5.774   4.127 -0.4784  0.3751 -0.4910
   86MOL   H16629236   0.705   5.907   4.137  0.3199 -0.7903  0.5111
   86MOL   H16729237   0.719   6.271   4.046  1.2893  0.4159  1.6108
   86MOL   H16829238   0.926   6.246   3.976  0.5932 -1.2591 -3.0686
   86MOL   H16929239   1.129   6.094   3.954  0.0582  0.2886  1.2055
   86MOL   H17029240   1.265   6.002   4.167 -2.2970 -0.4941 -1.7299
   86MOL   H17129241   1.347   5.844   4.188  0.2019 -0.8130  0.1193
   86MOL   C17229242   1.181   5.864   4.325 -0.8062  0.1736  1.1299
   86MOL   C17329243   1.230   5.967   4.421  0.1799  0.7013 -0.0516
   86MOL   C17429244   1.362   5.972   4.461  0.0629  0.5312 -0.1740
   86MOL   C17529245   1.409   6.053   4.568 -0.1338  0.4782 -0.2928
   86MOL   C17629246   1.325   6.152   4.618  0.3376 -0.2133 -0.3571
   86MOL   O17729247   1.356   6.228   4.733 -0.4188  0.0857 -0.3937
   86MOL   C17829248   1.194   6.163   4.564 -0.4263  0.7618 -0.8994
   86MOL   C17929249   1.143   6.066   4.473  0.8437  0.1620  0.1591
   86MOL   C18029250   1.196   5.718   4.377  0.1482  0.1493 -0.4068
   86MOL   H18129251   1.079   5.887   4.294 -0.2326 -0.1079 -1.0549
   86MOL   H18229252   1.423   5.894   4.417  1.1054  0.3165  1.6217
   86MOL   H18329253   1.510   6.042   4.603 -0.3748 -1.2947 -0.1108
   86MOL   H18429254   1.305   6.308   4.729  0.9222  1.0725  1.6966
   86MOL   H18529255   1.126   6.233   4.610 -0.8815 -0.3982  0.2077
   86MOL   H18629256   1.038   6.081   4.454  0.5191 -1.7272  0.3600
   86MOL   H18729257   1.292   5.705   4.427 -0.0669 -1.8055 -0.4721
   86MOL   H18829258   1.201   5.656   4.288 -2.3006 -0.6811  0.0110
   86MOL   C18929259   1.082   5.665   4.467  0.2682 -0.1051 -0.3856
   86MOL   C19029260   1.091   5.512   4.481 -0.5330 -0.1782  0.0510
   86MOL   C19129261   1.210   5.452   4.523  0.1728  0.6444 -0.5105
   86MOL   C19229262   1.213   5.311   4.535 -0.4171 -1.4104  0.8100
   86MOL   C19329263   1.100   5.229   4.512  0.2290  0.1026  0.2236
   86MOL   O19429264   1.115   5.095   4.534 -0.5737  0.2834  0.3863
   86MOL   C19529265   0.980   5.291   4.487 -0.5334 -1.1027 -0.3604
   86MOL   C19629266   0.978   5.434   4.469 -0.5530  0.4727  0.0253
   86MOL   C19729267   1.079   5.732   4.606 -0.3997  0.4731  0.0773
   86MOL   H19829268   0.989   5.684   4.413 -1.2852 -1.4806  1.7452
   86MOL   H19929269   1.303   5.504   4.542 -0.9981  2.3741  0.6579
   86MOL   H20029270   1.298   5.273   4.590  0.8117  0.5754  0.3520
   86MOL   H20129271   1.204   5.077   4.560 -1.8734 -3.4179  2.5889
   86MOL   H20229272   0.890   5.235   4.467 -0.4102 -0.8888 -1.5374
   86MOL   H20329273   0.881   5.474   4.444 -0.7308 -0.2731 -0.4653
   86MOL   H20429274   1.109   5.837   4.612 -0.3635  0.4716 -0.0729
   86MOL   H20529275   1.159   5.687   4.666 -1.6133  0.4985  1.7497
   86MOL   C20629276   0.954   5.723   4.679 -0.4529 -0.7838  0.0075
   86MOL   C20729277   0.828   5.760   4.596  0.3780  0.7706  0.6730
   86MOL   C20829278   0.809   5.886   4.537  0.0425 -0.4517  0.4512
   86MOL   C20929279   0.705   5.913   4.450  0.8718 -0.4541 -0.7322
   86MOL   C21029280   0.613   5.813   4.428 -0.0325  0.0213  0.0911
   86MOL   O21129281   0.496   5.830   4.354  0.4398 -0.3116  0.3087
   86MOL   C21229282   0.624   5.691   4.493 -0.2629  0.2000 -0.5277
   86MOL   C21329283   0.728   5.669   4.577 -0.0220  0.5698  0.6024
   86MOL   C21429284   0.953   5.775   4.823  0.0001  0.1659  0.5134
   86MOL   H21529285   0.949   5.616   4.699  1.9533 -1.0188 -0.4774
   86MOL   H21629286   0.891   5.957   4.544  0.1802 -0.2203 -2.7738
   86MOL   H21729287   0.694   6.009   4.403 -0.2678 -0.2263 -0.0371
   86MOL   H21829288   0.494   5.908   4.301  1.7105 -1.1515 -0.9981
   86MOL   H21929289   0.556   5.611   4.467  0.8768 -1.1063  0.4535
   86MOL   H22029290   0.751   5.568   4.611 -0.2876 -0.1757 -1.3696
   86MOL   H22129291   0.850   5.773   4.861  0.0182 -2.9785  0.5214
   86MOL   H22229292   0.994   5.876   4.834  0.4941 -0.1983  2.1340
   86MOL   C22329293   1.039   5.683   4.917 -0.7634  0.0589 -0.0129
   86MOL   C22429294   1.011   5.533   4.919 -0.0512 -0.9357 -0.2830
   86MOL   C22529295   0.878   5.487   4.922  0.3858 -0.2137 -0.1285
   86MOL   C22629296   0.853   5.353   4.903  0.1523 -0.5363  0.3911
   86MOL   C22729297   0.953   5.263   4.874 -0.4835  0.3161  1.0426
   86MOL   O22829298   0.917   5.134   4.844 -0.1943  0.7890  0.3763
   86MOL   C22929299   1.086   5.302   4.864 -0.7744 -0.1416  0.1052
   86MOL   C23029300   1.115   5.439   4.893  0.0261  0.4502 -0.2953
   86MOL   C23129301   1.036   5.742   5.058 -0.6131 -0.9633 -0.7290
   86MOL   H23229302   1.140   5.696   4.877  0.2288 -1.1258  2.0588
   86MOL   H23329303   0.799   5.560   4.938 -0.2815 -0.9952  0.1633
   86MOL   H23429304   0.750   5.323   4.912 -0.3503  0.5441 -1.4418
   86MOL   H23529305   0.986   5.086   4.803  0.9793  1.1074  1.9183
   86MOL   H23629306   1.158   5.223   4.848  0.8663  1.2295  0.6054
   86MOL   H23729307   1.215   5.476   4.873  0.4905 -0.7814 -0.3258
   86MOL   H23829308   1.022   5.850   5.051 -0.8356 -1.0879 -2.4863
   86MOL   H23929309   0.938   5.715   5.097 -2.1853  1.4464 -2.8359
   86MOL   C24029310   1.156   5.716   5.150  0.1459 -0.1577 -0.1502
   86MOL   C24129311   1.269   5.801   5.096 -0.6849 -0.1155 -0.4797
   86MOL   C24229312   1.372   5.741   5.021  0.3181 -0.5013 -0.1673
   86MOL   C24329313   1.471   5.820   4.958  0.4434  0.1551  0.9484
   86MOL   C24429314   1.471   5.960   4.968  0.0949  0.1758  0.3046
   86MOL   O24529315   1.563   6.036   4.900  0.1610 -0.2028 -0.7605
   86MOL   C24629316   1.376   6.018   5.053  0.2859 -0.8032 -0.4179
   86MOL   C24729317   1.277   5.941   5.117  0.7662  0.4364 -0.4332
   86MOL   C24829318   1.121   5.749   5.298  0.1080 -0.1888  0.0969
   86MOL   H24929319   1.187   5.612   5.149 -1.2097 -0.6085  1.2129
   86MOL   H25029320   1.385   5.634   5.013  2.5986 -0.2617 -0.1110
   86MOL   H25129321   1.539   5.764   4.896 -1.9400 -1.3542 -0.3820
   86MOL   H25229322   1.528   6.122   4.878 -0.7671 -0.1724  0.7392
   86MOL   H25329323   1.384   6.124   5.070  1.2876 -0.7861 -0.9925
   86MOL   H25429324   1.199   5.979   5.181  1.1844  0.7792 -0.1258
   86MOL   H25529325   1.206   5.789   5.353 -1.4543  0.8359  1.8403
   86MOL   H25629326   1.052   5.834   5.297  0.9520  0.5036 -0.0330
   86MOL   C25729327   1.074   5.632   5.385  0.3612  0.5961  0.5181
   86MOL   C25829328   1.027   5.670   5.526  0.3600 -0.2047 -0.2756
   86MOL   C25929329   1.078   5.598   5.634 -0.4028 -0.2781 -0.1284
   86MOL   C26029330   1.050   5.639   5.767 -0.2228  0.3279  0.1113
   86MOL   C26129331   0.961   5.746   5.789 -0.4226  0.3505  0.3465
   86MOL   O26229332   0.945   5.789   5.914 -0.5918  0.3544  0.1793
   86MOL   C26329333   0.909   5.823   5.677 -0.8296 -0.3155 -0.0059
   86MOL   C26429334   0.943   5.783   5.548  0.1665  0.3364 -0.0195
   86MOL   C26529335   0.960   5.550   5.316 -0.1902  0.7394  0.1702
   86MOL   H26629336   1.165   5.575   5.404 -0.6592 -1.2615 -0.0709
   86MOL   H26729337   1.145   5.516   5.617 -1.0013 -1.2481  2.0447
   86MOL   H26829338   1.100   5.598   5.854  0.7991  0.7208 -0.2797
   86MOL   H26929339   0.886   5.861   5.931 -1.1043 -0.5360  2.4047
   86MOL   H27029340   0.849   5.911   5.694  1.2885  0.8734  1.5212
   86MOL   H27129341   0.902   5.829   5.459 -0.9820  0.7643  0.7303
   86MOL   H27229342   0.993   5.528   5.215  1.0797 -3.3059  1.3527
   86MOL   H27329343   0.877   5.620   5.312 -0.3331  0.5214 -0.6795
   86MOL   C27429344   0.921   5.417   5.389 -0.0097 -0.3371 -0.1903
   86MOL   C27529345   1.025   5.303   5.371 -0.4344 -0.1270 -0.0455
   86MOL   C27629346   1.066   5.261   5.238  0.1131 -0.0313 -0.1498
   86MOL   C27729347   1.168   5.167   5.228  0.0185 -0.6907  0.0590
   86MOL   C27829348   1.220   5.095   5.343  0.0600 -0.0706  0.9076
   86MOL   O27929349   1.298   4.984   5.323  0.1162 -0.4947  0.0872
   86MOL   C28029350   1.163   5.127   5.470 -0.1384  0.1188  0.2524
   86MOL   C28129351   1.077   5.238   5.483  0.5058  0.1720  0.1262
   86MOL   C28229352   0.779   5.366   5.349  0.3448  0.2055  0.3550
   86MOL   H28329353   0.904   5.439   5.495  2.7503  1.8965 -0.1318
   86MOL   H28429354   1.022   5.294   5.145 -0.6085 -1.5447 -0.3609
   86MOL   H28529355   1.192   5.138   5.127 -1.8255 -0.2112 -0.5428
   86MOL   H28629356   1.349   4.983   5.243  0.5549  2.2897  0.2571
   86MOL   H28729357   1.197   5.079   5.560 -2.5455 -0.2540  0.9887
   86MOL   H28829358   1.057   5.277   5.582  0.1140  1.7428 -0.5554
   86MOL   H28929359   0.709   5.447   5.368 -1.6031 -1.2444 -0.4954
   86MOL   H29029360   0.775   5.362   5.240 -0.1827  0.0203  0.3789
   86MOL   C29129361   0.724   5.235   5.408  0.5175 -0.1471  0.3125
   86MOL   C29229362   0.651   5.167   5.298 -0.3203  0.2505  0.3453
   86MOL   C29329363   0.521   5.198   5.263  0.2807  0.8240  0.1001
   86MOL   C29429364   0.464   5.150   5.142 -0.6293 -0.4182 -0.5990
   86MOL   C29529365   0.536   5.056   5.063 -0.0806 -0.3285 -0.2689
   86MOL   O29629366   0.495   5.007   4.940 -0.2742 -0.2495  0.2028
   86MOL   C29729367   0.671   5.027   5.100  0.1246 -0.3780  0.4232
   86MOL   C29829368   0.731   5.089   5.213 -0.6162  0.5224 -0.9924
   86MOL   C29929369   0.632   5.242   5.530 -0.4458 -0.1692  0.4300
   86MOL   H30029370   0.809   5.171   5.435  1.4255  0.9079  0.0012
   86MOL   H30129371   0.470   5.278   5.314  1.1287  1.0438  0.6180
   86MOL   H30229372   0.361   5.181   5.130 -0.9271  0.3087  3.1723
   86MOL   H30329373   0.551   4.990   4.867 -1.4126  0.8969 -0.9680
   86MOL   H30429374   0.721   4.954   5.038 -0.9645  0.3942 -1.4255
   86MOL   H30529375   0.837   5.078   5.228 -0.6333  1.9188  0.2635
   86MOL   H30629376   0.602   5.140   5.553 -0.8916  0.3722  2.2906
   86MOL   H30729377   0.542   5.298   5.502 -1.1507 -1.9804 -1.0657
   86MOL   C30829378   0.695   5.293   5.662  0.6739 -0.5671 -0.0738
   86MOL   C30929379   0.823   5.218   5.715 -0.1948  0.2817 -0.2990
   86MOL   C31029380   0.916   5.289   5.801  0.5556  0.1712 -0.3797
   86MOL   C31129381   1.027   5.227   5.856  0.4149 -0.1076 -0.7353
   86MOL   C31229382   1.054   5.090   5.826  0.9444 -0.2914 -0.2047
   86MOL   O31329383   1.166   5.029   5.878 -0.1651 -0.1190 -0.4440
   86MOL   C31429384   0.963   5.018   5.746 -0.1802  0.6409  0.2221
   86MOL   C31529385   0.850   5.081   5.692  0.1571 -0.1415  0.5255
   86MOL   C31629386   0.591   5.294   5.781 -0.1642 -0.1969  0.0485
   86MOL   H31729387   0.720   5.393   5.626 -1.3643  0.1776  0.5557
   86MOL   H31829388   0.908   5.396   5.813  0.3828 -0.0396  1.3877
   86MOL   H31929389   1.094   5.274   5.926  0.9159 -2.0966  0.1525
   86MOL   H32029390   1.246   5.080   5.868 -0.2579  0.1020 -0.0914
   86MOL   H32129391   0.970   4.913   5.723  0.3005  0.5795  0.6498
   86MOL   H32229392   0.783   5.026   5.627  1.8041 -0.9588 -0.5202
   86MOL   H32329393   0.617   5.229   5.865  1.5120  0.6947  0.2378
   86MOL   H32429394   0.504   5.246   5.737  1.3415 -1.9339 -1.1560
   86MOL   C32529395   0.538   5.432   5.831 -0.3096 -0.6838 -0.0029
   86MOL   C32629396   0.502   5.521   5.715 -0.2486  0.6530  0.3133
   86MOL   C32729397   0.380   5.501   5.652 -0.5715  0.2346 -0.2073
   86MOL   C32829398   0.352   5.574   5.532 -0.1112 -0.4853 -0.1520
   86MOL   C32929399   0.433   5.677   5.481  0.2858  0.2484  0.2670
   86MOL   O33029400   0.404   5.751   5.369 -0.4529  0.1568  0.2140
   86MOL   C33129401   0.548   5.705   5.553 -0.8715  0.0626  0.1930
   86MOL   C33229402   0.580   5.634   5.669 -0.5011 -0.5854 -0.5230
   86MOL   C33329403   0.636   5.497   5.934  0.6885  0.3673  0.3582
   86MOL   H33429404   0.452   5.422   5.896 -1.0330 -2.2058 -1.1635
   86MOL   H33529405   0.314   5.422   5.687  1.4468 -1.3791  0.0456
   86MOL   H33629406   0.265   5.548   5.473 -0.6733 -1.4901  1.1059
   86MOL   H33729407   0.480   5.788   5.327  0.3313 -1.2408  0.3762
   86MOL   H33829408   0.603   5.788   5.510 -4.2985  1.8950 -0.8876
   86MOL   H33929409   0.673   5.654   5.720 -0.9843 -0.9135  0.4899
   86MOL   H34029410   0.644   5.441   6.027 -0.7717 -0.9759 -0.2965
   86MOL   H34129411   0.615   5.598   5.968 -0.5799  0.8820 -1.8767
   86MOL   H34229412   0.733   5.489   5.885  0.8000  1.2135  0.4486
   87MOL     C129413   5.861   5.916   0.677  0.2027  0.2486  0.0009
   87MOL     C229414   5.844   5.937   0.823 -0.4574  0.1098 -0.4739
   87MOL     C329415   5.845   5.819   0.905  0.5253  0.0372 -0.0117
   87MOL     C429416   5.832   5.825   1.045  0.7966 -0.5384 -0.1278
   87MOL     C529417   5.832   5.952   1.107 -0.0398 -0.2364 -0.2379
   87MOL     O629418   5.826   5.962   1.241 -0.1910 -0.2140 -0.6940
   87MOL     C729419   5.845   6.067   1.027 -0.8532  0.5448 -0.5833
   87MOL     C829420   5.854   6.062   0.888  0.2436  0.1641 -0.0008
   87MOL     C929421   5.813   6.040   0.593 -0.6900 -0.7807 -0.3509
   87MOL    H1029422   5.967   5.894   0.667  0.0510 -0.2577 -0.5769
   87MOL    H1129423   5.846   5.721   0.860  3.8856  0.9073 -2.0174
   87MOL    H1229424   5.832   5.734   1.103  2.8271  1.0221  2.4463
   87MOL    H1329425   5.833   6.054   1.259  3.1685 -1.3601  4.7619
   87MOL    H1429426   5.858   6.161   1.078  0.4663 -0.1365  0.3906
   87MOL    H1529427   5.852   6.153   0.830  1.8545 -1.2009 -2.2438
   87MOL    H1629428   5.874   6.129   0.614 -1.9030 -0.0918  0.3208
   87MOL    H1729429   5.711   6.054   0.629 -0.5364  0.1995 -0.2765
   87MOL    H1829430   5.798   5.834   0.642  0.6245  0.9277 -2.3788
   87MOL    C1929431   5.801   6.009   0.443 -0.7006 -0.5360  0.5432
   87MOL    C2029432   5.941   5.993   0.382 -1.0125  0.1612 -0.9679
   87MOL    C2129433   6.038   6.097   0.412  0.2727  0.6260 -0.8741
   87MOL    C2229434   6.169   6.083   0.367 -0.6679 -0.5950  0.1080
   87MOL    C2329435   6.199   5.976   0.276 -0.3307  0.0052 -0.3351
   87MOL    O2429436   6.325   5.977   0.218  0.5359  0.4361 -0.4205
   87MOL    C2529437   6.099   5.885   0.233 -0.4545  0.3237 -0.5155
   87MOL    C2629438   5.971   5.890   0.291  0.0729 -1.1842 -0.4220
   87MOL    C2729439   5.733   6.125   0.365  0.3694  0.4271 -0.7872
   87MOL    H2829440   5.745   5.920   0.415 -0.8262 -0.1479 -0.4555
   87MOL    H2929441   6.014   6.186   0.468  0.0061  0.3992 -0.6204
   87MOL    H3029442   6.239   6.163   0.382 -2.6701  1.3665 -0.6989
   87MOL    H3129443   6.324   5.911   0.150  2.3898 -0.1533  0.0873
   87MOL    H3229444   6.122   5.806   0.164 -0.1839 -0.1817  0.1449
   87MOL    H3329445   5.900   5.809   0.276 -0.4234 -0.9585  0.7045
   87MOL    H3429446   5.754   6.111   0.259  3.2168  1.0952 -0.3483
   87MOL    H3529447   5.782   6.218   0.395  0.5929  0.4875 -1.3492
   87MOL    C3629448   5.572   6.131   0.376  0.9153  0.2968  0.0819
   87MOL    C3729449   5.511   5.991   0.365  0.8294 -0.1858  0.0816
   87MOL    C3829450   5.521   5.916   0.251 -0.1271 -0.4268  0.1048
   87MOL    C3929451   5.455   5.795   0.245 -0.0123 -0.3450  0.2191
   87MOL    C4029452   5.372   5.759   0.350  0.2483  0.2410  0.5686
   87MOL    O4129453   5.296   5.649   0.337  0.1539 -0.5473 -0.2266
   87MOL    C4229454   5.375   5.824   0.473  0.2268 -0.3925  0.9599
   87MOL    C4329455   5.442   5.948   0.480 -0.2581  0.6097 -0.2891
   87MOL    C4429456   5.507   6.231   0.278  0.1299  0.1423  0.0751
   87MOL    H4529457   5.540   6.173   0.472  1.5614 -0.6899  0.7356
   87MOL    H4629458   5.567   5.948   0.158 -0.8188  0.7257  0.1417
   87MOL    H4729459   5.467   5.729   0.160 -1.0844  0.1962 -0.3526
   87MOL    H4829460   5.303   5.603   0.255  1.6329  1.1975 -1.1196
   87MOL    H4929461   5.306   5.797   0.552  0.2762  2.1609  1.9234
   87MOL    H5029462   5.426   6.008   0.569  0.7179 -0.6801  0.7722
   87MOL    H5129463   5.521   6.332   0.316 -1.2450 -0.2113  1.6159
   87MOL    H5229464   5.577   6.234   0.194 -0.2156  3.7204 -0.1494
   87MOL    C5329465   5.369   6.215   0.228  0.6059 -0.5960 -0.5076
   87MOL    C5429466   5.269   6.206   0.339 -0.8412  0.3766  0.6825
   87MOL    C5529467   5.170   6.107   0.340  0.2320 -0.0191 -0.4416
   87MOL    C5629468   5.068   6.116   0.434 -0.1668  0.5744 -0.3806
   87MOL    C5729469   5.063   6.221   0.529 -0.2570  0.3344  0.6138
   87MOL    O5829470   4.957   6.228   0.615 -0.1458  0.0964 -0.0333
   87MOL    C5929471   5.170   6.307   0.535  0.4211  0.0966 -0.1618
   87MOL    C6029472   5.276   6.298   0.444 -0.0749 -0.4098 -0.1248
   87MOL    C6129473   5.338   6.314   0.115  0.2334  0.1546  0.1346
   87MOL    H6229474   5.377   6.115   0.185  0.4703 -0.8177 -0.0217
   87MOL    H6329475   5.167   6.034   0.260 -0.9076  0.3231 -0.7241
   87MOL    H6429476   4.994   6.039   0.426  2.9751 -2.6531  0.2535
   87MOL    H6529477   4.880   6.188   0.578 -2.1513  1.3683  2.6331
   87MOL    H6629478   5.166   6.391   0.603  1.0391 -0.8171  1.0308
   87MOL    H6729479   5.339   6.386   0.439 -1.0037  0.2323 -0.9359
   87MOL    H6829480   5.421   6.341   0.049 -0.8217  2.1006 -0.4561
   87MOL    H6929481   5.306   6.402   0.171 -0.3492 -0.5778  0.9648
   87MOL    C7029482   5.239   6.249   0.014 -0.5759  0.7276 -0.5221
   87MOL    C7129483   5.281   6.131   7.973  0.1946  0.3445  0.6665
   87MOL    C7229484   5.217   6.006   7.996 -0.4398  0.9494 -0.4134
   87MOL    C7329485   5.259   5.890   7.925 -0.2438  0.0114 -0.2422
   87MOL    C7429486   5.360   5.903   7.827  0.0316 -0.1674  0.0909
   87MOL    O7529487   5.404   5.801   7.755 -0.6765  0.5287  0.2524
   87MOL    C7629488   5.425   6.023   7.806 -0.4075  0.2339 -0.4006
   87MOL    C7729489   5.389   6.142   7.881  0.6626 -0.6702  0.6138
   87MOL    C7829490   5.182   6.349   7.954 -0.5367 -0.0585 -0.8414
   87MOL    H7929491   5.161   6.202   0.074  1.3505 -1.0089  0.7028
   87MOL    H8029492   5.130   5.994   0.021 -0.4078  0.0540 -0.5257
   87MOL    H8129493   5.210   5.794   7.938 -1.1685  0.6607  1.2969
   87MOL    H8229494   5.425   5.826   7.666  0.8598 -0.1078  0.4252
   87MOL    H8329495   5.502   6.024   7.729  1.4060  0.2008  1.3713
   87MOL    H8429496   5.444   6.234   7.871 -1.5043  0.6182  0.2918
   87MOL    H8529497   5.134   6.305   7.866  3.5317 -2.5958 -1.9420
   87MOL    H8629498   5.259   6.415   7.913  0.9931 -0.1477  1.7802
   87MOL    C8729499   5.078   6.440   8.022 -0.0701 -0.3545 -0.2096
   87MOL    C8829500   4.974   6.348   0.056  0.0522 -0.5338 -0.7289
   87MOL    C8929501   4.872   6.278   8.022 -0.5371 -1.1153 -0.1736
   87MOL    C9029502   4.783   6.199   0.058 -0.3507  0.2533  0.5958
   87MOL    C9129503   4.771   6.212   0.195  0.4188 -0.0508  0.3691
   87MOL    O9229504   4.684   6.134   0.266 -0.4349  0.5576  0.5198
   87MOL    C9329505   4.860   6.292   0.264 -0.2479 -0.1603 -0.5485
   87MOL    C9429506   4.963   6.364   0.199 -0.4221  0.3438  0.2301
   87MOL    C9529507   5.004   6.528   7.918 -0.5399  0.5319 -0.1951
   87MOL    H9629508   5.125   6.503   0.060 -0.7487  0.7746 -0.7159
   87MOL    H9729509   4.863   6.285   7.914 -0.2487 -2.6322 -0.3039
   87MOL    H9829510   4.700   6.150   0.008  0.1017 -2.5050  2.4523
   87MOL    H9929511   4.691   6.132   0.360 -2.0074  1.5129  0.6779
   87MOL   H10029512   4.845   6.317   0.368  1.5863  3.2696 -1.0197
   87MOL   H10129513   5.013   6.447   0.245  0.2749  0.0146  0.0789
   87MOL   H10229514   4.995   6.466   7.829 -0.9094  0.9919 -0.4777
   87MOL   H10329515   4.903   6.558   7.946 -0.5491  0.9361 -0.6546
   87MOL   C10429516   5.084   6.653   7.872  0.0583  0.0607  0.5552
   87MOL   C10529517   5.105   6.762   7.982  0.0440  0.2434  0.4951
   87MOL   C10629518   5.223   6.849   7.970  0.2274  0.0675 -0.0469
   87MOL   C10729519   5.246   6.950   0.030  0.7627 -0.4200  0.0569
   87MOL   C10829520   5.159   6.964   0.139 -0.7468  0.1938  0.1543
   87MOL   O10929521   5.191   7.049   0.241  0.2075  0.2467  0.2663
   87MOL   C11029522   5.044   6.884   0.149 -0.1429 -0.7172  0.0601
   87MOL   C11129523   5.015   6.781   0.054 -1.0343  0.0527  0.3550
   87MOL   C11229524   5.035   6.719   7.741 -0.1702  0.5744  0.2229
   87MOL   H11329525   5.182   6.614   7.844  0.4806  2.6266 -1.8552
   87MOL   H11429526   5.293   6.840   7.888  0.5324 -1.4371  0.3624
   87MOL   H11529527   5.330   7.018   0.021  0.0120  0.2871 -1.7752
   87MOL   H11629528   5.136   7.047   0.318 -1.3785 -2.5912 -0.8788
   87MOL   H11729529   4.981   6.902   0.235 -2.8036 -1.5129 -1.6327
   87MOL   H11829530   4.923   6.725   0.062 -1.2982  0.2279 -1.2330
   87MOL   H11929531   5.107   6.797   7.715 -0.4285  0.7946  0.1603
   87MOL   H12029532   4.939   6.764   7.770 -0.2537  1.7064 -1.7121
   87MOL   C12129533   5.003   6.622   7.623  0.6669 -0.3685 -0.3605
   87MOL   C12229534   4.928   6.701   7.514 -0.5169  0.8067  0.3483
   87MOL   C12329535   4.789   6.681   7.508  0.2860 -0.0841 -0.1900
   87MOL   C12429536   4.710   6.758   7.416 -0.1797  0.3343 -0.1987
   87MOL   C12529537   4.782   6.839   7.327 -0.1653 -0.6874  0.5444
   87MOL   O12629538   4.716   6.910   7.235  0.5664 -0.3060 -0.2411
   87MOL   C12729539   4.925   6.852   7.325  0.3645 -0.0263 -0.1479
   87MOL   C12829540   4.998   6.788   7.421  0.2374  0.4750  0.5253
   87MOL   C12929541   5.131   6.549   7.575  0.4682 -0.0250 -0.3708
   87MOL   H13029542   4.928   6.552   7.658 -0.3772 -0.1672 -2.1432
   87MOL   H13129543   4.744   6.610   7.576  0.4818  1.4902  1.6077
   87MOL   H13229544   4.604   6.744   7.405  0.1361 -0.0642 -3.0652
   87MOL   H13329545   4.635   6.866   7.218  0.1874  0.9905 -1.9764
   87MOL   H13429546   4.973   6.907   7.246  1.7913 -1.1990 -0.1196
   87MOL   H13529547   5.106   6.796   7.423  0.3302  0.1630 -1.5967
   87MOL   H13629548   5.172   6.501   7.663  0.7018  0.8370 -0.0005
   87MOL   H13729549   5.202   6.621   7.534  1.0376  0.0598  0.7634
   87MOL   C13829550   5.104   6.435   7.470 -0.1678 -0.1685  0.1223
   87MOL   C13929551   4.975   6.351   7.508 -0.1977  0.1484  0.5444
   87MOL   C14029552   4.961   6.262   7.618  0.2837 -0.1627  0.8014
   87MOL   C14129553   4.846   6.192   7.641 -0.8001 -0.5481 -0.3140
   87MOL   C14229554   4.739   6.200   7.548  0.0496  0.1095 -0.3352
   87MOL   O14329555   4.619   6.130   7.570 -0.0915 -0.9313 -0.2876
   87MOL   C14429556   4.751   6.289   7.439  0.0563  0.1797  0.5755
   87MOL   C14529557   4.868   6.363   7.420  0.3191  0.5135 -0.2465
   87MOL   C14629558   5.221   6.342   7.439 -0.8208  0.1813  0.4514
   87MOL   H14729559   5.080   6.487   7.377 -1.1719 -1.2411 -0.2272
   87MOL   H14829560   5.046   6.242   7.682 -0.1738 -2.1078  0.8481
   87MOL   H14929561   4.835   6.136   7.733 -0.2230  0.5442  0.4320
   87MOL   H15029562   4.608   6.070   7.498 -1.2592 -3.5421  1.9434
   87MOL   H15129563   4.673   6.295   7.365  1.7800  1.1142 -1.1951
   87MOL   H15229564   4.875   6.438   7.343  2.0283 -0.0742 -0.6845
   87MOL   H15329565   5.246   6.298   7.536 -0.8269  0.8923  0.7803
   87MOL   H15429566   5.310   6.399   7.413 -2.6526  1.0317 -4.5095
   87MOL   C15529567   5.193   6.226   7.340  0.0603 -0.4658  0.7503
   87MOL   C15629568   5.275   6.108   7.366 -0.1925 -0.5715 -0.4665
   87MOL   C15729569   5.230   5.972   7.354 -1.1628 -0.2315 -0.1672
   87MOL   C15829570   5.312   5.864   7.398 -0.3846 -0.3207 -0.0101
   87MOL   C15929571   5.439   5.888   7.450 -0.8466  0.4341 -0.0272
   87MOL   O16029572   5.519   5.792   7.497  0.3752  0.2337  0.2130
   87MOL   C16129573   5.490   6.020   7.454 -0.1636 -1.1061 -0.0142
   87MOL   C16229574   5.413   6.126   7.406  0.4002  0.7471  0.1739
   87MOL   C16329575   5.213   6.277   7.196 -0.0150  0.7840  0.4709
   87MOL   H16429576   5.090   6.194   7.355 -0.2484 -1.8900 -3.6779
   87MOL   H16529577   5.130   5.953   7.319 -0.0872 -3.9226 -1.3870
   87MOL   H16629578   5.268   5.765   7.407  0.4206 -0.7028 -0.1895
   87MOL   H16729579   5.603   5.832   7.514  1.1799 -1.0469 -0.6124
   87MOL   H16829580   5.581   6.043   7.507 -0.1941 -0.2123 -0.3350
   87MOL   H16929581   5.456   6.225   7.410 -1.1518  1.4841 -0.8064
   87MOL   H17029582   5.317   6.307   7.185 -0.3708  1.9264  0.1176
   87MOL   H17129583   5.163   6.369   7.165  1.1071  1.0803 -0.5167
   87MOL   C17229584   5.176   6.166   7.087 -0.0324 -0.0040 -0.1344
   87MOL   C17329585   5.240   6.199   6.952 -0.8078  0.1819  0.2549
   87MOL   C17429586   5.188   6.300   6.867  0.1113  0.1699 -0.1217
   87MOL   C17529587   5.248   6.314   6.741 -1.0654 -0.1884 -0.0227
   87MOL   C17629588   5.349   6.226   6.695  0.1637 -0.2780  0.5091
   87MOL   O17729589   5.393   6.233   6.569 -0.1011  0.3662  0.2393
   87MOL   C17829590   5.408   6.131   6.780  0.1622 -0.3489  0.3641
   87MOL   C17929591   5.352   6.117   6.910 -0.1923  0.0814 -0.2148
   87MOL   C18029592   5.024   6.131   7.067 -0.2162 -0.0055 -0.0679
   87MOL   H18129593   5.226   6.070   7.098  1.3100  0.5991 -0.8099
   87MOL   H18229594   5.104   6.364   6.888  0.4041  0.8145 -0.8872
   87MOL   H18329595   5.214   6.388   6.671  0.8475  1.0520  0.3044
   87MOL   H18429596   5.347   6.302   6.524  0.5844 -0.0229 -1.0666
   87MOL   H18529597   5.484   6.059   6.754 -0.9431 -0.4249 -3.0351
   87MOL   H18629598   5.396   6.052   6.984  0.5044  0.8490  0.0504
   87MOL   H18729599   4.965   6.220   7.043 -1.9699 -1.5659 -1.6807
   87MOL   H18829600   4.984   6.094   7.162  1.0287  0.8313  0.8068
   87MOL   C18929601   4.989   6.029   6.962  0.8056  0.7464 -0.4316
   87MOL   C19029602   5.053   5.892   7.004  0.3323  0.1223  0.3314
   87MOL   C19129603   5.175   5.838   6.948  0.0160  0.1123  0.2391
   87MOL   C19229604   5.232   5.727   7.003  0.1742 -0.4253 -0.2183
   87MOL   C19329605   5.172   5.663   7.109  0.6598  0.7893  0.1894
   87MOL   O19429606   5.229   5.557   7.168 -0.2428  0.4147  0.5397
   87MOL   C19529607   5.048   5.703   7.156 -0.8385  0.2505 -0.5555
   87MOL   C19629608   4.987   5.820   7.106  0.0427 -0.5731  0.8876
   87MOL   C19729609   4.835   6.014   6.926 -0.3455  0.0222 -0.7349
   87MOL   H19829610   5.037   6.066   6.871  2.3387 -0.1784 -0.0099
   87MOL   H19929611   5.214   5.879   6.856  0.8377 -0.3383  0.3821
   87MOL   H20029612   5.326   5.688   6.970  0.1396 -0.0698 -0.7460
   87MOL   H20129613   5.317   5.547   7.134 -0.7585  0.1250 -0.7656
   87MOL   H20229614   5.005   5.651   7.240 -0.6886 -0.3879 -0.8704
   87MOL   H20329615   4.898   5.858   7.155  1.1910  2.0331  1.0249
   87MOL   H20429616   4.788   6.111   6.941  2.4932  0.9042  3.1521
   87MOL   H20529617   4.787   5.954   7.004  0.5584 -0.2542 -0.3808
   87MOL   C20629618   4.806   5.967   6.783  0.2564 -0.9450  0.1628
   87MOL   C20729619   4.847   6.078   6.695 -0.4864 -0.3626 -0.0782
   87MOL   C20829620   4.961   6.062   6.612 -0.2567  0.2300  0.3584
   87MOL   C20929621   5.012   6.174   6.537 -0.0324  0.1387  0.1051
   87MOL   C21029622   4.946   6.294   6.546  0.2956  0.4938 -0.1853
   87MOL   O21129623   4.985   6.411   6.479 -0.3262 -0.1440  0.2419
   87MOL   C21229624   4.824   6.310   6.616  0.1202  0.5299 -0.6491
   87MOL   C21329625   4.773   6.203   6.690 -1.2476 -0.4376  0.1470
   87MOL   C21429626   4.650   5.934   6.753  0.0729  0.4817  0.1885
   87MOL   H21529627   4.861   5.876   6.758  2.3719 -0.2365  2.1542
   87MOL   H21629628   5.024   5.975   6.624 -1.0794 -0.5476 -0.8252
   87MOL   H21729629   5.104   6.168   6.482 -1.3687  3.0537 -2.6561
   87MOL   H21829630   5.074   6.395   6.452 -0.1861 -0.0392  0.6297
   87MOL   H21929631   4.787   6.411   6.619  1.5093  1.0049  0.4245
   87MOL   H22029632   4.686   6.223   6.751 -0.5476  0.3194  0.9136
   87MOL   H22129633   4.591   6.001   6.815 -1.9277 -1.3259  0.3009
   87MOL   H22229634   4.630   5.837   6.799  0.8775 -0.2420 -0.9208
   87MOL   C22329635   4.609   5.922   6.603  0.0671 -0.6955  0.2132
   87MOL   C22429636   4.455   5.927   6.587  0.3819  0.2320  0.2002
   87MOL   C22529637   4.384   6.042   6.552  0.2452 -0.0276  0.6446
   87MOL   C22629638   4.248   6.035   6.516  0.5208 -0.1805 -0.8106
   87MOL   C22729639   4.184   5.911   6.521  0.8113 -0.0067 -0.3348
   87MOL   O22829640   4.051   5.903   6.484 -0.2834 -0.5189  0.7876
   87MOL   C22929641   4.246   5.794   6.566 -0.1714 -0.5742 -0.0409
   87MOL   C23029642   4.383   5.809   6.603  0.4505 -0.2369  0.5491
   87MOL   C23129643   4.672   5.792   6.533 -0.2914 -0.7617 -0.4438
   87MOL   H23229644   4.646   6.011   6.552 -2.5084  0.9975  1.2361
   87MOL   H23329645   4.433   6.136   6.531  2.5491 -1.4620 -0.5304
   87MOL   H23429646   4.205   6.130   6.490  1.6034  1.3846  2.7265
   87MOL   H23529647   4.004   5.984   6.495  1.7093  1.5884 -4.6334
   87MOL   H23629648   4.187   5.704   6.576  1.7121 -1.6642  1.5059
   87MOL   H23729649   4.424   5.720   6.649 -0.7588 -0.0723  1.9550
   87MOL   H23829650   4.781   5.797   6.540 -0.2531 -0.6852 -1.0719
   87MOL   H23929651   4.650   5.704   6.593 -1.1494  0.7617  1.5263
   87MOL   C24029652   4.630   5.767   6.396 -0.7255  0.6488  0.5729
   87MOL   C24129653   4.629   5.884   6.298 -0.4783 -0.0288  0.6483
   87MOL   C24229654   4.735   5.978   6.310 -0.0094 -0.0715  0.3208
   87MOL   C24329655   4.750   6.076   6.209 -0.7338  0.1471  0.3482
   87MOL   C24429656   4.650   6.089   6.114 -0.0725  0.0135  0.1382
   87MOL   O24529657   4.668   6.184   6.015  0.0059 -0.0740 -0.2830
   87MOL   C24629658   4.539   6.009   6.108  0.0967  0.0365  0.0907
   87MOL   C24729659   4.531   5.898   6.200  0.2248 -0.3449 -0.3706
   87MOL   C24829660   4.694   5.640   6.335 -0.0505 -0.4737 -0.3180
   87MOL   H24929661   4.523   5.747   6.404 -0.3427 -1.6331  0.5764
   87MOL   H25029662   4.810   5.969   6.388 -0.4160  0.1016  0.7301
   87MOL   H25129663   4.833   6.145   6.215 -0.0274 -0.6540 -0.0457
   87MOL   H25229664   4.602   6.185   5.947 -1.5273 -1.0602  1.1355
   87MOL   H25329665   4.481   6.022   6.018  1.8074  0.2876 -1.0063
   87MOL   H25429666   4.457   5.819   6.194  2.6288 -3.0555  3.5279
   87MOL   H25529667   4.647   5.639   6.237 -0.0728  1.1137 -0.3388
   87MOL   H25629668   4.800   5.657   6.313 -0.4584  0.5436 -1.6029
   87MOL   C25729669   4.669   5.502   6.406  0.9843  0.2399  0.4703
   87MOL   C25829670   4.525   5.469   6.450 -0.0854  0.0391  0.0072
   87MOL   C25929671   4.505   5.433   6.585  0.2460 -0.1261 -0.0162
   87MOL   C26029672   4.371   5.411   6.629 -0.2111 -0.7192  0.1834
   87MOL   C26129673   4.260   5.421   6.547  0.2656  0.0700 -0.1451
   87MOL   O26229674   4.140   5.375   6.586  0.2869  0.9470  0.4971
   87MOL   C26329675   4.278   5.464   6.416  0.0319  0.2288 -0.3325
   87MOL   C26429676   4.411   5.479   6.366 -0.1399 -0.2010 -0.0424
   87MOL   C26529677   4.744   5.376   6.339 -0.2041  0.0977 -0.9246
   87MOL   H26629678   4.724   5.519   6.499  1.2142 -2.1737  0.8183
   87MOL   H26729679   4.582   5.404   6.655  0.5093  0.3889 -0.0833
   87MOL   H26829680   4.357   5.377   6.731  0.5564  0.0369  0.5481
   87MOL   H26929681   4.064   5.389   6.531  1.3876  1.7489 -0.8553
   87MOL   H27029682   4.185   5.477   6.362 -1.0078 -1.5342  0.9680
   87MOL   H27129683   4.437   5.508   6.265  0.1423  2.2801  0.7191
   87MOL   H27229684   4.738   5.287   6.402 -0.0452 -0.0491 -1.1165
   87MOL   H27329685   4.851   5.401   6.341 -0.2349  0.1835  0.8257
   87MOL   C27429686   4.701   5.332   6.198  0.2475  0.7791 -0.2847
   87MOL   C27529687   4.707   5.180   6.185 -0.8604 -0.5738  0.3284
   87MOL   C27629688   4.835   5.112   6.201  0.0384 -0.5984 -0.0334
   87MOL   C27729689   4.844   4.973   6.195  0.1357  0.0904 -0.4781
   87MOL   C27829690   4.725   4.899   6.168 -0.2505  0.1156  0.5521
   87MOL   O27929691   4.734   4.760   6.175 -0.1497  0.2429 -0.1712
   87MOL   C28029692   4.605   4.961   6.147  0.0921  0.3810  0.4201
   87MOL   C28129693   4.595   5.100   6.160 -0.0903  0.7240 -0.4812
   87MOL   C28229694   4.781   5.398   6.081  0.0325  0.1432  0.4961
   87MOL   H28329695   4.595   5.355   6.196  0.1604  0.5300  0.9702
   87MOL   H28429696   4.919   5.173   6.231 -0.2841 -0.3247  0.3247
   87MOL   H28529697   4.939   4.924   6.212  0.1768 -0.2226 -1.6219
   87MOL   H28629698   4.739   4.718   6.091  0.5523  0.0948 -0.0634
   87MOL   H28729699   4.524   4.892   6.126  0.6567 -0.1572  0.0354
   87MOL   H28829700   4.502   5.151   6.143  0.3762  1.7691  0.0799
   87MOL   H28929701   4.804   5.504   6.094  0.8603 -0.0222  0.4365
   87MOL   H29029702   4.879   5.352   6.068  0.2956  1.1314 -1.3007
   87MOL   C29129703   4.706   5.370   5.939 -0.6622 -0.2612  0.1133
   87MOL   C29229704   4.796   5.355   5.819 -0.8993 -0.7959 -0.3342
   87MOL   C29329705   4.808   5.453   5.716  0.6648  0.3492 -0.0374
   87MOL   C29429706   4.889   5.435   5.609 -0.3662  0.4015 -0.0969
   87MOL   C29529707   4.962   5.312   5.589 -0.0668  0.6884  0.0539
   87MOL   O29629708   5.047   5.292   5.487  0.6328 -0.7161  0.0658
   87MOL   C29729709   4.960   5.224   5.696 -0.4700  0.7244  0.1121
   87MOL   C29829710   4.877   5.239   5.807  0.2010  0.7971  0.1483
   87MOL   C29929711   4.579   5.465   5.916 -0.7284  0.0242  0.1612
   87MOL   H30029712   4.665   5.270   5.946  0.8763 -0.9506 -0.4168
   87MOL   H30129713   4.757   5.548   5.726  1.3669  0.8655 -1.1824
   87MOL   H30229714   4.893   5.515   5.537  1.1442  0.3858 -0.0582
   87MOL   H30329715   5.029   5.347   5.411  2.6335  1.3153  0.9726
   87MOL   H30429716   5.012   5.129   5.696  2.7274  2.4011  0.4541
   87MOL   H30529717   4.866   5.167   5.887  1.4370 -0.5551 -0.8715
   87MOL   H30629718   4.598   5.563   5.872  0.0892 -0.1720  0.0644
   87MOL   H30729719   4.552   5.481   6.020 -0.2034 -1.9451  0.6152
   87MOL   C30829720   4.450   5.404   5.847 -0.3828  0.0128 -0.2873
   87MOL   C30929721   4.469   5.371   5.700 -0.3282 -0.1528 -0.6392
   87MOL   C31029722   4.479   5.237   5.654  0.2569 -0.0421  0.5803
   87MOL   C31129723   4.491   5.205   5.518  0.5844  0.0498  0.4339
   87MOL   C31229724   4.475   5.312   5.422 -0.1148 -0.4125 -0.1066
   87MOL   O31329725   4.456   5.283   5.293 -0.4119 -0.7852  0.0528
   87MOL   C31429726   4.478   5.445   5.466  0.4535  0.4008 -0.5700
   87MOL   C31529727   4.463   5.475   5.602 -0.3741 -0.4670  0.5381
   87MOL   C31629728   4.313   5.475   5.887 -0.2768  0.3895  0.3595
   87MOL   H31729729   4.438   5.309   5.899 -1.1358  1.3814  2.0725
   87MOL   H31829730   4.484   5.155   5.724 -3.2415 -0.7943  0.0355
   87MOL   H31929731   4.497   5.099   5.499 -1.1446 -0.2888  1.6451
   87MOL   H32029732   4.532   5.232   5.269  1.0367  0.3773  2.1034
   87MOL   H32129733   4.472   5.521   5.389  0.2666  0.0735 -0.8832
   87MOL   H32229734   4.448   5.580   5.623 -0.1158 -0.6722  1.8055
   87MOL   H32329735   4.289   5.562   5.827 -3.6733  0.1573  1.2786
   87MOL   H32429736   4.329   5.505   5.991  1.4405 -0.5291  0.3823
   87MOL   C32529737   4.188   5.390   5.878  1.1770 -0.2230  0.0321
   87MOL   C32629738   4.207   5.262   5.954  0.4131 -0.0184  0.0259
   87MOL   C32729739   4.222   5.137   5.892  0.0153  1.1501  0.2094
   87MOL   C32829740   4.247   5.019   5.964  0.3822  0.6988 -0.1504
   87MOL   C32929741   4.247   5.031   6.108  0.6637 -0.2553  0.6464
   87MOL   O33029742   4.277   4.924   6.190  0.8393  0.0702  0.0668
   87MOL   C33129743   4.207   5.152   6.167 -0.3295  0.0985 -0.0764
   87MOL   C33229744   4.190   5.272   6.094 -0.6835 -1.0878 -0.2929
   87MOL   C33329745   4.147   5.366   5.735  0.2809  0.0756 -0.4467
   87MOL   H33429746   4.107   5.450   5.919 -0.3785 -1.8687 -0.5493
   87MOL   H33529747   4.215   5.123   5.785 -2.4687  3.5287  0.0166
   87MOL   H33629748   4.257   4.928   5.906 -0.2510 -0.2583  1.2134
   87MOL   H33729749   4.289   4.948   6.280  2.2682  1.3880 -0.4560
   87MOL   H33829750   4.195   5.157   6.274 -1.8797  1.7326 -0.3028
   87MOL   H33929751   4.169   5.370   6.135 -2.1151 -2.0390  1.3306
   87MOL   H34029752   4.146   5.460   5.679 -0.1070  0.5137  0.2834
   87MOL   H34129753   4.044   5.330   5.732 -0.3664  1.7908  0.2497
   87MOL   H34229754   4.223   5.314   5.677  0.8925 -1.2469  1.4838
   88MOL     C129755   2.949   1.782   3.317  0.0805  0.4644  0.4488
   88MOL     C229756   2.856   1.733   3.418 -0.2174 -0.4060  0.0823
   88MOL     C329757   2.767   1.624   3.403 -0.2686  0.0124  0.0546
   88MOL     C429758   2.679   1.578   3.504  0.2652  0.6583  0.9580
   88MOL     C529759   2.656   1.657   3.616 -0.3502 -0.1932  0.7667
   88MOL     O629760   2.577   1.615   3.713  0.2155 -0.0479  0.4336
   88MOL     C729761   2.744   1.767   3.637  0.7671  0.0241 -0.1637
   88MOL     C829762   2.836   1.805   3.535 -0.6508  0.4348 -0.6283
   88MOL     C929763   2.922   1.753   3.168 -0.4547 -0.5895 -0.1529
   88MOL    H1029764   2.974   1.888   3.327  0.3129  0.6713 -2.0183
   88MOL    H1129765   2.772   1.564   3.314 -0.0973 -1.5914  1.1285
   88MOL    H1229766   2.617   1.490   3.489 -0.2396  0.8675  1.7573
   88MOL    H1329767   2.544   1.679   3.775 -1.1861  1.0170 -1.3668
   88MOL    H1429768   2.734   1.824   3.728 -0.5902 -0.8921  0.2768
   88MOL    H1529769   2.893   1.896   3.546 -1.5762  0.9268  0.2561
   88MOL    H1629770   2.835   1.805   3.130 -1.8139 -2.4418  0.3243
   88MOL    H1729771   2.889   1.649   3.159 -0.9099 -0.4614  0.0694
   88MOL    H1829772   3.047   1.739   3.339  0.0045  0.8524  1.5959
   88MOL    C1929773   3.047   1.757   3.077  0.3503  0.1560 -0.8075
   88MOL    C2029774   3.101   1.896   3.056 -0.3967  0.0051  0.1858
   88MOL    C2129775   3.020   1.995   2.990 -0.5438 -0.1445 -0.1305
   88MOL    C2229776   3.079   2.118   2.952 -0.6936  0.2979  0.3060
   88MOL    C2329777   3.217   2.136   2.976  0.4222  0.0737 -0.1113
   88MOL    O2429778   3.279   2.252   2.941  0.2872  0.2281 -0.2396
   88MOL    C2529779   3.290   2.048   3.049 -0.0689 -0.5325  0.0576
   88MOL    C2629780   3.233   1.928   3.090  0.9329 -0.2302 -0.3914
   88MOL    C2729781   3.032   1.668   2.948 -0.2498  0.3933 -0.3634
   88MOL    H2829782   3.124   1.713   3.139 -0.2158  0.5581  0.1897
   88MOL    H2929783   2.918   1.976   2.961 -1.4294  1.2730  1.9766
   88MOL    H3029784   3.021   2.193   2.901  1.0417  0.6282 -1.2340
   88MOL    H3129785   3.220   2.326   2.937 -0.8055 -0.5116  1.3716
   88MOL    H3229786   3.394   2.068   3.073 -0.4386  0.6724  0.6827
   88MOL    H3329787   3.301   1.859   3.139  1.4573 -0.1541 -1.0069
   88MOL    H3429788   2.965   1.722   2.881 -0.1748 -1.4702 -1.9978
   88MOL    H3529789   2.997   1.569   2.978  1.9404 -0.5646 -0.8819
   88MOL    C3629790   3.171   1.657   2.863  0.3937 -0.3855  0.0801
   88MOL    C3729791   3.167   1.751   2.743 -0.4703 -1.0191  0.1933
   88MOL    C3829792   3.073   1.728   2.643  0.2104 -0.2156 -0.2503
   88MOL    C3929793   3.079   1.809   2.532 -0.2080 -0.0574  0.4308
   88MOL    C4029794   3.175   1.911   2.520 -0.8205  0.6129  0.6069
   88MOL    O4129795   3.179   1.983   2.403  0.6795  0.7971 -0.2763
   88MOL    C4229796   3.261   1.942   2.621 -0.4894 -0.8498  0.0093
   88MOL    C4329797   3.259   1.857   2.737 -0.3412 -0.1794  0.4740
   88MOL    C4429798   3.205   1.511   2.832 -0.6689 -0.2156 -0.3910
   88MOL    H4529799   3.246   1.696   2.933  0.8514 -0.2573 -0.4823
   88MOL    H4629800   3.011   1.640   2.652 -0.3808  0.4052  2.1797
   88MOL    H4729801   3.016   1.794   2.445  0.8965  0.1975 -0.4165
   88MOL    H4829802   3.209   1.923   2.336 -2.2372  0.5828 -1.4300
   88MOL    H4929803   3.338   2.015   2.599 -0.4873 -1.6416 -2.7785
   88MOL    H5029804   3.323   1.875   2.822  0.5418 -1.1942  0.0399
   88MOL    H5129805   3.207   1.462   2.930 -1.3746  3.0648  1.3441
   88MOL    H5229806   3.122   1.468   2.775 -2.5988  2.3523  0.3796
   88MOL    C5329807   3.329   1.495   2.739 -0.4420 -0.2355 -0.2512
   88MOL    C5429808   3.459   1.518   2.820  0.0524 -0.3164  0.5591
   88MOL    C5529809   3.503   1.420   2.916 -0.1751  0.1065 -0.0299
   88MOL    C5629810   3.623   1.433   2.989 -0.0094 -0.1100 -0.6646
   88MOL    C5729811   3.713   1.537   2.950  0.3936 -0.1884 -0.4256
   88MOL    O5829812   3.841   1.540   3.002  0.0935 -0.2838  0.2081
   88MOL    C5929813   3.670   1.633   2.854 -0.0053  0.5263  0.4130
   88MOL    C6029814   3.547   1.621   2.790 -0.6064 -0.5128 -0.1858
   88MOL    C6129815   3.341   1.356   2.664 -0.8016  0.7600  0.6242
   88MOL    H6229816   3.332   1.569   2.659 -0.9741  0.1880  0.1141
   88MOL    H6329817   3.434   1.341   2.942  1.6092 -0.6522  2.6666
   88MOL    H6429818   3.633   1.354   3.062 -0.6015  1.6590  1.3672
   88MOL    H6529819   3.900   1.554   2.930  0.5773  0.0105  0.6589
   88MOL    H6629820   3.732   1.715   2.820  0.1380 -0.6514 -2.2925
   88MOL    H6729821   3.518   1.687   2.709 -2.8334  0.5014  1.3718
   88MOL    H6829822   3.247   1.329   2.615  0.0771  1.2980 -1.4298
   88MOL    H6929823   3.366   1.270   2.725  1.9850  0.5981 -0.6648
   88MOL    C7029824   3.450   1.366   2.540 -0.1907  0.4626  0.2792
   88MOL    C7129825   3.433   1.485   2.441 -0.7344 -0.0397 -0.3143
   88MOL    C7229826   3.302   1.505   2.377 -0.8166  0.0507  0.0488
   88MOL    C7329827   3.284   1.623   2.307  0.7577  0.2792  0.3772
   88MOL    C7429828   3.385   1.721   2.301 -0.0672 -0.6379 -0.8861
   88MOL    O7529829   3.363   1.843   2.233  0.2801  0.7323  0.3520
   88MOL    C7629830   3.508   1.696   2.361  0.4433 -0.2023 -0.3032
   88MOL    C7729831   3.534   1.584   2.431  0.1644 -0.0548 -1.4585
   88MOL    C7829832   3.468   1.224   2.469  0.0387  0.7828 -0.0881
   88MOL    H7929833   3.546   1.388   2.587  0.7725  0.7661 -1.7544
   88MOL    H8029834   3.220   1.437   2.397  0.0977 -0.5874  1.7268
   88MOL    H8129835   3.186   1.644   2.267 -0.0026 -1.6869  1.1431
   88MOL    H8229836   3.434   1.905   2.224  0.5279  0.5140  0.7652
   88MOL    H8329837   3.582   1.774   2.347 -0.2597  0.0594 -2.8702
   88MOL    H8429838   3.630   1.578   2.481 -1.1412 -0.4127  1.0816
   88MOL    H8529839   3.371   1.185   2.438 -0.0868  0.3015  0.9129
   88MOL    H8629840   3.500   1.158   2.549 -0.6721  0.9012  0.3006
   88MOL    C8729841   3.559   1.218   2.347 -0.1541 -0.1652  0.1703
   88MOL    C8829842   3.497   1.276   2.225  0.5307  0.3335  0.7051
   88MOL    C8929843   3.385   1.206   2.169  0.4996  0.6503  0.1796
   88MOL    C9029844   3.340   1.243   2.041 -0.0828 -0.2708 -0.0986
   88MOL    C9129845   3.382   1.362   1.978  0.7049  0.0917 -0.1959
   88MOL    O9229846   3.328   1.410   1.861  0.0053  0.0639 -0.4372
   88MOL    C9329847   3.491   1.426   2.038 -0.8886  0.1998 -0.1087
   88MOL    C9429848   3.548   1.394   2.162  0.0850  0.2303 -0.0751
   88MOL    C9529849   3.606   1.073   2.303 -0.0235  0.8826 -0.4913
   88MOL    H9629850   3.646   1.278   2.374  2.1440 -2.5509 -1.6198
   88MOL    H9729851   3.337   1.126   2.225  0.2742  0.4540 -0.2946
   88MOL    H9829852   3.259   1.184   2.003 -0.4484  0.7240 -0.8954
   88MOL    H9929853   3.364   1.494   1.834 -0.5588  0.8801  1.2642
   88MOL   H10029854   3.532   1.513   1.989 -1.2805 -0.6326 -1.9872
   88MOL   H10129855   3.639   1.444   2.193 -0.3143  0.8032  0.1815
   88MOL   H10229856   3.511   1.021   2.290 -0.7435  1.4983  2.0712
   88MOL   H10329857   3.658   1.076   2.208 -0.4284  1.0466 -0.7136
   88MOL   C10429858   3.710   1.004   2.396 -0.8326  0.2724  0.1986
   88MOL   C10529859   3.835   1.095   2.417 -0.3532 -0.4806 -0.0890
   88MOL   C10629860   3.837   1.194   2.516 -0.1624 -0.5039 -0.2609
   88MOL   C10729861   3.950   1.273   2.544  0.1205 -0.4037  0.2946
   88MOL   C10829862   4.063   1.256   2.465 -0.6180  0.3144  0.1808
   88MOL   O10929863   4.172   1.330   2.489 -0.2773  0.2471 -0.0555
   88MOL   C11029864   4.065   1.166   2.357 -0.8408  0.1721 -0.0640
   88MOL   C11129865   3.952   1.084   2.332 -0.1857 -0.1757 -0.0029
   88MOL   C11229866   3.736   0.855   2.365  0.6140 -1.1098  0.9731
   88MOL   H11329867   3.668   1.004   2.496 -1.2268  0.5416  0.0320
   88MOL   H11429868   3.747   1.189   2.575  0.2528 -0.9678  0.3341
   88MOL   H11529869   3.941   1.344   2.625 -0.7298 -1.4304  1.1221
   88MOL   H11629870   4.152   1.422   2.496 -0.2256  0.2450  0.1338
   88MOL   H11729871   4.155   1.154   2.298  0.2096  0.0690  1.5286
   88MOL   H11829872   3.962   1.021   2.245  0.3050 -1.3960  0.9230
   88MOL   H11929873   3.808   0.840   2.285 -0.6089 -0.0207 -0.3548
   88MOL   H12029874   3.645   0.819   2.318  1.5315  0.4972 -2.2053
   88MOL   C12129875   3.783   0.768   2.482  0.5871  1.0846  0.2899
   88MOL   C12229876   3.660   0.730   2.571  0.8909 -0.0940 -0.3970
   88MOL   C12329877   3.665   0.791   2.695  0.1849  0.0639  0.2584
   88MOL   C12429878   3.553   0.784   2.775 -0.2340  0.1748 -0.0728
   88MOL   C12529879   3.435   0.719   2.729 -1.8742 -0.3397 -0.4692
   88MOL   O12629880   3.312   0.727   2.791 -0.2382 -0.2731  0.2187
   88MOL   C12729881   3.434   0.651   2.601  0.1321 -0.2605 -0.7001
   88MOL   C12829882   3.550   0.652   2.524  0.3744 -0.1133  0.0809
   88MOL   C12929883   3.832   0.640   2.406  0.1474  0.1284 -0.4259
   88MOL   H13029884   3.856   0.807   2.553 -0.2283 -0.2533  1.9181
   88MOL   H13129885   3.747   0.850   2.731 -0.4215 -0.7124  3.0876
   88MOL   H13229886   3.537   0.825   2.873 -1.4987 -0.4910  0.0140
   88MOL   H13329887   3.312   0.786   2.865 -2.6886 -0.8466  0.7007
   88MOL   H13429888   3.342   0.606   2.566 -1.1649  1.9974 -0.3076
   88MOL   H13529889   3.564   0.599   2.431  0.3750 -2.3639  1.3025
   88MOL   H13629890   3.760   0.606   2.332 -1.4939  2.1689  0.2080
   88MOL   H13729891   3.830   0.562   2.482 -0.5319 -1.3428 -1.9213
   88MOL   C13829892   3.966   0.644   2.338  0.3396 -0.2901  0.2053
   88MOL   C13929893   4.008   0.509   2.279 -0.0349  0.4816 -0.3337
   88MOL   C14029894   4.032   0.400   2.362  0.4956  0.7403 -0.1636
   88MOL   C14129895   4.024   0.268   2.316  0.1313  0.5796  0.1189
   88MOL   C14229896   3.998   0.244   2.180 -0.4620  0.0442  0.0162
   88MOL   O14329897   3.996   0.113   2.139 -0.2728  0.1856  0.1891
   88MOL   C14429898   3.994   0.352   2.091  0.0658  0.6956 -0.0772
   88MOL   C14529899   3.994   0.483   2.143 -0.2362  0.2723  0.1963
   88MOL   C14629900   4.077   0.691   2.437 -0.7118  0.5356  0.7378
   88MOL   H14729901   3.969   0.718   2.258  0.1698  1.2487  1.5940
   88MOL   H14829902   4.040   0.415   2.469  0.8093  0.7952 -0.1915
   88MOL   H14929903   4.036   0.184   2.383 -0.4996 -0.2634 -0.8094
   88MOL   H15029904   3.972   0.047   2.203  0.5768  0.5893  0.9326
   88MOL   H15129905   3.985   0.333   1.985  0.4137 -0.0127  0.0194
   88MOL   H15229906   3.976   0.566   2.076 -0.8605  1.1370  1.4110
   88MOL   H15329907   4.075   0.639   2.533  1.0113 -2.6981 -0.9252
   88MOL   H15429908   4.054   0.787   2.484  0.5712  0.5863  1.2640
   88MOL   C15529909   4.216   0.699   2.381 -0.1466 -0.5713 -0.6248
   88MOL   C15629910   4.303   0.779   2.480 -0.3858 -0.3258 -0.3075
   88MOL   C15729911   4.293   0.920   2.490  0.1504  0.1886  0.2333
   88MOL   C15829912   4.367   0.988   2.590 -0.6911 -1.0091 -0.6628
   88MOL   C15929913   4.455   0.917   2.668  0.3484  0.3266 -0.2548
   88MOL   O16029914   4.534   0.969   2.763  0.5950  0.0153  0.6336
   88MOL   C16129915   4.464   0.776   2.657  1.2034  0.2253 -0.1034
   88MOL   C16229916   4.382   0.703   2.567 -1.2800 -0.0938  0.2923
   88MOL   C16329917   4.233   0.763   2.242  0.2286 -0.4435  0.3734
   88MOL   H16429918   4.246   0.594   2.382 -1.0345 -0.8308  0.3250
   88MOL   H16529919   4.216   0.972   2.434 -0.9279 -2.1019 -0.4791
   88MOL   H16629920   4.349   1.095   2.591 -1.2461 -1.1019 -0.9954
   88MOL   H16729921   4.557   0.903   2.828  2.4783  0.8812  0.8722
   88MOL   H16829922   4.527   0.717   2.722 -0.3467 -0.5518  0.7442
   88MOL   H16929923   4.378   0.596   2.557 -1.9832  0.1003 -1.6868
   88MOL   H17029924   4.203   0.867   2.250 -2.7987 -1.2907  0.7093
   88MOL   H17129925   4.161   0.725   2.170 -1.0177  1.5947  0.5038
   88MOL   C17229926   4.372   0.760   2.182  0.3475 -0.6117  0.2689
   88MOL   C17329927   4.365   0.815   2.041  0.0115 -0.0241  0.8179
   88MOL   C17429928   4.325   0.735   1.929  0.1380  0.7437  0.7544
   88MOL   C17529929   4.318   0.786   1.798 -0.0207 -0.1381  0.7211
   88MOL   C17629930   4.362   0.918   1.772 -0.0311  0.4190 -0.4206
   88MOL   O17729931   4.350   0.972   1.647  0.0750  0.3331  0.4194
   88MOL   C17829932   4.414   1.001   1.876  0.8277  0.0638  0.4003
   88MOL   C17929933   4.411   0.951   2.007 -0.1237  0.1817  0.3787
   88MOL   C18029934   4.445   0.617   2.189 -0.5844 -0.5323 -0.1099
   88MOL   H18129935   4.428   0.832   2.241  0.9333 -1.5716  0.9180
   88MOL   H18229936   4.295   0.632   1.946 -0.4342  0.3141 -2.5059
   88MOL   H18329937   4.283   0.718   1.721 -1.0157  1.8221 -0.5920
   88MOL   H18429938   4.306   0.904   1.599  0.7723  0.8274 -0.9200
   88MOL   H18529939   4.456   1.099   1.859  1.2120 -0.1399  0.1869
   88MOL   H18629940   4.454   1.010   2.086 -1.0662  0.4395  0.7085
   88MOL   H18729941   4.477   0.587   2.089  1.0666 -1.2380  0.6123
   88MOL   H18829942   4.365   0.545   2.207 -1.8199 -0.4965 -4.6761
   88MOL   C18929943   4.559   0.602   2.288 -0.4507  0.6502 -0.4224
   88MOL   C19029944   4.561   0.470   2.362 -0.7480 -0.2019 -0.4540
   88MOL   C19129945   4.598   0.463   2.496  0.0783 -0.4446  0.1672
   88MOL   C19229946   4.595   0.350   2.572  0.0134 -0.6038  0.2216
   88MOL   C19329947   4.538   0.231   2.516  0.2263  0.3816  0.6281
   88MOL   O19429948   4.520   0.115   2.591 -0.0208 -0.4467 -0.1389
   88MOL   C19529949   4.505   0.231   2.379 -0.2798 -0.0129  0.5096
   88MOL   C19629950   4.504   0.352   2.303  0.1576  0.2455  0.6224
   88MOL   C19729951   4.695   0.625   2.210 -0.2127  0.5287 -0.1590
   88MOL   H19829952   4.548   0.675   2.368  0.4665  1.9200 -1.4095
   88MOL   H19929953   4.616   0.556   2.548 -1.7028 -0.6108  1.1246
   88MOL   H20029954   4.609   0.356   2.679  0.9062 -2.0783  0.1942
   88MOL   H20129955   4.487   0.120   2.679 -0.6380 -1.6813 -0.2870
   88MOL   H20229956   4.468   0.139   2.336 -1.3579  0.5136  0.2938
   88MOL   H20329957   4.469   0.337   2.202 -0.8812 -0.2839  1.0583
   88MOL   H20429958   4.689   0.722   2.161 -1.2418 -0.2040 -1.5066
   88MOL   H20529959   4.690   0.560   2.122 -4.2930  1.3183 -0.6158
   88MOL   C20629960   4.828   0.615   2.286 -0.0797  0.0307 -0.7079
   88MOL   C20729961   4.831   0.707   2.408 -0.8694  0.2603  0.0477
   88MOL   C20829962   4.813   0.845   2.391  0.6638  0.2433 -0.2522
   88MOL   C20929963   4.825   0.928   2.508  0.8906  0.5854  0.4620
   88MOL   C21029964   4.835   0.870   2.639 -0.0520  0.4909 -0.0125
   88MOL   O21129965   4.843   0.950   2.749  0.0961  0.5707 -0.0026
   88MOL   C21229966   4.862   0.729   2.649  0.2423 -0.1572 -0.0880
   88MOL   C21329967   4.865   0.647   2.536 -0.2464 -0.1916  0.5196
   88MOL   C21429968   4.953   0.630   2.205 -0.7817  0.2642  0.8555
   88MOL   H21529969   4.833   0.513   2.324 -1.2308  0.6103  1.0475
   88MOL   H21629970   4.808   0.880   2.289  1.4765  0.3731 -0.2554
   88MOL   H21729971   4.815   1.030   2.474 -1.7782 -0.1658 -1.2197
   88MOL   H21829972   4.816   1.038   2.724 -0.1113  0.2636 -0.8859
   88MOL   H21929973   4.890   0.685   2.744 -1.6863 -2.2640 -0.4539
   88MOL   H22029974   4.879   0.541   2.546  0.3731 -0.2720 -0.9539
   88MOL   H22129975   5.034   0.656   2.274 -2.0483  1.4319  1.9187
   88MOL   H22229976   4.940   0.727   2.158 -1.3383  0.4572  1.4087
   88MOL   C22329977   4.993   0.509   2.116  0.3145 -0.1865  0.1949
   88MOL   C22429978   5.058   0.399   2.203  0.1014 -0.2563  0.2951
   88MOL   C22529979   4.995   0.276   2.241  0.4307  0.5191  0.0685
   88MOL   C22629980   5.051   0.175   2.326  0.0640  0.2521 -0.6756
   88MOL   C22729981   5.190   0.191   2.349 -0.4935 -0.2070 -0.1460
   88MOL   O22829982   5.263   0.086   2.396 -0.2890 -0.0744 -0.2638
   88MOL   C22929983   5.258   0.308   2.314 -0.4438 -0.2301  1.1159
   88MOL   C23029984   5.187   0.418   2.251 -0.9744 -0.1127  0.0884
   88MOL   C23129985   5.082   0.546   1.998 -0.7025 -0.6707 -0.4046
   88MOL   H23229986   4.897   0.467   2.086  0.3855  0.9322 -1.7047
   88MOL   H23329987   4.903   0.243   2.194 -0.1539  1.0223  0.8606
   88MOL   H23429988   5.005   0.080   2.345  0.1117  0.4633  0.5967
   88MOL   H23529989   5.351   0.086   2.362 -0.1692 -3.1743 -0.0614
   88MOL   H23629990   5.358   0.331   2.347  0.0411  0.0373 -0.4690
   88MOL   H23729991   5.242   0.509   2.234 -1.9825  0.2084 -1.4932
   88MOL   H23829992   5.044   0.629   1.938 -0.9387 -0.5460 -0.0812
   88MOL   H23929993   5.178   0.587   2.030 -1.8811  1.1010  0.9432
   88MOL   C24029994   5.108   0.433   1.889 -0.7143 -0.1003  0.8567
   88MOL   C24129995   4.982   0.367   1.820 -0.4844 -0.5874 -0.1433
   88MOL   C24229996   4.938   0.237   1.861  0.8507  0.0480  0.7839
   88MOL   C24329997   4.843   0.172   1.782 -0.3980  0.7078 -0.1370
   88MOL   C24429998   4.782   0.230   1.671 -1.0697 -0.0409 -0.3585
   88MOL   O24529999   4.687   0.161   1.597 -1.0326 -0.4926  0.6376
   88MOL   C24630000   4.817   0.363   1.634 -0.5539 -0.4450 -0.2574
   88MOL   C24730001   4.918   0.427   1.708  0.1010 -0.3506 -0.4577
   88MOL   C24830002   5.225   0.463   1.794 -0.0279 -0.0442 -0.3009
   88MOL   H24930003   5.156   0.356   1.949 -3.3395 -0.8325  2.1046
   88MOL   H25030004   4.985   0.183   1.942 -3.0132 -1.1792  2.3263
   88MOL   H25130005   4.811   0.074   1.814 -0.5651  0.6293 -0.5415
   88MOL   H25230006   4.651   0.081   1.632 -1.3342 -0.9644 -0.7172
   88MOL   H25330007   4.768   0.404   1.547 -1.0485 -0.1667  0.1483
   88MOL   H25430008   4.956   0.520   1.668  0.6404 -1.1356 -1.8106
   88MOL   H25530009   5.191   0.547   1.734 -0.8737  0.0643  0.3188
   88MOL   H25630010   5.309   0.498   1.853 -0.2892 -0.6857  0.4620
   88MOL   C25730011   5.284   0.356   1.699  0.7967 -0.1382  0.4650
   88MOL   C25830012   5.424   0.400   1.656  0.0407  0.3057 -0.7406
   88MOL   C25930013   5.438   0.462   1.533 -0.2731 -0.0104  0.0648
   88MOL   C26030014   5.565   0.480   1.476  0.9053  0.7224  0.9133
   88MOL   C26130015   5.678   0.437   1.544  0.0565  0.0517 -0.1784
   88MOL   O26230016   5.808   0.448   1.492  0.2813 -0.1139  0.2193
   88MOL   C26330017   5.667   0.397   1.676  0.0585  1.3625 -0.6253
   88MOL   C26430018   5.536   0.377   1.736  0.1082  0.7310  0.3338
   88MOL   C26530019   5.281   0.205   1.750  0.0842  0.4506  0.4443
   88MOL   H26630020   5.232   0.363   1.603  0.7816  0.0081  0.4838
   88MOL   H26730021   5.349   0.481   1.476  0.2504 -2.8483 -1.7953
   88MOL   H26830022   5.582   0.523   1.379 -0.0661  1.9183  1.2650
   88MOL   H26930023   5.804   0.500   1.413  0.0167 -1.3179 -0.5746
   88MOL   H27030024   5.755   0.371   1.732  0.0586 -0.3839 -1.4024
   88MOL   H27130025   5.533   0.330   1.834  1.3452  1.7021  0.8522
   88MOL   H27230026   5.188   0.166   1.792 -0.1979 -1.3547 -1.8031
   88MOL   H27330027   5.354   0.196   1.831  1.6701  0.9738 -0.9137
   88MOL   C27430028   5.325   0.102   1.642 -0.2770 -0.5871  0.5298
   88MOL   C27530029   5.233   0.108   1.519 -1.0150  0.4601  0.3276
   88MOL   C27630030   5.097   0.093   1.542  0.8399 -0.5901 -0.1733
   88MOL   C27730031   5.014   0.071   1.433  0.1777 -0.6690 -0.2748
   88MOL   C27830032   5.064   0.087   1.303  0.1918 -0.7557 -0.0261
   88MOL   O27930033   4.978   0.085   1.200 -0.5234  0.2025  0.3919
   88MOL   C28030034   5.200   0.112   1.280  0.5665  0.4272 -0.2525
   88MOL   C28130035   5.289   0.121   1.389 -0.6370 -0.8982  0.0114
   88MOL   C28230036   5.342   7.996   1.688 -0.0863  0.0936 -0.3585
   88MOL   H28330037   5.421   0.144   1.612 -1.8512  2.2833 -0.5935
   88MOL   H28430038   5.057   0.076   1.640  1.2031  2.1186  0.4757
   88MOL   H28530039   4.911   0.047   1.457  0.4906 -2.5208 -0.7055
   88MOL   H28630040   4.897   0.129   1.217 -0.7746 -0.1126  0.0368
   88MOL   H28730041   5.238   0.133   1.181  1.7785  1.5634  0.4332
   88MOL   H28830042   5.393   0.133   1.362 -0.7735  1.4358  0.4513
   88MOL   H28930043   5.246   7.968   1.732  0.3650  2.7919  2.4912
   88MOL   H29030044   5.343   7.925   1.604  0.9006 -0.1918 -0.1097
   88MOL   C29130045   5.458   7.972   1.784 -0.1254 -0.0596 -0.1286
   88MOL   C29230046   5.579   7.979   1.700  0.3054 -0.0360  0.1801
   88MOL   C29330047   5.604   7.888   1.596  0.4957  0.0229 -0.1819
   88MOL   C29430048   5.719   7.906   1.510 -0.3074  0.2285 -0.5075
   88MOL   C29530049   5.799   8.017   1.536  0.4942  0.0352 -0.1113
   88MOL   O29630050   5.907   8.037   1.456 -0.3855  0.3720  0.1857
   88MOL   C29730051   5.782   0.066   1.643 -0.1025 -0.5457 -0.0873
   88MOL   C29830052   5.679   0.039   1.729 -0.0049  0.0435  0.9390
   88MOL   C29930053   5.455   7.835   1.853  0.2458 -0.2490  0.0681
   88MOL   H30030054   5.469   0.010   1.862 -0.1844  1.9072 -1.9716
   88MOL   H30130055   5.532   7.809   1.579  0.7593 -0.5950  1.4512
   88MOL   H30230056   5.751   7.834   1.437  2.7364  1.0019  0.0287
   88MOL   H30330057   5.961   0.070   1.487  2.8782 -0.2955 -3.6140
   88MOL   H30430058   5.848   0.149   1.665  0.0405 -0.9994  1.1982
   88MOL   H30530059   5.658   0.117   1.801  1.1569  0.1841  1.1480
   88MOL   H30630060   5.557   7.808   1.881  0.5940 -0.9501 -1.8033
   88MOL   H30730061   5.415   7.764   1.780 -0.7909 -0.3542  0.7133
   88MOL   C30830062   5.381   7.827   1.991 -1.1677 -0.2252  0.0414
   88MOL   C30930063   5.471   7.907   2.093  0.0526 -0.3510 -0.0950
   88MOL   C31030064   5.587   7.849   2.151  0.4520  0.4833  0.5408
   88MOL   C31130065   5.670   7.924   2.233 -0.1578  0.5720 -0.0063
   88MOL   C31230066   5.648   0.025   2.249 -0.4003 -0.4745  0.2164
   88MOL   O31330067   5.737   0.106   2.313 -0.3372  0.4183 -0.1343
   88MOL   C31430068   5.539   0.092   2.178 -1.1668  0.0002 -0.1753
   88MOL   C31530069   5.446   0.009   2.111 -0.1265 -0.0733  0.1200
   88MOL   C31630070   5.345   7.689   2.048  0.3399 -0.2492  0.4049
   88MOL   H31730071   5.281   7.868   1.983 -0.9784 -0.0573 -1.5997
   88MOL   H31830072   5.606   7.743   2.136 -0.0767  0.4865 -0.1822
   88MOL   H31930073   5.747   7.881   2.296  0.1470  2.6492  1.0706
   88MOL   H32030074   5.824   0.071   2.324 -1.3590 -1.0405  4.0841
   88MOL   H32130075   5.520   0.198   2.187 -0.9925  0.0577 -0.4886
   88MOL   H32230076   5.362   0.061   2.066  0.9917  0.6926 -1.1244
   88MOL   H32330077   5.282   7.710   2.135 -0.6636 -2.0242  0.1401
   88MOL   H32430078   5.429   7.630   2.083 -1.7709 -2.0793  2.6039
   88MOL   C32530079   5.270   7.591   1.945 -0.1460 -0.3253 -0.0565
   88MOL   C32630080   5.160   7.662   1.857  0.4188  0.7404 -0.4275
   88MOL   C32730081   5.168   7.673   1.716 -0.3485 -0.2910  0.5342
   88MOL   C32830082   5.062   7.733   1.646 -0.6241  0.4852 -0.1583
   88MOL   C32930083   4.946   7.787   1.712 -0.0248 -0.6126 -0.4260
   88MOL   O33030084   4.840   7.833   1.641  0.2477  0.2292  0.9397
   88MOL   C33130085   4.937   7.773   1.848 -0.5431 -0.1363  0.0794
   88MOL   C33230086   5.044   7.713   1.925 -0.1383  0.0247 -0.5088
   88MOL   C33330087   5.216   7.459   2.005  0.1605 -0.1438 -0.0461
   88MOL   H33430088   5.343   7.568   1.867  2.9472 -1.5660  3.0722
   88MOL   H33530089   5.256   7.634   1.667 -0.9528 -0.8214 -0.1429
   88MOL   H33630090   5.076   7.738   1.539 -1.9815 -0.5563 -0.3990
   88MOL   H33730091   4.836   7.793   1.555  1.3083 -0.2385  1.1004
   88MOL   H33830092   4.845   7.805   1.893 -1.9436 -0.2414 -2.6273
   88MOL   H33930093   5.043   7.704   2.033 -1.0947 -2.0599 -0.6789
   88MOL   H34030094   5.218   7.383   1.927  2.9986 -0.4290  0.2577
   88MOL   H34130095   5.118   7.465   2.052  0.9624 -0.7769  1.7318
   88MOL   H34230096   5.295   7.427   2.073  0.4814 -0.3811 -0.5235
   89MOL     C130097   4.311   2.648   5.920 -0.0191 -0.2996  0.0919
   89MOL     C230098   4.211   2.768   5.947 -0.6777 -0.0535 -0.2255
   89MOL     C330099   4.245   2.898   5.982  0.5904 -0.6671 -0.4888
   89MOL     C430100   4.146   2.992   6.028 -0.4145  0.7414  0.9448
   89MOL     C530101   4.008   2.962   6.021  0.4855  0.8872 -0.3458
   89MOL     O630102   3.915   3.054   6.046 -0.0941 -0.3256  0.1544
   89MOL     C730103   3.972   2.833   5.981  0.2925  0.4633  0.6221
   89MOL     C830104   4.074   2.737   5.948 -0.4315 -0.6516  0.2236
   89MOL     C930105   4.336   2.632   5.771 -0.6330  0.4876  0.4334
   89MOL    H1030106   4.401   2.670   5.976  0.9127 -2.9560 -0.2853
   89MOL    H1130107   4.352   2.914   5.977  0.7518 -1.0574  1.5659
   89MOL    H1230108   4.184   3.088   6.059 -0.1739  0.9714 -0.0301
   89MOL    H1330109   3.831   3.011   6.050 -0.8517  1.2036  1.4367
   89MOL    H1430110   3.866   2.811   5.985  0.1489  0.6674 -1.2494
   89MOL    H1530111   4.052   2.633   5.929 -2.7205 -0.3825  1.3106
   89MOL    H1630112   4.238   2.624   5.726 -0.9872  0.3067  1.2228
   89MOL    H1730113   4.383   2.534   5.758 -1.6505  0.0297  0.1334
   89MOL    H1830114   4.278   2.554   5.966 -1.1022 -1.0038 -2.0504
   89MOL    C1930115   4.419   2.746   5.703  0.3279  0.2370  0.2894
   89MOL    C2030116   4.410   2.717   5.552  0.4109 -0.0948  1.1135
   89MOL    C2130117   4.503   2.635   5.484 -0.6115  0.1981 -0.3882
   89MOL    C2230118   4.495   2.600   5.347 -0.1011 -0.1847 -0.1518
   89MOL    C2330119   4.380   2.649   5.278 -0.2890  0.1303 -0.1003
   89MOL    O2430120   4.355   2.610   5.151  0.0011  0.1396  0.0046
   89MOL    C2530121   4.280   2.730   5.346 -0.3147  0.4652  0.0075
   89MOL    C2630122   4.298   2.766   5.477  0.0390 -0.3263  0.3968
   89MOL    C2730123   4.561   2.756   5.754 -0.4898 -0.1224 -0.1630
   89MOL    H2830124   4.364   2.837   5.726  1.3898  1.8634 -3.2842
   89MOL    H2930125   4.588   2.592   5.534  0.1821 -0.7355 -2.4549
   89MOL    H3030126   4.555   2.527   5.295 -0.3484  0.1614 -0.9292
   89MOL    H3130127   4.297   2.672   5.110 -0.3263 -0.6642 -0.7679
   89MOL    H3230128   4.182   2.748   5.306 -0.5946  0.7750  0.8371
   89MOL    H3330129   4.219   2.822   5.525  1.0100  1.4900 -0.0665
   89MOL    H3430130   4.626   2.670   5.733  0.9793  0.5164  1.6618
   89MOL    H3530131   4.551   2.737   5.860  0.8518 -1.8163 -0.3152
   89MOL    C3630132   4.638   2.893   5.733  0.9187  0.1499 -0.3728
   89MOL    C3730133   4.765   2.890   5.819 -0.0682 -0.0301  0.6538
   89MOL    C3830134   4.759   2.895   5.957  0.0993  0.6580  0.3653
   89MOL    C3930135   4.882   2.907   6.027  0.1479  0.5070  0.0820
   89MOL    C4030136   5.011   2.916   5.960 -0.0294 -1.0630 -0.2283
   89MOL    O4130137   5.118   2.963   6.031 -0.0429  0.1933  0.6282
   89MOL    C4230138   5.013   2.891   5.820  1.2317 -0.6963  0.1006
   89MOL    C4330139   4.888   2.877   5.752  0.2766  0.0650  0.5260
   89MOL    C4430140   4.559   3.022   5.773 -0.0361 -0.1980  1.1842
   89MOL    H4530141   4.679   2.900   5.632 -0.8183 -0.4707 -1.1567
   89MOL    H4630142   4.663   2.897   6.005 -0.7504 -2.6168 -1.0358
   89MOL    H4730143   4.884   2.922   6.134 -1.6741  0.2575  0.1679
   89MOL    H4830144   5.192   2.995   5.981  0.6475  0.4385  1.7970
   89MOL    H4930145   5.105   2.900   5.764  1.4351 -0.6963  0.4336
   89MOL    H5030146   4.901   2.864   5.646 -0.9782 -1.0900  0.4944
   89MOL    H5130147   4.465   3.009   5.826 -0.2995  0.4170  0.8767
   89MOL    H5230148   4.614   3.090   5.838  1.1908  1.8154 -1.8434
   89MOL    C5330149   4.523   3.113   5.657  0.7468 -0.1337  0.7453
   89MOL    C5430150   4.389   3.179   5.676  0.0709 -0.3657  0.1214
   89MOL    C5530151   4.293   3.176   5.571 -0.0917  0.2492 -0.0020
   89MOL    C5630152   4.166   3.230   5.598  0.7082  0.4917 -0.2449
   89MOL    C5730153   4.138   3.293   5.719  0.2810 -0.6627 -0.0345
   89MOL    O5830154   4.023   3.368   5.731  0.3596 -0.5470  0.4809
   89MOL    C5930155   4.232   3.292   5.819  0.0977  0.1596 -0.5064
   89MOL    C6030156   4.356   3.237   5.800 -0.1747  0.5908 -0.2242
   89MOL    C6130157   4.628   3.216   5.636  0.1626 -0.5095  0.5202
   89MOL    H6230158   4.522   3.045   5.572  2.8898  0.6732  0.0239
   89MOL    H6330159   4.315   3.124   5.479  1.8835 -1.3466  1.3042
   89MOL    H6430160   4.083   3.221   5.530  1.5501 -1.1278 -1.0835
   89MOL    H6530161   4.019   3.425   5.807 -0.0727 -0.1435  0.1590
   89MOL    H6630162   4.204   3.342   5.910 -0.7954  0.1375 -0.7654
   89MOL    H6730163   4.424   3.241   5.884 -0.4433 -0.7546  0.0683
   89MOL    H6830164   4.718   3.154   5.629 -0.9595 -2.0143 -1.0496
   89MOL    H6930165   4.651   3.267   5.730  1.2191  0.5763 -0.3080
   89MOL    C7030166   4.614   3.306   5.508  0.2878 -0.4726  0.0507
   89MOL    C7130167   4.609   3.218   5.374 -0.0095  0.1917  0.2076
   89MOL    C7230168   4.709   3.123   5.354 -0.1982 -0.1154  0.1361
   89MOL    C7330169   4.696   3.028   5.251  0.1487  0.0266  0.3663
   89MOL    C7430170   4.579   3.028   5.171 -0.4104 -0.1248  0.3760
   89MOL    O7530171   4.560   2.929   5.073  0.4452  0.3399  0.3054
   89MOL    C7630172   4.478   3.123   5.198 -0.3407  0.0348  0.6731
   89MOL    C7730173   4.496   3.221   5.297  0.4438  0.2735  0.5657
   89MOL    C7830174   4.727   3.404   5.495  0.1495  0.4415 -0.4659
   89MOL    H7930175   4.525   3.367   5.526  2.3585  2.4224  0.7808
   89MOL    H8030176   4.799   3.141   5.412  0.2454  0.4051 -0.7135
   89MOL    H8130177   4.761   2.943   5.233 -1.3309 -1.5065  2.0220
   89MOL    H8230178   4.598   2.849   5.107  0.5716  0.7569  1.1726
   89MOL    H8330179   4.390   3.117   5.134  0.5121 -1.5104 -0.3870
   89MOL    H8430180   4.408   3.278   5.323  0.0583 -1.0212  2.1921
   89MOL    H8530181   4.730   3.445   5.394  1.6748 -0.9827 -1.0261
   89MOL    H8630182   4.814   3.338   5.507  0.9427  1.5890  0.2738
   89MOL    C8730183   4.738   3.506   5.597 -0.4771 -0.2199 -0.7800
   89MOL    C8830184   4.627   3.604   5.567  0.1215 -0.9817 -0.1947
   89MOL    C8930185   4.631   3.690   5.458 -0.2393 -0.1000 -0.1642
   89MOL    C9030186   4.531   3.782   5.448 -0.1012 -1.1811 -0.4317
   89MOL    C9130187   4.423   3.788   5.539  0.2384  0.1342 -0.5788
   89MOL    O9230188   4.338   3.895   5.526  0.6592  0.1718  0.4121
   89MOL    C9330189   4.417   3.698   5.647 -0.4298  0.0923  0.5567
   89MOL    C9430190   4.521   3.609   5.669  0.2687  0.4830  0.7404
   89MOL    C9530191   4.879   3.579   5.587 -0.6710 -0.2666 -0.2969
   89MOL    H9630192   4.716   3.476   5.699  3.6800  1.4382  0.7097
   89MOL    H9730193   4.718   3.686   5.394 -0.5064  1.3896 -0.6378
   89MOL    H9830194   4.537   3.869   5.383  1.3213  0.0378  1.2823
   89MOL    H9930195   4.248   3.867   5.515  0.1516  1.7903  0.2802
   89MOL   H10030196   4.331   3.691   5.713 -0.9535  0.1006 -0.1271
   89MOL   H10130197   4.518   3.538   5.749 -1.6108  0.1779  0.4253
   89MOL   H10230198   4.911   3.606   5.486 -0.6521 -0.7156 -0.4164
   89MOL   H10330199   4.869   3.672   5.642 -0.2635  1.3063 -2.7890
   89MOL   C10430200   4.992   3.503   5.662  0.7019  0.3576  0.2020
   89MOL   C10530201   4.953   3.456   5.799  0.5058 -0.1439  0.1302
   89MOL   C10630202   4.924   3.548   5.898 -0.1435  0.7670  0.0373
   89MOL   C10730203   4.894   3.504   6.030  0.3886 -0.6352 -0.5979
   89MOL   C10830204   4.903   3.373   6.067  0.2102  0.1474 -0.6311
   89MOL   O10930205   4.872   3.334   6.191  0.2969 -0.0317 -0.3190
   89MOL   C11030206   4.921   3.274   5.969  0.1632  0.7324 -0.0998
   89MOL   C11130207   4.951   3.319   5.834 -0.5624  0.3521 -0.2143
   89MOL   C11230208   5.127   3.577   5.650 -0.4026 -0.5000  0.0340
   89MOL   H11330209   5.010   3.407   5.614  2.5031  0.4952  0.5549
   89MOL   H11430210   4.921   3.652   5.869 -1.2673  0.7397  0.0375
   89MOL   H11530211   4.876   3.584   6.100  1.5677 -0.9114  0.0349
   89MOL   H11630212   4.902   3.401   6.251 -1.5221  1.4198 -1.0017
   89MOL   H11730213   4.915   3.172   6.003 -1.0415  0.9334  0.3039
   89MOL   H11830214   4.968   3.238   5.764  0.5277 -0.1464  0.6040
   89MOL   H11930215   5.118   3.679   5.686  0.4124 -0.7337  0.9174
   89MOL   H12030216   5.153   3.593   5.545 -1.0683  1.3021  0.1269
   89MOL   C12130217   5.248   3.516   5.725 -0.2140  0.4858 -0.4587
   89MOL   C12230218   5.289   3.378   5.674  0.3109 -0.2589  0.2012
   89MOL   C12330219   5.268   3.264   5.755  0.2301  0.2342 -0.7597
   89MOL   C12430220   5.293   3.138   5.703 -0.4686  0.0448 -0.0771
   89MOL   C12530221   5.346   3.119   5.575  0.4307  0.2006 -0.2033
   89MOL   O12630222   5.384   2.996   5.529 -0.1332  0.3898  0.4536
   89MOL   C12730223   5.353   3.233   5.494  0.0053 -0.0314 -0.1303
   89MOL   C12830224   5.331   3.362   5.543  0.2421 -0.3915  0.1501
   89MOL   C12930225   5.369   3.610   5.726  0.4424  0.5939  0.4102
   89MOL   H13030226   5.208   3.500   5.825 -0.1773 -0.6012 -0.6121
   89MOL   H13130227   5.243   3.282   5.859  0.1840  0.8119 -0.8713
   89MOL   H13230228   5.278   3.056   5.771 -1.1087 -1.5162 -2.0317
   89MOL   H13330229   5.409   2.931   5.592  3.1171  0.4730 -0.6443
   89MOL   H13430230   5.369   3.240   5.388 -0.6578 -4.4258 -0.6265
   89MOL   H13530231   5.350   3.441   5.472  0.1726 -0.2599  0.2793
   89MOL   H13630232   5.330   3.711   5.739  0.1644  0.3304  1.6765
   89MOL   H13730233   5.409   3.620   5.625 -1.1069 -0.0799 -0.2860
   89MOL   C13830234   5.476   3.570   5.832  1.0804 -0.4602  0.0314
   89MOL   C13930235   5.424   3.548   5.975  0.4433 -0.3022  0.3598
   89MOL   C14030236   5.409   3.419   6.028  0.1979 -0.0236  0.2341
   89MOL   C14130237   5.356   3.394   6.151 -0.4235  0.3709  0.1257
   89MOL   C14230238   5.310   3.505   6.225 -0.2682  0.4116 -0.7783
   89MOL   O14330239   5.243   3.481   6.339 -0.5593  0.0053  0.5924
   89MOL   C14430240   5.328   3.641   6.180 -0.8773  0.3650  0.4529
   89MOL   C14530241   5.385   3.659   6.051  0.4562 -0.0335  0.5577
   89MOL   C14630242   5.598   3.666   5.830 -0.8015 -0.0735  0.3593
   89MOL   H14730243   5.508   3.469   5.807  3.4274 -0.1613  1.6298
   89MOL   H14830244   5.434   3.344   5.954 -0.5537  1.6703 -1.7895
   89MOL   H14930245   5.365   3.295   6.193  0.4635  1.1284  1.7602
   89MOL   H15030246   5.209   3.393   6.344  1.5293 -0.8479 -0.1184
   89MOL   H15130247   5.293   3.727   6.235  2.0149  1.0814  1.2237
   89MOL   H15230248   5.397   3.758   6.009  0.7021 -0.7838 -1.1788
   89MOL   H15330249   5.658   3.652   5.920 -0.9600 -0.0190  0.4752
   89MOL   H15430250   5.553   3.765   5.821  0.7173  0.4252 -2.3342
   89MOL   C15530251   5.694   3.635   5.709  0.0960  0.1673 -0.0632
   89MOL   C15630252   5.767   3.506   5.736  0.2514  0.3501  0.0119
   89MOL   C15730253   5.735   3.383   5.673  1.0261  0.0390  0.3066
   89MOL   C15830254   5.823   3.273   5.681  0.6036 -0.3631 -0.3832
   89MOL   C15930255   5.937   3.285   5.763  0.1169 -0.6148 -0.2873
   89MOL   O16030256   6.023   3.181   5.785  0.4716  0.4617  0.0806
   89MOL   C16130257   5.963   3.401   5.833  0.0534  0.3751 -0.4765
   89MOL   C16230258   5.875   3.513   5.823  0.4806 -0.0041  0.1001
   89MOL   C16330259   5.791   3.746   5.674 -0.4274  0.1460 -0.1912
   89MOL   H16430260   5.632   3.620   5.621  0.2961 -0.5492 -0.0799
   89MOL   H16530261   5.638   3.369   5.627  0.5573  0.2849  1.1995
   89MOL   H16630262   5.802   3.184   5.623 -0.0530 -0.9033  0.6737
   89MOL   H16730263   6.001   3.092   5.760  1.7786  0.4026 -0.9690
   89MOL   H16830264   6.042   3.422   5.903 -0.8474 -0.4154  0.8182
   89MOL   H16930265   5.887   3.600   5.885  2.4599  0.3651 -0.7416
   89MOL   H17030266   5.859   3.702   5.602 -1.1779  0.5306 -1.1576
   89MOL   H17130267   5.833   3.790   5.765 -0.4342  0.3438 -0.2826
   89MOL   C17230268   5.747   3.868   5.599  0.5096  0.0797  0.7653
   89MOL   C17330269   5.679   3.834   5.465  0.3779  0.1481  0.1066
   89MOL   C17430270   5.752   3.772   5.356 -0.6957  0.2374 -0.8694
   89MOL   C17530271   5.694   3.759   5.233  0.8190 -0.1952  0.0022
   89MOL   C17630272   5.555   3.783   5.217 -1.0442 -0.2760  0.3938
   89MOL   O17730273   5.495   3.763   5.092 -0.0847 -0.2387 -0.0157
   89MOL   C17830274   5.473   3.831   5.323  0.6239  0.1952 -0.4501
   89MOL   C17930275   5.544   3.857   5.446  0.7787 -0.4789 -0.1981
   89MOL   C18030276   5.865   3.966   5.577 -0.5572  0.3186  0.3391
   89MOL   H18130277   5.668   3.923   5.651 -0.0566  1.3682 -1.3681
   89MOL   H18230278   5.857   3.750   5.369 -0.5881  0.4523 -1.3581
   89MOL   H18330279   5.760   3.724   5.155  0.7621 -0.7602  0.2023
   89MOL   H18430280   5.413   3.806   5.074 -0.2057 -0.0939  0.8520
   89MOL   H18530281   5.366   3.847   5.310  0.2682 -3.1426 -2.2499
   89MOL   H18630282   5.492   3.899   5.531  2.7879  1.3627  0.1696
   89MOL   H18730283   5.948   3.904   5.543  0.0855  1.3588 -0.0230
   89MOL   H18830284   5.894   4.005   5.675 -0.0006  1.4737 -0.2771
   89MOL   C18930285   5.834   4.094   5.493 -0.6969  0.1230  0.2103
   89MOL   C19030286   5.717   4.171   5.538  0.5650 -0.7688  0.3532
   89MOL   C19130287   5.605   4.178   5.458 -0.5149  0.3813 -0.3912
   89MOL   C19230288   5.492   4.253   5.493  0.3876 -0.5173  0.3348
   89MOL   C19330289   5.487   4.313   5.625  0.3832 -0.4229 -0.1975
   89MOL   O19430290   5.373   4.388   5.657  0.2043 -0.2096 -0.2281
   89MOL   C19530291   5.606   4.323   5.703 -0.8791  0.3275  0.9244
   89MOL   C19630292   5.716   4.239   5.663  0.0623 -0.6491  0.4268
   89MOL   C19730293   5.960   4.194   5.498  0.2339 -0.7108 -0.2542
   89MOL   H19830294   5.832   4.062   5.389 -0.7892  0.3248  0.1489
   89MOL   H19930295   5.603   4.129   5.362 -0.8892 -1.0001  0.3175
   89MOL   H20030296   5.410   4.259   5.423  0.6483 -1.1820 -0.0325
   89MOL   H20130297   5.392   4.476   5.688  1.7617 -0.1044 -1.4285
   89MOL   H20230298   5.603   4.381   5.794 -1.0087 -1.1905  1.9011
   89MOL   H20330299   5.801   4.237   5.729  0.5896 -1.6827 -0.2822
   89MOL   H20430300   6.057   4.147   5.518  1.3713  1.5522 -0.2732
   89MOL   H20530301   5.963   4.257   5.587  1.0541 -1.4585  0.2565
   89MOL   C20630302   5.994   4.271   5.372  0.1788  0.8908  0.6973
   89MOL   C20730303   6.118   4.343   5.386 -0.0998 -0.3549  0.1635
   89MOL   C20830304   6.223   4.333   5.287  0.6450 -0.2830 -0.2107
   89MOL   C20930305   6.337   4.415   5.293  0.5137  0.0536 -0.1701
   89MOL   C21030306   6.359   4.473   5.414  0.4224 -0.0210 -0.3240
   89MOL   O21130307   6.468   4.547   5.442 -0.2604 -0.4411  0.5864
   89MOL   C21230308   6.259   4.488   5.516  0.3892 -0.4567 -0.3656
   89MOL   C21330309   6.139   4.432   5.493  0.2113  0.1511  0.2440
   89MOL   C21430310   5.886   4.375   5.326 -0.1082  0.4190  0.3188
   89MOL   H21530311   6.000   4.195   5.294 -1.1125  0.3801  1.0808
   89MOL   H21630312   6.205   4.286   5.191  0.4354 -2.6516  0.9546
   89MOL   H21730313   6.415   4.401   5.221 -0.0696 -0.0966 -0.7796
   89MOL   H21830314   6.488   4.549   5.534 -0.6990  2.5760  0.6582
   89MOL   H21930315   6.278   4.537   5.610 -0.9271  0.3049 -0.4884
   89MOL   H22030316   6.058   4.444   5.563  1.0660  3.0525  0.7933
   89MOL   H22130317   5.942   4.467   5.309  2.1670 -1.3029 -1.8993
   89MOL   H22230318   5.827   4.404   5.412  1.3711 -0.6553  1.7244
   89MOL   C22330319   5.796   4.349   5.202 -0.2194  0.0142 -0.2468
   89MOL   C22430320   5.839   4.238   5.105 -0.2653  0.7369  0.0196
   89MOL   C22530321   5.954   4.259   5.022  0.5921  0.2138  0.5616
   89MOL   C22630322   5.974   4.175   4.910  0.2084  0.3807 -0.9866
   89MOL   C22730323   5.895   4.058   4.894  0.2270  0.2404  0.2078
   89MOL   O22830324   5.904   3.986   4.780  0.1393  0.0600  0.1019
   89MOL   C22930325   5.795   4.026   4.986  0.0350 -0.2783  0.3846
   89MOL   C23030326   5.762   4.124   5.082 -0.5825  0.7750 -0.4925
   89MOL   C23130327   5.760   4.497   5.145  0.6392  0.3296 -0.3185
   89MOL   H23230328   5.704   4.324   5.255  0.6578 -0.2030  1.2193
   89MOL   H23330329   6.019   4.342   5.048  0.4076  0.4079  0.4128
   89MOL   H23430330   6.061   4.186   4.847  0.6650  3.5744  0.0936
   89MOL   H23530331   5.849   3.909   4.774  0.7691 -0.3825 -0.0613
   89MOL   H23630332   5.733   3.941   4.962  1.3372 -0.6318 -1.9214
   89MOL   H23730333   5.677   4.090   5.139 -1.0139  0.1253 -1.5121
   89MOL   H23830334   5.693   4.542   5.219 -1.3645  0.8634 -2.3813
   89MOL   H23930335   5.851   4.554   5.134  0.5690  0.3094 -0.9862
   89MOL   C24030336   5.699   4.503   5.004 -0.4070 -0.1082 -0.1309
   89MOL   C24130337   5.571   4.415   4.999  0.1144 -0.1196 -0.5098
   89MOL   C24230338   5.477   4.426   5.100  0.6790  0.3982 -0.2697
   89MOL   C24330339   5.357   4.355   5.085  0.5071  0.0925  0.4187
   89MOL   C24430340   5.346   4.257   4.983 -0.8867 -0.4523 -0.4933
   89MOL   O24530341   5.234   4.189   4.969  0.2446  0.4534 -0.2715
   89MOL   C24630342   5.441   4.241   4.886 -0.6442  0.3429  0.6622
   89MOL   C24730343   5.551   4.327   4.886  0.2067 -0.0875  0.1275
   89MOL   C24830344   5.671   4.653   4.952  0.3389  0.0632  0.1014
   89MOL   H24930345   5.775   4.451   4.945 -1.6330  0.2297 -2.0456
   89MOL   H25030346   5.491   4.508   5.169  0.2484 -1.4080  2.0393
   89MOL   H25130347   5.269   4.365   5.146  0.8086 -1.4739  1.1280
   89MOL   H25230348   5.167   4.221   5.028 -0.9409 -0.5919 -1.0212
   89MOL   H25330349   5.438   4.171   4.804 -0.0293  0.5810  0.4267
   89MOL   H25430350   5.627   4.330   4.809 -1.4609  2.2591 -1.4736
   89MOL   H25530351   5.621   4.659   4.855  2.3052  2.0087 -0.8311
   89MOL   H25630352   5.598   4.701   5.018  0.3987  0.4749 -0.1331
   89MOL   C25730353   5.796   4.750   4.941  0.4420 -0.3911 -0.3749
   89MOL   C25830354   5.897   4.700   4.845 -0.6052 -0.4546  0.0877
   89MOL   C25930355   5.891   4.725   4.705  0.2052 -0.6534 -0.5712
   89MOL   C26030356   5.980   4.670   4.613 -0.1260 -0.5611  0.4680
   89MOL   C26130357   6.082   4.586   4.661  0.7191 -0.4020 -0.3631
   89MOL   O26230358   6.179   4.531   4.577  0.6540 -0.0096  0.0785
   89MOL   C26330359   6.097   4.563   4.802  0.8063  0.6261  0.0753
   89MOL   C26430360   6.006   4.624   4.889  0.2261 -0.7990 -0.4421
   89MOL   C26530361   5.764   4.899   4.936 -0.9384 -0.1213 -0.4932
   89MOL   H26630362   5.841   4.727   5.037  2.1892  0.1633 -1.0397
   89MOL   H26730363   5.813   4.789   4.665  1.5848  1.6096  0.3092
   89MOL   H26830364   5.955   4.686   4.509 -1.0250  2.2079  1.0803
   89MOL   H26930365   6.175   4.556   4.486  1.0956 -0.5651 -0.0982
   89MOL   H27030366   6.179   4.500   4.835  0.1085 -0.3271  0.0325
   89MOL   H27130367   6.006   4.600   4.995 -2.6242  0.1619 -0.2042
   89MOL   H27230368   5.677   4.919   4.998  0.5460 -2.2497  2.3720
   89MOL   H27330369   5.734   4.925   4.834 -1.3899 -0.0651 -0.3441
   89MOL   C27430370   5.894   4.995   4.978  0.0954 -0.2728  0.2537
   89MOL   C27530371   5.944   4.956   5.118  0.0882  0.1614  0.2083
   89MOL   C27630372   6.080   4.959   5.138 -0.1006  0.2917 -0.2633
   89MOL   C27730373   6.131   4.922   5.261  0.0865 -0.4908 -0.3548
   89MOL   C27830374   6.056   4.876   5.366  0.0520 -0.0607 -0.3252
   89MOL   O27930375   6.103   4.830   5.488  0.1072  0.2852  0.3400
   89MOL   C28030376   5.914   4.871   5.352  0.2124 -0.2394 -0.1096
   89MOL   C28130377   5.860   4.917   5.229 -0.1150 -0.3613 -0.1189
   89MOL   C28230378   5.864   5.148   4.971 -0.2841  0.5228  0.1582
   89MOL   H28330379   5.972   4.983   4.903  0.4844  2.0356  0.2627
   89MOL   H28430380   6.151   4.997   5.066 -0.2465 -2.6496 -2.0336
   89MOL   H28530381   6.238   4.935   5.266  0.1496 -0.4687 -1.5153
   89MOL   H28630382   6.195   4.840   5.509  0.5176  0.8482 -1.6466
   89MOL   H28730383   5.855   4.838   5.436  0.6145 -1.5238 -0.3254
   89MOL   H28830384   5.753   4.920   5.227 -0.0807  0.7526 -1.1726
   89MOL   H28930385   5.770   5.162   5.026  0.3679  0.4758  1.3026
   89MOL   H29030386   5.944   5.201   5.021  2.3445 -2.7297 -0.3902
   89MOL   C29130387   5.844   5.185   4.829 -0.3972  0.3957 -0.3391
   89MOL   C29230388   5.969   5.188   4.751  0.9159  0.8989 -0.4129
   89MOL   C29330389   6.070   5.280   4.784  0.0357 -0.5003  0.7948
   89MOL   C29430390   6.186   5.294   4.704  0.2201  0.7938 -0.1815
   89MOL   C29530391   6.201   5.215   4.590 -0.3455  0.2834  0.2421
   89MOL   O29630392   6.314   5.220   4.518  0.1462  0.1202  0.3773
   89MOL   C29730393   6.101   5.124   4.553  0.3297  0.2558 -0.5119
   89MOL   C29830394   5.993   5.109   4.632  1.2171  0.0924 -0.5173
   89MOL   C29930395   5.767   5.314   4.812 -0.6639  0.7656  0.0937
   89MOL   H30030396   5.770   5.124   4.778 -0.8192 -1.4004  2.3294
   89MOL   H30130397   6.059   5.341   4.873  2.8840 -0.1615  0.9520
   89MOL   H30230398   6.254   5.372   4.734  0.4119  0.5345  0.0670
   89MOL   H30330399   6.367   5.297   4.531  0.8533  0.0611 -1.8915
   89MOL   H30430400   6.123   5.062   4.467  0.7036 -0.1083 -0.1548
   89MOL   H30530401   5.911   5.043   4.608 -0.1407  2.0344 -1.3166
   89MOL   H30630402   5.777   5.326   4.704  0.2224 -0.6108  0.0092
   89MOL   H30730403   5.817   5.402   4.853  0.0654 -0.8324  2.7590
   89MOL   C30830404   5.617   5.318   4.857  0.3986 -0.0025 -0.5065
   89MOL   C30930405   5.524   5.203   4.812  0.1329 -0.1658  0.0121
   89MOL   C31030406   5.492   5.178   4.676  0.3600  0.1758 -0.0114
   89MOL   C31130407   5.423   5.062   4.635  0.2266  0.2626 -0.2392
   89MOL   C31230408   5.382   4.969   4.729 -0.1589  0.4336 -0.3368
   89MOL   O31330409   5.331   4.846   4.691  0.5509 -0.3481  0.3831
   89MOL   C31430410   5.411   4.992   4.864  0.4214  0.2441  0.2531
   89MOL   C31530411   5.477   5.109   4.906 -0.1360  0.8411 -0.1397
   89MOL   C31630412   5.557   5.462   4.866 -0.3522 -0.7191  0.4178
   89MOL   H31730413   5.637   5.301   4.963  0.2688 -0.4207 -0.5465
   89MOL   H31830414   5.533   5.235   4.594  1.0269 -1.8725 -1.1434
   89MOL   H31930415   5.395   5.052   4.531 -1.4121 -1.1264  0.3143
   89MOL   H32030416   5.318   4.803   4.774 -2.9971 -0.1482  0.0264
   89MOL   H32130417   5.381   4.921   4.939 -2.1534  1.2566  0.2484
   89MOL   H32230418   5.495   5.120   5.011 -2.0195  1.8389  0.1036
   89MOL   H32330419   5.519   5.495   4.770 -1.0252  1.0410  1.2689
   89MOL   H32430420   5.637   5.525   4.905  0.6955 -0.6706 -1.7300
   89MOL   C32530421   5.444   5.479   4.974  0.0615 -0.2553  0.7754
   89MOL   C32630422   5.358   5.598   4.937 -0.5818 -1.2064 -0.3298
   89MOL   C32730423   5.229   5.588   4.874 -0.2634 -0.0397 -0.6220
   89MOL   C32830424   5.155   5.704   4.837  0.0065 -0.3915 -0.3510
   89MOL   C32930425   5.208   5.830   4.854  0.6844  0.4633 -0.2111
   89MOL   O33030426   5.139   5.934   4.808 -0.0600 -0.2607  0.5097
   89MOL   C33130427   5.335   5.843   4.912 -0.4847  0.1474 -0.7400
   89MOL   C33230428   5.407   5.730   4.960 -0.2024  0.1182 -0.4769
   89MOL   C33330429   5.498   5.479   5.125  0.6767 -0.1106  0.9155
   89MOL   H33430430   5.371   5.399   4.962 -0.2774  0.2271 -0.4658
   89MOL   H33530431   5.190   5.489   4.855 -1.0006  0.2529 -0.6356
   89MOL   H33630432   5.055   5.705   4.797  0.1510  0.2987 -0.7071
   89MOL   H33730433   5.172   6.011   4.851 -0.6110  0.2403  0.0591
   89MOL   H33830434   5.371   5.942   4.935 -2.1069  0.8589 -1.2183
   89MOL   H33930435   5.502   5.736   5.011 -0.4690 -2.4206  0.3582
   89MOL   H34030436   5.592   5.535   5.134  0.0923  1.0648 -0.0528
   89MOL   H34130437   5.526   5.379   5.155 -0.0775 -0.5764  0.0946
   89MOL   H34230438   5.417   5.518   5.186  1.6469  0.6799  1.7149
   90MOL     C130439   2.429   2.998   6.930 -0.8031  0.2735 -0.1223
   90MOL     C230440   2.568   2.949   6.927  0.0395 -0.0138 -0.3750
   90MOL     C330441   2.578   2.809   6.946  0.1502 -0.6526  0.0125
   90MOL     C430442   2.704   2.746   6.943  0.8532 -0.0484 -0.5219
   90MOL     C530443   2.818   2.821   6.932  0.2467 -0.4199 -0.1084
   90MOL     O630444   2.938   2.754   6.931 -0.6808  0.1068 -0.0784
   90MOL     C730445   2.811   2.963   6.919 -0.0357 -0.1548 -0.0277
   90MOL     C830446   2.687   3.026   6.912  0.6592  0.1727 -0.4179
   90MOL     C930447   2.380   3.034   7.072 -0.3378 -1.1946  0.5201
   90MOL    H1030448   2.437   3.087   6.868 -0.6998  0.9389  0.8305
   90MOL    H1130449   2.493   2.747   6.969  1.4194 -2.0205  1.0704
   90MOL    H1230450   2.708   2.639   6.942  1.3234 -0.0314 -0.3262
   90MOL    H1330451   3.005   2.803   6.976 -2.1608  1.5447  0.6008
   90MOL    H1430452   2.904   3.017   6.921 -0.3774  0.3941  1.1719
   90MOL    H1530453   2.665   3.130   6.896 -0.5085  0.0799  0.5215
   90MOL    H1630454   2.440   3.121   7.099 -0.0575 -0.7822 -1.3067
   90MOL    H1730455   2.415   2.960   7.143 -0.1236 -1.5452  0.0561
   90MOL    H1830456   2.361   2.923   6.889 -1.0408 -0.7928  2.1519
   90MOL    C1930457   2.234   3.069   7.079  0.0874  0.3571  0.0348
   90MOL    C2030458   2.199   3.191   6.996  0.5095 -0.1618  0.4258
   90MOL    C2130459   2.145   3.178   6.866  0.2414 -0.1120  0.3889
   90MOL    C2230460   2.112   3.295   6.790  0.5862  0.2893 -0.2329
   90MOL    C2330461   2.124   3.419   6.847 -0.1705 -0.4982  0.0646
   90MOL    O2430462   2.085   3.522   6.777 -0.0056  0.4006 -0.0154
   90MOL    C2530463   2.173   3.435   6.978  0.3646 -0.5613 -0.1877
   90MOL    C2630464   2.212   3.320   7.052  0.7415  0.6584  0.0966
   90MOL    C2730465   2.173   3.057   7.217 -0.3468 -0.2334 -0.6287
   90MOL    H2830466   2.189   2.989   7.020 -0.4669 -0.6424  1.7957
   90MOL    H2930467   2.120   3.081   6.827 -0.4011 -0.1762  0.9505
   90MOL    H3030468   2.068   3.287   6.692 -1.1013 -3.1011  0.7061
   90MOL    H3130469   2.001   3.513   6.734  0.2543 -0.5293 -0.3331
   90MOL    H3230470   2.189   3.529   7.028  0.1008  0.4064 -1.8949
   90MOL    H3330471   2.243   3.326   7.155 -0.5563 -1.0321  0.6278
   90MOL    H3430472   2.188   3.147   7.275 -0.8425 -0.9730  0.6672
   90MOL    H3530473   2.238   2.985   7.266  0.5297 -0.8440 -2.6475
   90MOL    C3630474   2.025   3.009   7.231  0.4661  0.2578  0.1949
   90MOL    C3730475   1.937   3.133   7.205 -0.3216  0.0475  0.0873
   90MOL    C3830476   1.897   3.163   7.078  0.3146 -0.2723  0.5732
   90MOL    C3930477   1.809   3.273   7.060  1.0914  0.3737 -0.1157
   90MOL    C4030478   1.771   3.357   7.165  0.0291  0.7128  0.1526
   90MOL    O4130479   1.676   3.463   7.153 -0.3876  0.4898  0.5523
   90MOL    C4230480   1.802   3.314   7.296  0.1493 -0.4357 -0.6928
   90MOL    C4330481   1.890   3.203   7.315  0.2621 -0.5034 -0.2987
   90MOL    C4430482   2.003   2.933   7.361 -0.2419 -0.2243  0.4938
   90MOL    H4530483   1.996   2.934   7.156 -0.0972  2.1542 -1.5294
   90MOL    H4630484   1.921   3.105   6.990  1.4924  0.8460  0.1421
   90MOL    H4730485   1.777   3.283   6.957  0.8781  0.0383 -0.0846
   90MOL    H4830486   1.640   3.496   7.234  0.8146  0.6709  1.0350
   90MOL    H4930487   1.768   3.370   7.382 -1.6819 -0.7900 -1.1687
   90MOL    H5030488   1.918   3.179   7.416  1.1252 -0.1211 -0.4464
   90MOL    H5130489   2.080   2.979   7.425  0.2043  0.5984 -0.6139
   90MOL    H5230490   1.906   2.958   7.403 -0.8503  1.0202 -1.5894
   90MOL    C5330491   1.993   2.779   7.345 -0.0580 -0.3471  0.1145
   90MOL    C5430492   2.124   2.721   7.292 -0.1077  0.2024  0.5112
   90MOL    C5530493   2.234   2.710   7.373  0.0373 -0.0554  0.0397
   90MOL    C5630494   2.354   2.649   7.335 -0.5181  0.2152 -0.1269
   90MOL    C5730495   2.369   2.620   7.200 -0.1616 -0.2917 -0.1968
   90MOL    O5830496   2.483   2.559   7.164 -0.0174  0.4996 -0.4151
   90MOL    C5930497   2.267   2.647   7.104  0.3950  0.2152  0.0461
   90MOL    C6030498   2.138   2.693   7.149  0.2785  0.4332 -0.0109
   90MOL    C6130499   1.946   2.709   7.471  0.3106  0.2972 -0.0600
   90MOL    H6230500   1.927   2.750   7.263 -1.6975  3.3313  0.0195
   90MOL    H6330501   2.236   2.751   7.473 -1.1937  1.3124 -0.4777
   90MOL    H6430502   2.433   2.629   7.405  0.9349 -2.5227 -2.4082
   90MOL    H6530503   2.483   2.533   7.074  1.9212 -3.3703  0.6085
   90MOL    H6630504   2.277   2.629   6.997  0.6179  0.3837  0.0375
   90MOL    H6730505   2.059   2.708   7.078  1.6414 -1.0456 -1.8717
   90MOL    H6830506   1.846   2.742   7.500  0.2079 -0.5181  0.5255
   90MOL    H6930507   2.014   2.725   7.555 -0.8053 -1.4934  1.2304
   90MOL    C7030508   1.932   2.553   7.462 -0.3159 -0.1096  0.0718
   90MOL    C7130509   1.852   2.505   7.335  0.3671  0.4478 -0.2371
   90MOL    C7230510   1.897   2.390   7.265  0.1156  0.2885  0.3620
   90MOL    C7330511   1.820   2.326   7.162 -0.3916 -0.6512  0.3424
   90MOL    C7430512   1.690   2.379   7.136 -0.1359  0.0854 -0.2115
   90MOL    O7530513   1.604   2.314   7.047 -0.3431  0.0419  0.1861
   90MOL    C7630514   1.647   2.497   7.208 -0.3559  0.5420  0.8105
   90MOL    C7730515   1.731   2.557   7.308  0.0200  1.0599  0.0575
   90MOL    C7830516   1.891   2.473   7.588 -0.1389  0.9052  1.0716
   90MOL    H7930517   2.032   2.512   7.447 -0.5679 -0.7940  0.2604
   90MOL    H8030518   1.985   2.332   7.291 -0.3355  0.4653  2.3888
   90MOL    H8130519   1.855   2.241   7.105  3.7454  1.8259 -1.0462
   90MOL    H8230520   1.630   2.226   7.027 -0.8761 -0.0044 -0.3224
   90MOL    H8330521   1.557   2.551   7.181 -0.0202 -0.1112 -1.7396
   90MOL    H8430522   1.699   2.647   7.357  1.3068  0.9232  1.1828
   90MOL    H8530523   1.948   2.503   7.676 -2.0726  2.7175  1.7610
   90MOL    H8630524   1.917   2.367   7.582 -1.4921  0.6601 -0.6790
   90MOL    C8730525   1.752   2.485   7.649  0.2275  0.2445 -0.0371
   90MOL    C8830526   1.726   2.615   7.719  0.1289  0.4713 -0.0284
   90MOL    C8930527   1.620   2.696   7.674 -0.6839  0.7054 -0.4160
   90MOL    C9030528   1.584   2.811   7.747 -0.0076  0.4997  0.2461
   90MOL    C9130529   1.650   2.845   7.863  0.6107  0.5076  0.2889
   90MOL    O9230530   1.614   2.953   7.937  0.2184 -0.1554 -0.2133
   90MOL    C9330531   1.755   2.759   7.916 -0.1322  0.3562  0.1972
   90MOL    C9430532   1.789   2.645   7.841  0.0974  0.7658  0.1311
   90MOL    C9530533   1.711   2.370   7.738 -0.1504 -0.0383  0.9138
   90MOL    H9630534   1.683   2.485   7.565 -0.3069 -1.7677  0.3603
   90MOL    H9730535   1.566   2.680   7.582  0.5808 -0.0841 -1.0344
   90MOL    H9830536   1.498   2.867   7.715 -0.1740 -0.9390 -1.9949
   90MOL    H9930537   1.663   2.963   8.018 -2.7443  2.3365  1.4034
   90MOL   H10030538   1.798   2.790   8.010 -1.3609  0.1470  0.8422
   90MOL   H10130539   1.866   2.578   7.877 -0.0632  0.3265 -0.3255
   90MOL   H10230540   1.791   2.348   7.809 -0.7839 -1.8196  1.0881
   90MOL   H10330541   1.629   2.406   7.799  0.2243  0.2031  1.2806
   90MOL   C10430542   1.668   2.251   7.654  0.3819  0.5761 -0.1587
   90MOL   C10530543   1.537   2.270   7.589  0.4578  0.4768 -0.9254
   90MOL   C10630544   1.520   2.236   7.451  0.4781  0.3248 -0.3469
   90MOL   C10730545   1.401   2.259   7.386  0.8538 -0.7209  0.2421
   90MOL   C10830546   1.293   2.306   7.460  1.0879 -0.0964 -0.2708
   90MOL   O10930547   1.172   2.330   7.402  0.4015  0.1301 -0.8019
   90MOL   C11030548   1.303   2.336   7.597 -0.0860 -0.6670  0.3735
   90MOL   C11130549   1.425   2.315   7.662  0.1838 -0.5032  0.5422
   90MOL   C11230550   1.674   2.126   7.739 -1.1249 -0.7740 -0.1819
   90MOL   H11330551   1.743   2.229   7.578 -1.1527  2.2932 -2.2302
   90MOL   H11430552   1.599   2.199   7.387  0.0475 -0.1416 -0.6092
   90MOL   H11530553   1.402   2.243   7.280  0.9315  0.7466  0.0133
   90MOL   H11630554   1.159   2.268   7.332 -1.3789 -0.1020 -0.2935
   90MOL   H11730555   1.222   2.374   7.657 -1.1527 -0.3213 -1.2560
   90MOL   H11830556   1.430   2.349   7.764 -2.0776  1.6737 -0.0353
   90MOL   H11930557   1.615   2.149   7.828  0.5229 -0.4498  0.8502
   90MOL   H12030558   1.775   2.125   7.780 -0.1590 -0.3024 -2.5126
   90MOL   C12130559   1.647   1.985   7.671  0.4209 -0.0756  0.4112
   90MOL   C12230560   1.747   1.880   7.721  0.2966  0.6034  0.1069
   90MOL   C12330561   1.762   1.854   7.859 -0.3688 -0.5519  0.7004
   90MOL   C12430562   1.849   1.757   7.904 -0.6336 -0.2989 -0.5303
   90MOL   C12530563   1.917   1.675   7.813  0.1724  0.2812  0.9829
   90MOL   O12630564   1.984   1.575   7.870  0.4714  0.4155 -0.0341
   90MOL   C12730565   1.894   1.684   7.673 -0.1993  0.4664  0.6690
   90MOL   C12830566   1.813   1.794   7.628 -0.1186 -0.2344 -0.3730
   90MOL   C12930567   1.503   1.946   7.700 -0.6410  0.4817 -0.3322
   90MOL   H13030568   1.661   1.984   7.563 -0.0941 -1.9936  0.3488
   90MOL   H13130569   1.703   1.904   7.934 -0.2302 -0.2213  0.5924
   90MOL   H13230570   1.855   1.729   8.008  1.1060 -3.0127 -1.2927
   90MOL   H13330571   2.026   1.519   7.806 -0.1853 -1.0787  0.8014
   90MOL   H13430572   1.929   1.605   7.609  0.4366 -1.2927  3.0965
   90MOL   H13530573   1.807   1.803   7.520  0.3285  0.2784 -0.3549
   90MOL   H13630574   1.433   2.025   7.670  0.1897  1.4581  0.2741
   90MOL   H13730575   1.502   1.939   7.808  0.4999  0.0175 -0.3432
   90MOL   C13830576   1.451   1.817   7.631 -0.2713  1.0113  0.1128
   90MOL   C13930577   1.454   1.822   7.480 -0.0807 -0.1688  0.1736
   90MOL   C14030578   1.529   1.723   7.413 -0.0037  0.3385  0.4155
   90MOL   C14130579   1.537   1.721   7.272 -0.5538 -0.1974  0.2936
   90MOL   C14230580   1.460   1.813   7.192  0.1231 -0.1598  0.2311
   90MOL   O14330581   1.470   1.806   7.060 -0.0448 -0.1054  0.0652
   90MOL   C14430582   1.381   1.909   7.257 -0.3562  1.1238  0.7917
   90MOL   C14530583   1.381   1.912   7.397  0.1769  0.2812 -1.1223
   90MOL   C14630584   1.324   1.761   7.697  0.2654  0.6358  0.2268
   90MOL   H14730585   1.531   1.749   7.660 -1.2684  0.7041  2.1890
   90MOL   H14830586   1.587   1.650   7.466 -0.4563 -0.7584 -0.5864
   90MOL   H14930587   1.601   1.653   7.218  1.1489  0.3460  1.5999
   90MOL   H15030588   1.481   1.897   7.037 -0.2855 -0.2266 -0.5193
   90MOL   H15130589   1.314   1.978   7.207  1.5494  1.4838 -1.3601
   90MOL   H15230590   1.315   1.984   7.442  0.4234  0.1997 -0.6336
   90MOL   H15330591   1.242   1.825   7.664 -0.8069 -0.4405  0.7933
   90MOL   H15430592   1.331   1.774   7.805  0.3078  1.5567  0.1195
   90MOL   C15530593   1.292   1.609   7.684  0.5025 -0.1357 -0.2814
   90MOL   C15630594   1.425   1.519   7.700 -0.1911  0.1039 -0.7444
   90MOL   C15730595   1.471   1.430   7.597  0.2348 -0.2172 -0.3297
   90MOL   C15830596   1.585   1.350   7.620  0.0133  0.0997  0.9730
   90MOL   C15930597   1.662   1.361   7.737  0.2044  0.3923  0.8996
   90MOL   O16030598   1.781   1.289   7.757 -0.2367 -0.4059 -0.1785
   90MOL   C16130599   1.618   1.444   7.832  0.4034 -0.8033 -0.5468
   90MOL   C16230600   1.501   1.516   7.817 -0.7852  0.3943 -0.1789
   90MOL   C16330601   1.212   1.574   7.560 -1.3610 -0.2070  0.2883
   90MOL   H16430602   1.241   1.569   7.771 -1.0355 -0.8364 -1.4880
   90MOL   H16530603   1.413   1.428   7.506  1.5153 -0.1704 -1.1635
   90MOL   H16630604   1.611   1.270   7.551  0.3426  0.8474  0.2246
   90MOL   H16730605   1.784   1.223   7.690  0.6511  0.0743 -0.6158
   90MOL   H16830606   1.671   1.457   7.925 -1.7386  0.0616  0.6002
   90MOL   H16930607   1.472   1.576   7.902  0.1497 -1.0890  1.1946
   90MOL   H17030608   1.200   1.465   7.561  0.8229 -0.4720 -0.5198
   90MOL   H17130609   1.273   1.590   7.472 -2.1043 -2.2973 -0.6390
   90MOL   C17230610   1.076   1.642   7.539 -0.1557 -0.3157 -0.3311
   90MOL   C17330611   1.002   1.674   7.669  0.4942 -0.1593  1.2140
   90MOL   C17430612   0.973   1.569   7.758  0.5712  0.4888  0.1925
   90MOL   C17530613   0.912   1.590   7.882  0.5389  0.1524 -0.1344
   90MOL   C17630614   0.886   1.725   7.913  0.7984  0.0323 -0.8571
   90MOL   O17730615   0.845   1.749   0.006  0.2732  0.4895 -0.2105
   90MOL   C17830616   0.911   1.833   7.829  0.2792 -0.2131  0.1462
   90MOL   C17930617   0.962   1.802   7.704 -0.0843  0.0607 -0.1636
   90MOL   C18030618   0.997   1.568   7.435  0.0584 -0.3510  0.0459
   90MOL   H18130619   1.101   1.740   7.499  1.8980 -0.2759  0.9939
   90MOL   H18230620   1.015   1.473   7.732  1.5390  0.7029  0.9364
   90MOL   H18330621   0.921   1.512   7.956  1.2893  1.1687  0.8726
   90MOL   H18430622   0.829   1.667   0.050  0.1548 -0.3456 -1.7797
   90MOL   H18530623   0.886   1.933   7.859 -0.1836  0.3341 -2.0247
   90MOL   H18630624   0.973   1.882   7.632 -1.5906  1.0717  0.6980
   90MOL   H18730625   0.899   1.616   7.434 -0.3281 -1.0993  0.9472
   90MOL   H18830626   0.970   1.468   7.468  0.6193 -0.4697  0.1478
   90MOL   C18930627   1.047   1.579   7.290  0.3964  0.7061  0.6564
   90MOL   C19030628   1.156   1.480   7.267 -0.1879 -0.5203 -0.1409
   90MOL   C19130629   1.151   1.347   7.308  0.2350 -0.3662  0.5811
   90MOL   C19230630   1.251   1.260   7.271  0.1112 -0.4124  0.1244
   90MOL   C19330631   1.361   1.300   7.198 -0.1295  0.5390  0.5922
   90MOL   O19430632   1.468   1.219   7.187 -0.0625 -0.4574 -0.7642
   90MOL   C19530633   1.377   1.440   7.163  0.4014  0.6363 -0.3686
   90MOL   C19630634   1.271   1.526   7.199  0.2517 -0.3382 -0.0146
   90MOL   C19730635   0.930   1.559   7.192 -0.2920  1.0226  0.4634
   90MOL   H19830636   1.084   1.680   7.269  0.3330  0.7455  0.7329
   90MOL   H19930637   1.072   1.304   7.367 -1.2100  0.3256 -0.7961
   90MOL   H20030638   1.257   1.158   7.306 -0.7172 -0.3682  0.4064
   90MOL   H20130639   1.425   1.136   7.170  0.5817 -0.9493 -0.0065
   90MOL   H20230640   1.471   1.477   7.124  1.1983 -2.8427 -1.9484
   90MOL   H20330641   1.270   1.631   7.173 -1.9610 -0.7791 -1.8439
   90MOL   H20430642   0.854   1.636   7.205 -0.0195  0.9795  2.5874
   90MOL   H20530643   0.871   1.472   7.219  0.7943  0.6096  1.6015
   90MOL   C20630644   0.953   1.540   7.043 -0.6923  0.0666 -0.1198
   90MOL   C20730645   1.012   1.664   6.976 -0.5974  0.1512 -0.3992
   90MOL   C20830646   1.072   1.641   6.856 -0.3066  0.1304  0.2493
   90MOL   C20930647   1.120   1.754   6.788  0.8829  0.7570 -0.1655
   90MOL   C21030648   1.114   1.884   6.836  0.5345  0.1131 -0.1977
   90MOL   O21130649   1.192   1.978   6.771  0.2090 -0.4301 -0.3773
   90MOL   C21230650   1.065   1.906   6.967 -0.3258  1.1031  0.2949
   90MOL   C21330651   1.010   1.796   7.036 -0.1780  0.9764  0.3861
   90MOL   C21430652   0.817   1.503   6.976 -0.5656  0.6612 -0.6190
   90MOL   H21530653   1.027   1.461   7.032 -1.4708 -1.0739  2.3771
   90MOL   H21630654   1.070   1.540   6.819 -2.3621  0.0810  0.4754
   90MOL   H21730655   1.173   1.733   6.697  0.7825  0.0112 -0.0510
   90MOL   H21830656   1.254   1.938   6.712 -0.8598  0.3740 -2.0864
   90MOL   H21930657   1.058   2.005   7.008  0.9813  1.2622  0.1399
   90MOL   H22030658   0.962   1.821   7.129 -0.0757 -0.3324  0.7953
   90MOL   H22130659   0.831   1.526   6.870  1.7050  0.6426 -0.3438
   90MOL   H22230660   0.744   1.575   7.012 -1.1481  1.2130 -2.8062
   90MOL   C22330661   0.764   1.362   6.991 -0.4899 -0.5847  0.0194
   90MOL   C22430662   0.874   1.261   6.962 -0.3964 -0.7575 -0.5366
   90MOL   C22530663   0.936   1.204   7.077  0.0908  0.0416  0.3819
   90MOL   C22630664   1.042   1.118   7.056  0.5357  0.4676 -0.7934
   90MOL   C22730665   1.088   1.084   6.930  0.7772  0.4087  0.4838
   90MOL   O22830666   1.192   0.997   6.917 -0.2308  0.0889  0.5226
   90MOL   C22930667   1.031   1.145   6.817  0.0137  0.4115 -0.4073
   90MOL   C23030668   0.927   1.236   6.833  0.7063  0.2731 -0.0925
   90MOL   C23130669   0.627   1.326   6.918  0.1621  0.1326  0.3974
   90MOL   H23230670   0.742   1.341   7.096  0.6570  0.6204  0.5192
   90MOL   H23330671   0.902   1.229   7.177  0.5443 -0.5363  0.6845
   90MOL   H23430672   1.092   1.083   7.145  0.4691 -0.0944 -0.9695
   90MOL   H23530673   1.259   1.039   6.864 -0.0173 -0.9266 -0.0185
   90MOL   H23630674   1.070   1.114   6.721 -0.9843 -1.5082 -0.2111
   90MOL   H23730675   0.882   1.287   6.749  0.4808 -1.1345 -0.8457
   90MOL   H23830676   0.550   1.402   6.933  0.4667  0.2721  1.2666
   90MOL   H23930677   0.645   1.339   6.812  1.4671  0.8786  0.7078
   90MOL   C24030678   0.573   1.184   6.954 -0.0623 -0.0945 -0.1551
   90MOL   C24130679   0.528   1.169   7.103  0.3143  0.1287  0.0662
   90MOL   C24230680   0.610   1.089   7.187  0.2301 -1.1515 -1.0336
   90MOL   C24330681   0.569   1.077   7.320 -0.1215  0.0037  0.2127
   90MOL   C24430682   0.458   1.152   7.371  0.2234 -0.4264 -0.1533
   90MOL   O24530683   0.415   1.140   7.500 -0.3268  0.1459 -0.2029
   90MOL   C24630684   0.382   1.240   7.295  0.0746  0.1812  0.0356
   90MOL   C24730685   0.418   1.243   7.157 -0.8666 -0.8486 -0.2298
   90MOL   C24830686   0.459   1.151   6.855 -0.3798 -0.3254  0.3092
   90MOL   H24930687   0.649   1.107   6.939 -0.2133 -0.4962  1.0245
   90MOL   H25030688   0.697   1.043   7.142  0.8123 -2.3458  1.2784
   90MOL   H25130689   0.624   1.011   7.385 -0.3093 -1.2664 -0.8956
   90MOL   H25230690   0.362   1.216   7.517  1.5289  1.3116  0.4673
   90MOL   H25330691   0.299   1.299   7.330 -0.2097 -0.3868  0.3287
   90MOL   H25430692   0.358   1.313   7.100 -3.2258 -2.0027  0.7462
   90MOL   H25530693   0.378   1.219   6.880  0.0202  0.6439 -0.9722
   90MOL   H25630694   0.479   1.167   6.749 -0.7168  1.3804  0.4874
   90MOL   C25730695   0.411   1.001   6.876  0.4749 -0.5998  0.1621
   90MOL   C25830696   0.266   0.977   6.840  0.3052  0.1182 -0.2001
   90MOL   C25930697   0.209   1.024   6.718 -0.8416 -0.2716 -0.1023
   90MOL   C26030698   0.073   1.009   6.694  0.0222  0.1976  0.1444
   90MOL   C26130699   8.031   0.937   6.786  0.6178  0.0817 -0.6036
   90MOL   O26230700   7.904   0.911   6.758  0.4006  0.0247  0.8069
   90MOL   C26330701   0.046   0.883   6.903 -0.0952 -0.7302 -0.1975
   90MOL   C26430702   0.187   0.902   6.928 -0.4394  0.5441 -0.1684
   90MOL   C26530703   0.505   0.906   6.795  0.2328  0.2983  0.4072
   90MOL   H26630704   0.418   0.969   6.979  0.0175  1.1844  0.7643
   90MOL   H26730705   0.269   1.086   6.653  2.8549 -1.6088  1.8284
   90MOL   H26830706   0.031   1.051   6.605  1.1325  0.7276 -0.1374
   90MOL   H26930707   7.851   0.868   6.823  0.0134 -2.3072 -0.9746
   90MOL   H27030708   8.022   0.829   6.974 -0.2394  0.3492  0.5083
   90MOL   H27130709   0.228   0.854   7.016 -0.3800 -2.8286 -1.9646
   90MOL   H27230710   0.606   0.946   6.785  0.3016  0.2404  0.8667
   90MOL   H27330711   0.456   0.887   6.699 -0.9055 -2.2141  1.4472
   90MOL   C27430712   0.517   0.765   6.860 -0.4156 -0.0524 -0.6610
   90MOL   C27530713   0.611   0.768   6.982 -0.6903 -0.0373  0.5586
   90MOL   C27630714   0.568   0.723   7.106  0.0156 -0.3696  0.2347
   90MOL   C27730715   0.647   0.739   7.222 -0.3652 -0.4512  0.8253
   90MOL   C27830716   0.778   0.790   7.215 -0.1881 -0.0468  0.1761
   90MOL   O27930717   0.860   0.792   7.328 -0.3088  0.3388 -0.2666
   90MOL   C28030718   0.829   0.824   7.088  0.1945 -0.0426  0.0569
   90MOL   C28130719   0.744   0.822   6.978 -0.4484 -0.0510 -0.6515
   90MOL   C28230720   0.566   0.671   6.750 -0.6929  0.6694  0.1979
   90MOL   H28330721   0.423   0.734   6.905  1.3537 -2.6065  1.3783
   90MOL   H28430722   0.466   0.687   7.105 -0.2323  0.1731  2.4582
   90MOL   H28530723   0.616   0.705   7.320  0.5338 -1.1684  0.8717
   90MOL   H28630724   0.931   0.854   7.324  1.8051 -2.0218 -0.4627
   90MOL   H28730725   0.931   0.858   7.091 -0.1028  0.7977  0.7807
   90MOL   H28830726   0.788   0.871   6.892  0.3689  1.0351  0.3755
   90MOL   H28930727   0.649   0.720   6.698  2.3682 -0.4153  3.7807
   90MOL   H29030728   0.593   0.575   6.793 -0.4682  1.8614  2.7851
   90MOL   C29130729   0.466   0.637   6.639 -0.6351  0.3688  0.4726
   90MOL   C29230730   0.337   0.561   6.677  0.1032  0.2737 -0.7412
   90MOL   C29330731   0.210   0.625   6.680 -0.6843  0.1667 -0.8302
   90MOL   C29430732   0.091   0.558   6.712  0.6087  0.1665 -0.0821
   90MOL   C29530733   0.101   0.429   6.747 -0.4409 -0.2150 -0.6667
   90MOL   O29630734   8.023   0.369   6.791 -0.1449  0.3867  0.0183
   90MOL   C29730735   0.221   0.358   6.740  0.4406  0.3363  0.0199
   90MOL   C29830736   0.340   0.419   6.705  1.5302 -0.1689 -0.2700
   90MOL   C29930737   0.542   0.557   6.527 -0.0659  0.5408  0.4122
   90MOL   H30030738   0.437   0.728   6.587  2.3776  0.2524 -1.5035
   90MOL   H30130739   0.206   0.725   6.640 -1.4014 -0.6404 -2.8361
   90MOL   H30230740   0.003   0.620   6.710 -0.1314 -0.7861  1.7280
   90MOL   H30330741   8.005   0.278   6.772  0.4548  0.3046 -0.1784
   90MOL   H30430742   0.223   0.254   6.768 -1.1730 -0.0140 -1.1291
   90MOL   H30530743   0.435   0.368   6.702  0.4399 -2.2763 -0.2685
   90MOL   H30630744   0.599   0.473   6.567  1.2281 -0.1372 -2.6861
   90MOL   H30730745   0.628   0.617   6.497 -0.3857 -0.6576 -3.1822
   90MOL   C30830746   0.470   0.526   6.395 -0.5301  0.3032 -0.1624
   90MOL   C30930747   0.391   0.643   6.337 -0.6790  0.7024  0.0066
   90MOL   C31030748   0.459   0.758   6.291  1.1178 -0.4796 -0.3132
   90MOL   C31130749   0.394   0.878   6.258 -0.7684  0.2203 -0.3833
   90MOL   C31230750   0.259   0.872   6.250 -0.2140  0.1025 -0.3574
   90MOL   O31330751   0.195   0.989   6.221  0.1798  0.4064  0.0503
   90MOL   C31430752   0.180   0.760   6.290 -0.0403  0.0252  0.0133
   90MOL   C31530753   0.246   0.647   6.338  0.1887 -0.6078  0.4722
   90MOL   C31630754   0.387   0.388   6.405 -0.2690  0.6865 -0.2772
   90MOL   H31730755   0.549   0.503   6.324  0.0161 -0.1839  0.6062
   90MOL   H31830756   0.566   0.752   6.285  1.1063 -0.2182 -0.7839
   90MOL   H31930757   0.447   0.968   6.230  0.7303 -0.9768 -1.4317
   90MOL   H32030758   0.118   1.000   6.274  1.3134 -0.5333  1.9550
   90MOL   H32130759   0.073   0.768   6.298 -0.0718 -1.9541  2.1970
   90MOL   H32230760   0.203   0.552   6.364  0.8698 -0.9040  0.5353
   90MOL   H32330761   0.300   0.402   6.469  1.0921  2.2624  1.3068
   90MOL   H32430762   0.450   0.314   6.453 -2.5225 -0.6235  0.7396
   90MOL   C32530763   0.351   0.320   6.271  0.3798 -0.0263  0.0614
   90MOL   C32630764   0.346   0.168   6.282  0.1443 -0.1016 -0.5480
   90MOL   C32730765   0.467   0.097   6.317  0.2952 -0.2250 -0.7279
   90MOL   C32830766   0.479   7.994   6.315 -0.2876 -0.2547  0.6100
   90MOL   C32930767   0.366   7.915   6.286  0.3910 -0.7492 -0.2850
   90MOL   O33030768   0.378   7.780   6.290  0.4835 -0.3189  0.2023
   90MOL   C33130769   0.240   7.981   6.257  0.5691 -0.4668 -0.1774
   90MOL   C33230770   0.230   0.085   6.243 -0.1861  0.2234 -0.1785
   90MOL   C33330771   0.459   0.343   6.158 -0.3733  0.2557 -0.1993
   90MOL   H33430772   0.253   0.352   6.235  0.1758  0.1004  0.7056
   90MOL   H33530773   0.550   0.159   6.348 -0.5916  1.6808 -2.0218
   90MOL   H33630774   0.568   7.952   6.359  1.1898 -0.0931 -2.1321
   90MOL   H33730775   0.472   7.777   6.283  0.5785  2.0451 -0.1306
   90MOL   H33830776   0.151   7.923   6.235  0.0845 -0.4522  1.7042
   90MOL   H33930777   0.137   0.130   6.213  0.3268  1.1916 -0.3611
   90MOL   H34030778   0.460   0.448   6.129  1.6770  0.6909  1.3413
   90MOL   H34130779   0.446   0.290   6.063  1.9781  0.2910 -0.5664
   90MOL   H34230780   0.562   0.317   6.183 -0.6672 -0.8148 -0.0718
   91MOL     C130781   0.335   4.807   4.298 -0.3636 -0.0952  0.1366
   91MOL     C230782   0.197   4.806   4.242  0.0477  0.7919  0.1042
   91MOL     C330783   0.087   4.869   4.308 -0.0707 -0.1568 -0.3825
   91MOL     C430784   7.995   4.870   4.245 -0.2183 -0.2760 -0.2519
   91MOL     C530785   7.976   4.808   4.115  0.1573  0.4985 -0.5791
   91MOL     O630786   7.859   4.824   4.040 -0.7237  0.2555  0.5278
   91MOL     C730787   0.043   4.735   4.058  0.4596 -0.0971  0.7681
   91MOL     C830788   0.173   4.739   4.118 -0.0261 -0.0165 -0.0017
   91MOL     C930789   0.390   4.673   4.350 -0.5026 -0.0372  0.1760
   91MOL    H1030790   0.394   4.843   4.214 -1.1253 -0.7708 -0.6948
   91MOL    H1130791   0.107   4.924   4.398  0.8606 -1.2049  0.0639
   91MOL    H1230792   7.914   4.925   4.291  1.4335  0.5381  1.8018
   91MOL    H1330793   7.791   4.767   4.073 -0.7704  0.5565  0.9594
   91MOL    H1430794   0.024   4.703   3.957 -1.6994  1.6025  0.5917
   91MOL    H1530795   0.246   4.674   4.074  1.3704  0.4831  1.5348
   91MOL    H1630796   0.386   4.602   4.267  0.8090 -1.1588  1.0479
   91MOL    H1730797   0.327   4.635   4.430  0.6974 -1.6222  0.3845
   91MOL    H1830798   0.331   4.881   4.378 -0.3702  0.0098  0.0396
   91MOL    C1930799   0.530   4.682   4.399 -0.0192  0.2461  0.2997
   91MOL    C2030800   0.628   4.769   4.313  0.2429 -0.6988  0.6513
   91MOL    C2130801   0.634   4.764   4.175  0.1855  0.5630  0.0881
   91MOL    C2230802   0.730   4.843   4.106  0.1442  0.0120  0.4266
   91MOL    C2330803   0.810   4.933   4.175  0.1720 -0.2039 -0.7919
   91MOL    O2430804   0.897   5.017   4.113  0.0395 -0.0211  0.2913
   91MOL    C2530805   0.795   4.943   4.315 -0.1194 -0.1025 -0.0863
   91MOL    C2630806   0.708   4.859   4.384  0.1432 -0.0291  0.2068
   91MOL    C2730807   0.591   4.539   4.410 -0.0165  0.3454 -0.4708
   91MOL    H2830808   0.517   4.731   4.496  0.7480  0.7996  0.1280
   91MOL    H2930809   0.562   4.711   4.113 -0.5980  2.1284 -0.3713
   91MOL    H3030810   0.746   4.827   4.000 -2.1532  0.4422 -0.0166
   91MOL    H3130811   0.898   4.988   4.023 -2.0561  0.1740  0.1819
   91MOL    H3230812   0.849   5.014   4.376  0.2924 -1.4774  1.1625
   91MOL    H3330813   0.710   4.865   4.492  2.1673 -2.4087  0.3468
   91MOL    H3430814   0.698   4.551   4.423  0.2697 -2.4160  0.0372
   91MOL    H3530815   0.575   4.486   4.317 -0.0703 -1.0349  0.3130
   91MOL    C3630816   0.537   4.455   4.527 -0.5532  0.0193  0.8788
   91MOL    C3730817   0.513   4.537   4.652 -0.3379  0.5579 -0.1844
   91MOL    C3830818   0.611   4.590   4.733  0.8280  0.0749 -0.0402
   91MOL    C3930819   0.582   4.657   4.856  0.6209 -0.0357  0.1756
   91MOL    C4030820   0.450   4.680   4.889 -0.4147 -0.3268  0.6087
   91MOL    O4130821   0.435   4.757   4.998  0.1210  0.2389 -0.7511
   91MOL    C4230822   0.344   4.639   4.805 -0.1530  0.6208 -0.4189
   91MOL    C4330823   0.379   4.568   4.688 -0.0254  0.2349 -0.1736
   91MOL    C4430824   0.619   4.326   4.539 -0.6507  0.4479 -0.2229
   91MOL    H4530825   0.445   4.417   4.483 -1.2714  2.4627  0.2144
   91MOL    H4630826   0.715   4.575   4.707  0.6392 -0.2944 -0.5847
   91MOL    H4730827   0.658   4.687   4.927 -0.0839 -2.2486  1.9170
   91MOL    H4830828   0.441   4.848   4.975 -0.3397  0.9471  1.8015
   91MOL    H4930829   0.240   4.653   4.827 -0.1104  0.5303 -0.1608
   91MOL    H5030830   0.299   4.529   4.626  0.1793 -0.9806  0.3008
   91MOL    H5130831   0.608   4.272   4.444 -4.1924  0.7504 -0.0351
   91MOL    H5230832   0.725   4.348   4.554 -0.4072 -0.4751 -0.5450
   91MOL    C5330833   0.586   4.238   4.656 -0.2616  0.5325 -0.3129
   91MOL    C5430834   0.450   4.176   4.639  0.2965  0.2783  0.2001
   91MOL    C5530835   0.425   4.057   4.571 -0.2016 -0.1903  0.4421
   91MOL    C5630836   0.292   4.008   4.548  0.3838  0.5984  0.5276
   91MOL    C5730837   0.186   4.069   4.619 -0.5180  0.2291 -0.2453
   91MOL    O5830838   0.055   4.032   4.614 -0.2875  0.3264  0.2977
   91MOL    C5930839   0.218   4.177   4.698  0.4672 -0.2378 -0.0204
   91MOL    C6030840   0.342   4.227   4.717 -0.0655  0.0260 -0.9394
   91MOL    C6130841   0.705   4.131   4.669 -0.5446  0.4305 -0.3142
   91MOL    H6230842   0.579   4.302   4.745  1.2663 -1.3374  1.2010
   91MOL    H6330843   0.508   3.998   4.537  0.5037  0.1544  1.5318
   91MOL    H6430844   0.277   3.916   4.493  1.2173 -0.7216  2.4438
   91MOL    H6530845   8.036   4.100   4.647 -1.7596  0.4548 -2.3623
   91MOL    H6630846   0.138   4.220   4.757  0.8829 -0.3062  0.6030
   91MOL    H6730847   0.355   4.298   4.798  2.6138  0.3932 -1.6169
   91MOL    H6830848   0.719   4.077   4.576  1.3747  1.9962 -0.9850
   91MOL    H6930849   0.666   4.063   4.745  0.2555 -0.5135 -0.7372
   91MOL    C7030850   0.843   4.189   4.720  0.1818 -0.5715 -0.5273
   91MOL    C7130851   0.948   4.085   4.743 -0.4587  0.5924 -0.5841
   91MOL    C7230852   1.083   4.102   4.704  0.1874  0.4653  0.3361
   91MOL    C7330853   1.176   3.995   4.713  0.2318  0.1107  0.0352
   91MOL    C7430854   1.139   3.873   4.771 -0.5298  0.1640 -0.2707
   91MOL    O7530855   1.234   3.775   4.800 -0.3989  0.0190  0.1845
   91MOL    C7630856   1.007   3.855   4.815 -0.2090 -0.7706 -0.0173
   91MOL    C7730857   0.913   3.957   4.804  0.2827  0.0729  0.2228
   91MOL    C7830858   0.833   4.277   4.853 -0.4487  0.3454 -0.5451
   91MOL    H7930859   0.883   4.255   4.643  1.2744 -0.6818 -0.0654
   91MOL    H8030860   1.118   4.194   4.661 -0.4480  1.1289  1.2176
   91MOL    H8130861   1.271   4.018   4.669  1.3011  1.6823  2.9977
   91MOL    H8230862   1.316   3.800   4.761 -2.0374 -0.3400 -3.7786
   91MOL    H8330863   0.982   3.758   4.854  1.9464 -0.1770  2.9079
   91MOL    H8430864   0.812   3.942   4.839 -0.4701  0.1314 -1.8193
   91MOL    H8530865   0.769   4.363   4.841 -2.3377 -0.7167  1.4921
   91MOL    H8630866   0.925   4.336   4.853  1.8651 -2.9212  3.1588
   91MOL    C8730867   0.811   4.215   4.997 -0.3630  0.7617  0.0673
   91MOL    C8830868   0.661   4.199   5.031 -0.3855  0.1680  0.2706
   91MOL    C8930869   0.612   4.069   5.064  0.1795 -0.4129  0.6411
   91MOL    C9030870   0.481   4.061   5.123  0.5673 -0.2243 -0.3834
   91MOL    C9130871   0.394   4.175   5.124  0.2608  0.0079  0.4329
   91MOL    O9230872   0.278   4.165   5.201 -0.9036  0.0159  0.0585
   91MOL    C9330873   0.442   4.306   5.084 -0.3632 -0.0158 -0.0459
   91MOL    C9430874   0.574   4.312   5.035  1.0955  0.1685 -0.0755
   91MOL    C9530875   0.878   4.304   5.108 -0.0230  0.3066 -0.1848
   91MOL    H9630876   0.855   4.115   5.001  1.7604  1.7149  1.3879
   91MOL    H9730877   0.674   3.981   5.055 -2.6759 -2.2065 -3.3402
   91MOL    H9830878   0.440   3.967   5.155 -0.0591 -0.3974 -1.6732
   91MOL    H9930879   0.230   4.245   5.218 -1.2707 -0.0137 -0.8237
   91MOL   H10030880   0.383   4.396   5.095  2.7562  2.1788 -0.5677
   91MOL   H10130881   0.625   4.405   5.017  1.3960  0.2299  1.0315
   91MOL   H10230882   0.880   4.408   5.077  0.5609  0.1655 -0.6342
   91MOL   H10330883   0.817   4.303   5.198 -0.8041 -0.0659 -0.7109
   91MOL   C10430884   1.025   4.270   5.132  0.4256  0.5365  0.6577
   91MOL   C10530885   1.041   4.129   5.189 -0.2494  0.1391  0.4582
   91MOL   C10630886   1.109   4.027   5.115  1.2348  0.0445  0.0920
   91MOL   C10730887   1.131   3.896   5.175 -0.4370  0.3605 -0.5687
   91MOL   C10830888   1.082   3.873   5.303  0.0619 -0.4518  0.0820
   91MOL   O10930889   1.093   3.758   5.363  0.0710  0.6070 -0.2834
   91MOL   C11030890   1.017   3.974   5.382 -0.1278 -0.5832  0.7158
   91MOL   C11130891   0.996   4.102   5.324  0.4924  0.4238  0.0514
   91MOL   C11230892   1.096   4.371   5.233  0.6676  0.5466  0.0024
   91MOL   H11330893   1.085   4.267   5.041  3.1835 -0.3330  2.4618
   91MOL   H11430894   1.144   4.050   5.016  0.5101  1.6257  0.1756
   91MOL   H11530895   1.179   3.826   5.108  3.1097  0.6560  1.5627
   91MOL   H11630896   1.063   3.760   5.453  1.4324  0.5990  0.1810
   91MOL   H11730897   0.977   3.953   5.479  1.4729  0.9741  1.7419
   91MOL   H11830898   0.949   4.178   5.383  1.6261 -0.0368  1.5671
   91MOL   H11930899   1.038   4.373   5.326 -0.6523  0.4010 -0.8111
   91MOL   H12030900   1.080   4.470   5.191 -0.5142  1.1269  1.7579
   91MOL   C12130901   1.249   4.348   5.264 -0.2762 -0.7520  0.0402
   91MOL   C12230902   1.322   4.346   5.130  0.2378 -0.3831 -0.0304
   91MOL   C12330903   1.385   4.225   5.085 -0.6384 -0.3412  0.2207
   91MOL   C12430904   1.429   4.216   4.951 -0.0274 -0.1264 -0.4185
   91MOL   C12530905   1.419   4.329   4.864  0.3261 -0.2656  0.2928
   91MOL   O12630906   1.441   4.320   4.731  0.0090  0.0078  0.1602
   91MOL   C12730907   1.370   4.453   4.919  0.2967 -0.7698  0.8685
   91MOL   C12830908   1.325   4.457   5.052  0.4076 -0.6304  0.4269
   91MOL   C12930909   1.304   4.445   5.362  0.9664  0.1679 -0.1787
   91MOL   H13030910   1.251   4.248   5.307 -2.6875  0.2683  2.6557
   91MOL   H13130911   1.382   4.136   5.145 -0.5601  0.0945  0.8726
   91MOL   H13230912   1.464   4.120   4.914 -0.2975 -0.1238 -0.6868
   91MOL   H13330913   1.493   4.244   4.710 -0.8434 -0.8713  1.1963
   91MOL   H13430914   1.370   4.543   4.858  1.8657 -0.5628  1.1398
   91MOL   H13530915   1.285   4.554   5.076  2.6585  1.2528 -3.0611
   91MOL   H13630916   1.301   4.547   5.325 -0.8824  0.5011  0.8451
   91MOL   H13730917   1.406   4.414   5.388  0.8057 -0.4435 -0.2648
   91MOL   C13830918   1.238   4.475   5.500  0.5718  0.7370 -0.4497
   91MOL   C13930919   1.314   4.582   5.584 -0.7628  0.1918  0.1981
   91MOL   C14030920   1.261   4.705   5.622  0.3231  0.4362 -0.0732
   91MOL   C14130921   1.334   4.798   5.698 -0.1164 -0.7523  0.9759
   91MOL   C14230922   1.462   4.771   5.742 -0.4388 -0.2508  0.0177
   91MOL   O14330923   1.535   4.866   5.805 -0.3409  0.2398 -0.5799
   91MOL   C14430924   1.518   4.638   5.718  0.4395  0.5767  0.1041
   91MOL   C14530925   1.443   4.549   5.637 -0.5792 -0.9878 -0.3919
   91MOL   C14630926   1.202   4.352   5.588  0.3918 -0.3537  0.3209
   91MOL   H14730927   1.147   4.531   5.476  0.8114  2.3529  2.2743
   91MOL   H14830928   1.161   4.732   5.593  0.2960 -0.1788 -0.5813
   91MOL   H14930929   1.296   4.895   5.727  0.8856 -0.4867  1.3986
   91MOL   H15030930   1.615   4.840   5.849  0.2662  0.9965 -1.2249
   91MOL   H15130931   1.621   4.615   5.737  0.2857  0.3944  0.7408
   91MOL   H15230932   1.492   4.458   5.606  0.8011 -0.7897  1.1607
   91MOL   H15330933   1.291   4.300   5.625  0.0743  0.7728  2.8095
   91MOL   H15430934   1.152   4.286   5.517 -1.0913  2.3034 -1.1821
   91MOL   C15530935   1.114   4.403   5.710 -0.0306  0.4994  0.5697
   91MOL   C15630936   1.186   4.388   5.847  0.1579 -0.0010 -0.2575
   91MOL   C15730937   1.184   4.266   5.915 -0.0317  0.6000 -0.9277
   91MOL   C15830938   1.238   4.270   6.049  0.7282 -0.3647  0.0664
   91MOL   C15930939   1.269   4.392   6.111 -0.3165  0.3493  0.6886
   91MOL   O16030940   1.306   4.395   6.242  0.2333 -0.0520 -0.0633
   91MOL   C16130941   1.277   4.506   6.037 -0.4337  0.2030 -0.2373
   91MOL   C16230942   1.246   4.502   5.904  0.7067  0.1013 -0.2232
   91MOL   C16330943   0.981   4.321   5.708 -0.0015  0.2029 -0.3495
   91MOL   H16430944   1.091   4.509   5.695 -0.5491  0.5393  1.6054
   91MOL   H16530945   1.142   4.173   5.879 -0.6716 -0.0962  1.5722
   91MOL   H16630946   1.245   4.179   6.108  0.2188  0.9617  2.2461
   91MOL   H16730947   1.289   4.480   6.279 -1.4986 -0.0387 -0.8648
   91MOL   H16830948   1.312   4.596   6.084 -0.2129 -0.0209  0.0240
   91MOL   H16930949   1.254   4.596   5.851  3.8582  0.0586  0.0942
   91MOL   H17030950   1.013   4.219   5.731  0.9412  1.0470  2.2341
   91MOL   H17130951   0.934   4.311   5.610  1.0390 -0.2798 -0.8096
   91MOL   C17230952   0.877   4.367   5.814 -0.2683  0.3262 -0.1212
   91MOL   C17330953   0.787   4.248   5.875 -0.3053 -1.0331 -0.1863
   91MOL   C17430954   0.735   4.261   6.008 -0.5754 -0.0853 -0.6954
   91MOL   C17530955   0.662   4.156   6.067 -0.0817  0.1848  0.9214
   91MOL   C17630956   0.643   4.037   5.997 -0.0359 -0.0794 -0.0819
   91MOL   O17730957   0.570   3.937   6.053  0.5080  0.3422  0.3764
   91MOL   C17830958   0.680   4.035   5.860  0.3455  0.3304 -0.3942
   91MOL   C17930959   0.766   4.133   5.803  0.6735  0.3350  0.9476
   91MOL   C18030960   0.795   4.494   5.771  0.1119  0.4465  0.4696
   91MOL   H18130961   0.937   4.393   5.901  0.7084 -1.1636 -0.3233
   91MOL   H18230962   0.763   4.339   6.077  0.4362 -2.3778  1.5666
   91MOL   H18330963   0.628   4.173   6.168 -1.3379  1.8057  0.2443
   91MOL   H18430964   0.553   3.951   6.145  2.1736 -0.3711  0.7954
   91MOL   H18530965   0.644   3.956   5.796 -0.6816  0.7826 -0.3740
   91MOL   H18630966   0.805   4.118   5.703 -2.2352 -1.7176  0.0386
   91MOL   H18730967   0.869   4.574   5.776  1.2779 -0.6597  1.3379
   91MOL   H18830968   0.717   4.507   5.846 -0.6583  1.7334 -0.5345
   91MOL   C18930969   0.743   4.504   5.624  0.5346  0.9466 -0.3069
   91MOL   C19030970   0.648   4.395   5.585  0.3294  1.1297  0.3779
   91MOL   C19130971   0.540   4.368   5.675 -0.3588  0.7688 -0.4398
   91MOL   C19230972   0.435   4.289   5.640 -0.2682  0.4223  0.2200
   91MOL   C19330973   0.442   4.222   5.521  0.4700 -0.0463 -0.7167
   91MOL   O19430974   0.352   4.128   5.486 -0.3815  0.0974 -0.4073
   91MOL   C19530975   0.547   4.246   5.428  0.0723  0.5914 -0.1264
   91MOL   C19630976   0.645   4.333   5.458 -0.6498  0.2230  0.0364
   91MOL   C19730977   0.670   4.641   5.599  0.1980 -0.3559  0.6345
   91MOL   H19830978   0.829   4.497   5.558  0.2297  0.0585 -0.6214
   91MOL   H19930979   0.529   4.421   5.769 -3.1087 -0.4023 -0.0621
   91MOL   H20030980   0.366   4.253   5.715 -1.2681  2.6763  0.4354
   91MOL   H20130981   0.350   4.102   5.395 -0.0906  1.8682 -0.9547
   91MOL   H20230982   0.547   4.189   5.336 -0.3863  1.1761 -0.4900
   91MOL   H20330983   0.727   4.353   5.390 -0.9930 -1.1643 -0.8200
   91MOL   H20430984   0.740   4.716   5.634  0.4998  0.7876 -2.2619
   91MOL   H20530985   0.580   4.647   5.659 -1.5058 -0.9142 -1.7845
   91MOL   C20630986   0.635   4.676   5.453  0.1809  0.3680 -0.3424
   91MOL   C20730987   0.767   4.696   5.371 -0.0611 -0.2054  0.3185
   91MOL   C20830988   0.884   4.753   5.430  0.7327  0.0496  0.3706
   91MOL   C20930989   1.005   4.769   5.344  1.0890  0.2521 -0.0638
   91MOL   C21030990   0.991   4.744   5.204 -0.2799 -0.1085  0.4680
   91MOL   O21130991   1.100   4.770   5.124  0.2388 -0.1434 -0.0974
   91MOL   C21230992   0.869   4.707   5.148  1.0764  0.3985  0.1534
   91MOL   C21330993   0.758   4.672   5.233 -0.3883 -0.6742  0.3920
   91MOL   C21430994   0.545   4.808   5.453 -0.4657 -0.3876  0.6101
   91MOL   H21530995   0.570   4.601   5.407  1.9264 -1.5825  0.2528
   91MOL   H21630996   0.889   4.777   5.535 -0.1238  1.7780  0.0202
   91MOL   H21730997   1.099   4.810   5.376  0.8495  1.9903 -1.5318
   91MOL   H21830998   1.180   4.789   5.170  0.8384 -1.9282 -0.3663
   91MOL   H21930999   0.848   4.693   5.043  1.4808 -2.2836  0.3881
   91MOL   H22031000   0.665   4.643   5.187 -1.0681  0.3928  1.0810
   91MOL   H22131001   0.537   4.848   5.352  2.7894  0.1452  0.4994
   91MOL   H22231002   0.601   4.887   5.504 -2.3655  0.4239  1.4941
   91MOL   C22331003   0.407   4.810   5.509  0.0945 -0.4082 -0.0787
   91MOL   C22431004   0.321   4.705   5.439 -0.0910 -0.5355  0.0858
   91MOL   C22531005   0.251   4.609   5.520 -0.0510 -0.7712 -0.8899
   91MOL   C22631006   0.152   4.534   5.461  0.3582  0.3883 -1.5153
   91MOL   C22731007   0.119   4.538   5.322 -0.6151 -0.1048 -0.1666
   91MOL   O22831008   0.021   4.462   5.267 -0.3014 -0.5648 -0.2155
   91MOL   C22931009   0.194   4.627   5.245  0.5683  0.2640  0.5579
   91MOL   C23031010   0.286   4.716   5.302 -0.5247 -0.6441  0.0622
   91MOL   C23131011   0.342   4.953   5.497  0.3097  0.6591  0.1907
   91MOL   H23231012   0.398   4.792   5.616  0.0839 -0.7750 -0.1409
   91MOL   H23331013   0.271   4.594   5.625  1.3354  1.2131 -0.8463
   91MOL   H23431014   0.091   4.471   5.524  0.2304  1.2883 -0.7257
   91MOL   H23531015   7.984   4.453   5.325  0.9757 -0.4284  1.4568
   91MOL   H23631016   0.178   4.629   5.139  2.0538  0.8993  0.3301
   91MOL   H23731017   0.337   4.786   5.237  0.9044 -0.0937  1.7407
   91MOL   H23831018   0.393   5.034   5.549 -0.9295  1.0205  0.8604
   91MOL   H23931019   0.361   4.972   5.392  1.2330  0.5577  0.3314
   91MOL   C24031020   0.186   4.965   5.512 -0.9806  0.6247 -0.1599
   91MOL   C24131021   0.150   4.958   5.660 -0.5692  0.8114  0.2362
   91MOL   C24231022   0.197   5.062   5.744 -0.4257  0.0667  0.2325
   91MOL   C24331023   0.157   5.062   5.879 -0.1489  0.0530  0.4145
   91MOL   C24431024   0.088   4.952   5.930  0.0831  0.3174  0.5622
   91MOL   O24531025   0.068   4.950   6.062 -0.1015  0.7319  0.0146
   91MOL   C24631026   0.041   4.850   5.847  0.4958 -0.2964  0.6443
   91MOL   C24731027   0.068   4.852   5.709  0.2877  0.0203  0.0445
   91MOL   C24831028   0.135   5.096   5.459  0.6900  0.3363  0.1279
   91MOL   H24931029   0.125   4.889   5.465 -0.9697  0.6211 -0.1683
   91MOL   H25031030   0.262   5.138   5.701  1.7580  0.1250  3.5021
   91MOL   H25131031   0.183   5.143   5.946  0.4201 -0.0592  0.3281
   91MOL   H25231032   0.070   4.865   6.104 -1.7748  0.2259 -0.9001
   91MOL   H25331033   8.014   4.773   5.887 -0.0092 -1.5976 -2.4843
   91MOL   H25431034   0.022   4.781   5.641 -0.7043  1.6475 -1.0337
   91MOL   H25531035   0.086   5.156   5.536 -2.0110  0.3515 -1.5699
   91MOL   H25631036   0.213   5.156   5.412  0.9141  0.3096  0.4559
   91MOL   C25731037   0.024   5.081   5.344  0.1128  0.9625 -0.1746
   91MOL   C25831038   8.019   5.222   5.298  0.1876 -0.7476  0.0851
   91MOL   C25931039   7.891   5.270   5.330  1.1257 -0.2059  0.0570
   91MOL   C26031040   7.852   5.401   5.307  0.1420 -0.2743 -0.0792
   91MOL   C26131041   7.937   5.485   5.240 -0.5959 -0.1277  0.1794
   91MOL   O26231042   7.884   5.609   5.201 -0.3735  0.2848  0.2106
   91MOL   C26331043   0.031   5.444   5.209  0.4546 -0.8783  0.0877
   91MOL   C26431044   0.066   5.310   5.226 -0.2688  0.0088 -0.0553
   91MOL   C26531045   0.055   4.988   5.216 -0.0624 -0.1502  0.1592
   91MOL   H26631046   7.981   5.031   5.397  0.2337  1.9492  0.9680
   91MOL   H26731047   7.835   5.201   5.391  0.8573  0.2868  0.3741
   91MOL   H26831048   7.753   5.432   5.338  1.1929  1.2888  1.8446
   91MOL   H26931049   7.793   5.607   5.226 -0.0744 -2.4049  1.1929
   91MOL   H27031050   0.099   5.515   5.165  3.0719 -3.1896  0.2947
   91MOL   H27131051   0.161   5.281   5.184  0.5016  1.9145  0.3061
   91MOL   H27231052   0.053   4.884   5.248  2.2519  0.2030  1.5656
   91MOL   H27331053   0.157   5.020   5.193 -0.6210  0.6139 -1.3654
   91MOL   C27431054   7.998   5.008   5.089 -0.7398 -0.3048  0.0280
   91MOL   C27531055   7.850   5.001   5.122  0.4977  0.0432 -0.2068
   91MOL   C27631056   7.755   5.109   5.110 -0.2428  0.8089  0.4867
   91MOL   C27731057   7.617   5.098   5.131  0.1207  0.4759  0.2771
   91MOL   C27831058   7.567   4.971   5.159  0.2258  0.0805 -0.7844
   91MOL   O27931059   7.429   4.957   5.148 -0.0257  0.0255  0.1966
   91MOL   C28031060   7.657   4.861   5.183  0.5755 -0.1494  0.4854
   91MOL   C28131061   7.796   4.882   5.167  0.4107  0.5865 -0.1542
   91MOL   C28231062   0.012   4.921   4.968  0.3881 -0.3309  0.4989
   91MOL   H28331063   8.024   5.111   5.063  1.4510 -0.4772  1.3677
   91MOL   H28431064   7.804   5.198   5.073  0.5058  0.9849  1.8825
   91MOL   H28531065   7.543   5.171   5.104  0.8451  1.1940  0.2052
   91MOL   H28631066   7.396   4.992   5.067  1.2514  1.1703  0.1675
   91MOL   H28731067   7.615   4.765   5.209 -0.0736  0.5067  1.9453
   91MOL   H28831068   7.876   4.812   5.186  0.4039  1.0338  1.6321
   91MOL   H28931069   0.105   4.961   4.927  0.5413 -1.2978 -0.1008
   91MOL   H29031070   0.046   4.828   5.012 -0.2428 -0.8406 -0.0725
   91MOL   C29131071   7.944   4.882   4.865 -0.0901  0.3447  0.1625
   91MOL   C29231072   7.989   4.761   4.779 -0.1780 -0.4216 -0.3382
   91MOL   C29331073   7.982   4.634   4.843 -0.2925 -0.1716 -0.2161
   91MOL   C29431074   8.035   4.513   4.793  0.3530 -0.4643 -0.7683
   91MOL   C29531075   0.038   4.518   4.659 -0.4637 -0.4696  0.3442
   91MOL   O29631076   0.078   4.409   4.596 -0.3770  0.3727 -0.1379
   91MOL   C29731077   0.038   4.643   4.586  0.8794 -0.8611 -0.4868
   91MOL   C29831078   0.008   4.765   4.649 -0.1643 -0.4480 -0.5000
   91MOL   C29931079   7.887   4.997   4.773 -0.1861 -0.2916  0.5679
   91MOL   H30031080   7.865   4.827   4.917  0.2691 -1.2311 -0.9196
   91MOL   H30131081   7.960   4.627   4.949  1.5229 -1.7960  0.0737
   91MOL   H30231082   0.010   4.426   4.855  0.5197 -0.6130 -1.0142
   91MOL   H30331083   0.076   4.392   4.503 -0.2880 -3.3641  0.4437
   91MOL   H30431084   0.084   4.636   4.488  1.1354  2.0227 -0.6166
   91MOL   H30531085   0.017   4.865   4.609  0.2872 -0.6271 -0.8511
   91MOL   H30631086   7.974   5.048   4.732 -0.0648  0.5064  1.7839
   91MOL   H30731087   7.850   5.061   4.853 -0.0815  0.1220  0.2912
   91MOL   C30831088   7.768   4.969   4.671  0.1691  0.4604 -0.1467
   91MOL   C30931089   7.733   5.104   4.620 -0.0759 -0.2716 -0.1400
   91MOL   C31031090   7.633   5.184   4.681  0.4311 -0.4458 -0.4760
   91MOL   C31131091   7.588   5.304   4.624 -0.2569  0.1213 -0.2365
   91MOL   C31231092   7.658   5.350   4.509 -0.3015  0.3240  0.5400
   91MOL   O31331093   7.624   5.467   4.451  0.2231  0.0224 -0.0321
   91MOL   C31431094   7.767   5.281   4.458 -0.2459 -0.7849  0.4117
   91MOL   C31531095   7.805   5.157   4.511 -0.5000 -0.3465  0.0824
   91MOL   C31631096   7.643   4.895   4.735  0.7514  0.8643 -0.0869
   91MOL   H31731097   7.818   4.906   4.598  3.2260  0.2201  2.0785
   91MOL   H31831098   7.580   5.156   4.771  1.4451 -1.6539 -0.2360
   91MOL   H31931099   7.507   5.361   4.669  0.0973  0.2934  0.1899
   91MOL   H32031100   7.636   5.470   4.357 -2.4046  0.0777 -0.3957
   91MOL   H32131101   7.826   5.325   4.379 -1.8675  2.1878  0.7811
   91MOL   H32231102   7.886   5.100   4.468  0.9770  0.6190  1.5117
   91MOL   H32331103   7.562   4.949   4.686 -0.9606 -0.6759  0.9617
   91MOL   H32431104   7.636   4.931   4.837  1.1541  2.0037 -0.4567
   91MOL   C32531105   7.625   4.745   4.705  0.0713 -0.2743 -0.3001
   91MOL   C32631106   7.632   4.706   4.559  0.0594  0.6640  0.0811
   91MOL   C32731107   7.703   4.592   4.513  0.0120  1.1628 -0.4474
   91MOL   C32831108   7.716   4.564   4.377 -0.1300  0.3652  0.6539
   91MOL   C32931109   7.659   4.648   4.280  0.4276  0.1884 -0.7121
   91MOL   O33031110   7.673   4.614   4.148  0.0088 -0.6786 -0.1989
   91MOL   C33131111   7.585   4.761   4.322  0.3366 -0.2916  0.0496
   91MOL   C33231112   7.568   4.787   4.461 -0.0378 -0.2650 -0.5059
   91MOL   C33331113   7.502   4.693   4.779  0.4290  0.3641  0.5142
   91MOL   H33431114   7.709   4.711   4.765 -0.1767 -2.2596 -1.0300
   91MOL   H33531115   7.755   4.537   4.590 -0.3932  0.5402 -0.6102
   91MOL   H33631116   7.762   4.472   4.342 -2.5911 -1.5323  2.2391
   91MOL   H33731117   7.610   4.554   4.111 -2.1743  0.9866  0.6768
   91MOL   H33831118   7.545   4.831   4.251  1.8416 -0.0700 -0.6017
   91MOL   H33931119   7.512   4.874   4.492 -0.4668 -1.8424  3.4806
   91MOL   H34031120   7.514   4.694   4.888  0.4040 -1.7856  0.5549
   91MOL   H34131121   7.492   4.585   4.778  1.1999  0.2582  2.1166
   91MOL   H34231122   7.408   4.739   4.747  0.1189  0.2415  1.2333
   92MOL     C131123   0.040   2.814   0.660  0.3709 -0.1670 -0.2754
   92MOL     C231124   0.012   2.759   0.801  0.0311 -0.4098  0.6355
   92MOL     C331125   7.919   2.714   0.835 -0.3260 -0.1888 -0.0395
   92MOL     C431126   7.887   2.661   0.959 -0.1250  0.2426  0.1276
   92MOL     C531127   7.984   2.679   1.060  0.4026 -0.4534  0.7795
   92MOL     O631128   7.960   2.647   1.190  0.4227 -0.1794 -0.1652
   92MOL     C731129   0.076   2.731   1.030 -0.2740  0.1374 -0.4814
   92MOL     C831130   0.110   2.762   0.898  0.2627 -0.4382  0.1992
   92MOL     C931131   0.062   2.965   0.660  0.5871 -0.6119  0.0789
   92MOL    H1031132   0.120   2.751   0.621  2.4585  0.9487  2.0734
   92MOL    H1131133   7.842   2.708   0.759  1.6105  0.5502 -2.0997
   92MOL    H1231134   7.788   2.619   0.974 -0.8805  2.1291  0.5808
   92MOL    H1331135   7.878   2.601   1.192  0.6018 -0.4959 -0.0111
   92MOL    H1431136   0.144   2.728   1.114 -1.6458 -0.9811  0.6165
   92MOL    H1531137   0.214   2.789   0.884 -0.1776  2.2691  1.8303
   92MOL    H1631138   0.090   2.996   0.560  0.9327 -0.6810  0.1539
   92MOL    H1731139   0.149   2.988   0.722 -0.3908  2.9108  0.2176
   92MOL    H1831140   7.987   2.801   0.601  0.1824  1.4575 -0.3763
   92MOL    C1931141   7.971   3.052   0.698 -0.0207 -0.2240 -0.0437
   92MOL    C2031142   7.860   3.026   0.595  0.4745 -0.0159 -0.3640
   92MOL    C2131143   7.876   3.068   0.460 -0.1974 -0.3515 -0.8651
   92MOL    C2231144   7.767   3.057   0.375 -0.3877  0.6015  0.5553
   92MOL    C2331145   7.639   3.015   0.418 -0.2692 -0.3235  0.1840
   92MOL    O2431146   7.537   2.985   0.331 -0.1248 -0.3476 -0.4850
   92MOL    C2531147   7.621   3.000   0.556 -0.4561 -0.7689 -0.2101
   92MOL    C2631148   7.733   2.994   0.647 -0.4554 -0.4104  0.2390
   92MOL    C2731149   8.002   3.207   0.700 -0.5466  0.0215 -0.1903
   92MOL    H2831150   7.934   3.022   0.796 -0.6731  0.9875  0.0950
   92MOL    H2931151   7.979   3.083   0.431 -0.7342  1.6266 -1.8332
   92MOL    H3031152   7.787   3.083   0.272 -0.7032  0.9292  0.5754
   92MOL    H3131153   7.536   2.893   0.308 -1.8631 -0.0564 -1.6952
   92MOL    H3231154   7.519   2.985   0.588 -1.0837  0.9365 -1.3269
   92MOL    H3331155   7.730   2.979   0.754 -0.7168 -0.5125  0.2166
   92MOL    H3431156   7.921   3.259   0.649  0.9401  2.6877  0.0958
   92MOL    H3531157   0.049   3.223   0.634 -1.3310  1.6362 -0.8218
   92MOL    C3631158   0.005   3.253   0.840  0.4668 -0.0447  0.1096
   92MOL    C3731159   7.919   3.256   0.935  0.5650  0.3224  0.6536
   92MOL    C3831160   7.834   3.368   0.933 -0.5735 -0.0110  0.0405
   92MOL    C3931161   7.727   3.379   1.020  0.2450 -0.0190  0.4550
   92MOL    C4031162   7.697   3.274   1.110  0.3531  0.2135 -0.2651
   92MOL    O4131163   7.582   3.268   1.186  0.3623  0.1668  0.4273
   92MOL    C4231164   7.785   3.163   1.125 -1.2902 -0.4332  0.5251
   92MOL    C4331165   7.897   3.152   1.036  0.3699  0.2616 -0.6319
   92MOL    C4431166   0.091   3.385   0.841  0.0954  0.3278  1.1137
   92MOL    H4531167   0.067   3.170   0.874  2.0612  1.0717  0.0235
   92MOL    H4631168   7.865   3.452   0.873  1.6732 -0.1535  0.9275
   92MOL    H4731169   7.667   3.466   1.000  2.1938  1.4423  0.7959
   92MOL    H4831170   7.511   3.246   1.129  2.3931 -2.6747 -1.1103
   92MOL    H4931171   7.768   3.079   1.190 -1.5234 -0.7397  0.0711
   92MOL    H5031172   7.957   3.062   1.031  2.8202  1.9127 -2.3263
   92MOL    H5131173   0.184   3.372   0.788  1.4378  2.7685  2.7480
   92MOL    H5231174   0.039   3.453   0.774  0.4613  0.6440  1.1479
   92MOL    C5331175   0.126   3.447   0.969  0.0788 -0.2217 -0.5583
   92MOL    C5431176   0.185   3.335   1.054 -0.4952 -0.2527  0.0859
   92MOL    C5531177   0.106   3.288   1.162 -0.5109 -0.4274 -0.6182
   92MOL    C5631178   0.164   3.187   1.245 -0.9195 -0.9577  0.8267
   92MOL    C5731179   0.295   3.128   1.222  0.2180 -0.0225  0.1529
   92MOL    O5831180   0.326   3.020   1.290 -0.2490  0.1129 -0.3609
   92MOL    C5931181   0.367   3.186   1.115 -0.4675  0.6500  0.5890
   92MOL    C6031182   0.314   3.287   1.033 -0.0747  0.0093  0.4211
   92MOL    C6131183   0.218   3.568   0.953 -0.1135 -0.2519  0.3034
   92MOL    H6231184   0.036   3.480   1.020  1.3702 -0.8124  2.2334
   92MOL    H6331185   0.010   3.330   1.184 -0.3747 -0.4498  0.0473
   92MOL    H6431186   0.104   3.165   1.332 -1.3768  0.0461  0.7665
   92MOL    H6531187   0.254   2.959   1.300 -0.3268  0.4230  1.2099
   92MOL    H6631188   0.462   3.141   1.091 -1.1961 -2.6610  3.5423
   92MOL    H6731189   0.381   3.314   0.952 -1.5870 -0.4700 -1.0138
   92MOL    H6831190   0.169   3.646   0.894  1.8956  1.9411  1.4591
   92MOL    H6931191   0.307   3.544   0.895  0.2475 -1.2680  1.2612
   92MOL    C7031192   0.261   3.627   1.083 -1.0609  0.3094 -0.3261
   92MOL    C7131193   0.141   3.649   1.181 -0.0133  0.5053  0.6514
   92MOL    C7231194   0.126   3.574   1.298  0.2854 -0.6486 -0.6199
   92MOL    C7331195   0.026   3.589   1.389  0.2158 -0.1656  0.2907
   92MOL    C7431196   7.955   3.664   1.352 -0.3801 -0.2090  0.3556
   92MOL    O7531197   7.842   3.656   1.424  0.6566 -0.6133  0.5678
   92MOL    C7631198   7.964   3.746   1.237 -0.3738  0.3790 -0.0029
   92MOL    C7731199   0.040   3.741   1.153 -0.3224 -0.3673  0.2024
   92MOL    C7831200   0.335   3.756   1.068  0.9387 -0.2753 -0.2214
   92MOL    H7931201   0.329   3.566   1.142 -0.9687 -0.6631 -1.4208
   92MOL    H8031202   0.204   3.500   1.312 -0.2767 -1.7632 -3.0234
   92MOL    H8131203   0.023   3.526   1.477 -1.5926  0.6114  0.8007
   92MOL    H8231204   7.849   3.582   1.482 -0.7270 -0.8351  0.4665
   92MOL    H8331205   7.878   3.807   1.213 -0.2494  0.9812  1.0256
   92MOL    H8431206   0.032   3.798   1.062 -2.4548 -0.1174  0.5273
   92MOL    H8531207   0.380   3.781   1.164 -0.1576 -1.5845  0.6525
   92MOL    H8631208   0.260   3.832   1.048  0.9277 -0.4815 -0.9884
   92MOL    C8731209   0.451   3.775   0.954  0.6220  0.2838  0.0721
   92MOL    C8831210   0.549   3.658   0.948  0.5717  0.0106  0.4252
   92MOL    C8931211   0.596   3.603   1.069 -0.3876 -0.8709 -0.3641
   92MOL    C9031212   0.678   3.489   1.075 -0.2061 -0.0236  0.8497
   92MOL    C9131213   0.703   3.425   0.949  0.5874  0.7447 -0.1121
   92MOL    O9231214   0.773   3.311   0.948  0.0370  0.2115  0.5415
   92MOL    C9331215   0.667   3.483   0.827  0.2146 -0.5104  0.1491
   92MOL    C9431216   0.580   3.595   0.825 -0.1789 -0.5229  0.1125
   92MOL    C9531217   0.533   3.900   0.967 -0.1652 -0.2328 -0.3388
   92MOL    H9631218   0.399   3.787   0.860  0.2632  1.0176  0.3628
   92MOL    H9731219   0.573   3.645   1.166 -0.7373 -1.1942 -0.3027
   92MOL    H9831220   0.699   3.449   1.173 -0.6973 -1.5552  0.3385
   92MOL    H9931221   0.796   3.276   1.033  1.8394 -1.3242 -0.5334
   92MOL   H10031222   0.705   3.442   0.734 -0.9677  2.6450 -1.8486
   92MOL   H10131223   0.547   3.633   0.730 -1.3011  0.4638  0.8736
   92MOL   H10231224   0.581   3.893   1.064 -0.4178  0.3173 -0.1706
   92MOL   H10331225   0.620   3.897   0.902  0.6363  0.3148  0.6923
   92MOL   C10431226   0.460   4.040   0.973 -0.0713  0.2555  0.0251
   92MOL   C10531227   0.436   4.092   0.836 -0.6321 -0.0996 -0.4810
   92MOL   C10631228   0.312   4.063   0.774 -0.4136  0.3617  0.1835
   92MOL   C10731229   0.296   4.098   0.643  0.8174 -0.1393  0.2561
   92MOL   C10831230   0.402   4.154   0.565  0.2450  0.0253  0.6807
   92MOL   O10931231   0.381   4.175   0.427  0.1109  0.1862 -0.1003
   92MOL   C11031232   0.525   4.179   0.625 -0.1997 -0.8546  0.1257
   92MOL   C11131233   0.542   4.150   0.765  0.0319  0.5731  0.1480
   92MOL   C11231234   0.527   4.148   1.068 -0.0568  0.2551 -0.1650
   92MOL   H11331235   0.366   4.028   1.025  0.9459 -0.8217  1.6564
   92MOL   H11431236   0.240   4.011   0.835 -0.8394  0.0715 -0.5622
   92MOL   H11531237   0.201   4.082   0.594  0.9835 -2.9856  0.7547
   92MOL   H11631238   0.461   4.184   0.378  1.4433 -1.5591  1.6777
   92MOL   H11731239   0.595   4.233   0.563 -1.0702 -0.3762 -0.4575
   92MOL   H11831240   0.635   4.194   0.798 -0.4105  1.4618  0.2362
   92MOL   H11931241   0.629   4.176   1.041  0.6688 -1.4184  0.7868
   92MOL   H12031242   0.558   4.096   1.159 -3.3902  0.4165  1.1332
   92MOL   C12131243   0.435   4.271   1.114  0.0086 -0.1967 -0.2248
   92MOL   C12231244   0.287   4.238   1.133  0.2345  0.6696  0.3450
   92MOL   C12331245   0.258   4.184   1.258  0.1989  0.3727 -0.2339
   92MOL   C12431246   0.124   4.144   1.293  0.2827  0.3512 -0.1326
   92MOL   C12531247   0.023   4.147   1.193  0.2468 -0.1660  0.5929
   92MOL   O12631248   7.934   4.107   1.229 -0.3133  0.6997  0.2614
   92MOL   C12731249   0.051   4.204   1.062  0.4237  0.7343  0.0261
   92MOL   C12831250   0.186   4.244   1.032 -0.2245  0.7917  0.8398
   92MOL   C12931251   0.506   4.345   1.231 -0.2930  0.1264  0.0452
   92MOL   H13031252   0.438   4.349   1.038  0.7019  2.4914  2.4743
   92MOL   H13131253   0.333   4.189   1.335  0.1058 -1.6781  0.0352
   92MOL   H13231254   0.093   4.112   1.392  1.6101  0.3907  0.3088
   92MOL   H13331255   7.918   4.080   1.318  0.4671 -0.4243  0.0724
   92MOL   H13431256   8.007   4.212   0.992  0.3112 -0.4564  0.0089
   92MOL   H13531257   0.211   4.279   0.933 -3.1131 -0.4263 -0.3988
   92MOL   H13631258   0.596   4.386   1.184  0.2549 -0.3190  0.6987
   92MOL   H13731259   0.538   4.267   1.300 -4.4360 -1.1374  0.6565
   92MOL   C13831260   0.433   4.455   1.309  0.3374  0.3867 -0.2133
   92MOL   C13931261   0.383   4.560   1.211  0.9259 -0.0722 -0.8588
   92MOL   C14031262   0.244   4.594   1.207 -0.1421 -0.5450 -0.3062
   92MOL   C14131263   0.189   4.674   1.109 -0.3264 -0.1373 -0.2959
   92MOL   C14231264   0.274   4.721   1.006  0.2994  0.5020 -0.4186
   92MOL   O14331265   0.220   4.795   0.900  0.1911  0.3659  0.4514
   92MOL   C14431266   0.418   4.699   1.013  0.3388  0.1550 -0.6006
   92MOL   C14531267   0.474   4.621   1.120  0.0023 -0.2436 -0.4548
   92MOL   C14631268   0.511   4.519   1.428 -0.1488 -0.7355  0.3082
   92MOL   H14731269   0.342   4.421   1.359 -1.0634  2.0881 -1.5292
   92MOL   H14831270   0.177   4.540   1.272  0.4932  0.7882  1.4878
   92MOL   H14931271   0.083   4.687   1.091 -0.3240  0.8837  0.3610
   92MOL   H15031272   0.284   4.854   0.861 -4.2118  3.2002 -3.0065
   92MOL   H15131273   0.477   4.753   0.941  1.1811  0.2351  0.1463
   92MOL   H15231274   0.576   4.587   1.121 -0.1171 -0.6247 -0.8188
   92MOL   H15331275   0.446   4.602   1.458 -1.3397 -0.5882 -2.5224
   92MOL   H15431276   0.607   4.558   1.395  0.2374 -1.1449  0.9461
   92MOL   C15531277   0.541   4.421   1.546 -0.2401 -0.2210  0.3358
   92MOL   C15631278   0.519   4.505   1.667  0.2645  0.3402  0.3645
   92MOL   C15731279   0.612   4.600   1.712  0.1515 -0.2916  0.0560
   92MOL   C15831280   0.588   4.661   1.830  0.1163  0.2443 -1.3468
   92MOL   C15931281   0.480   4.624   1.909 -0.5743  0.2195  0.1502
   92MOL   O16031282   0.458   4.692   2.026 -0.0343  0.2473  0.1218
   92MOL   C16131283   0.392   4.523   1.875 -0.0576  0.2167  0.0180
   92MOL   C16231284   0.417   4.458   1.754  0.0772  0.0203  0.3891
   92MOL   C16331285   0.683   4.363   1.539 -0.5727 -0.3943  0.3134
   92MOL   H16431286   0.470   4.340   1.553  0.0982 -0.3034  3.0003
   92MOL   H16531287   0.695   4.629   1.650 -0.2258  0.6179 -0.0368
   92MOL   H16631288   0.650   4.743   1.864 -1.2604  0.6459  0.2330
   92MOL   H16731289   0.406   4.647   2.092 -0.2326  1.5305  0.8675
   92MOL   H16831290   0.301   4.498   1.927 -0.4365 -2.2738 -1.6964
   92MOL   H16931291   0.363   4.369   1.726 -1.9174  1.4837 -0.5232
   92MOL   H17031292   0.755   4.443   1.527  1.2270 -1.7104  1.8529
   92MOL   H17131293   0.692   4.296   1.454 -2.2760 -1.4435  0.9110
   92MOL   C17231294   0.738   4.277   1.656  0.3229 -0.0428  0.6206
   92MOL   C17331295   0.885   4.302   1.670  0.7440  0.3114 -0.6387
   92MOL   C17431296   0.927   4.417   1.744 -0.1563 -0.0268  0.2139
   92MOL   C17531297   1.066   4.448   1.751  0.3108  0.3623 -0.3957
   92MOL   C17631298   1.160   4.370   1.679  0.7823 -1.0014 -0.1285
   92MOL   O17731299   1.292   4.413   1.673  0.8039 -0.7805  0.2051
   92MOL   C17831300   1.117   4.255   1.613  0.5482 -0.4598  0.6567
   92MOL   C17931301   0.977   4.222   1.606  0.2539  0.3591  0.8556
   92MOL   C18031302   0.704   4.129   1.647 -0.1083  0.2442 -0.2394
   92MOL   H18131303   0.693   4.320   1.745  0.8873  0.7254  0.5418
   92MOL   H18231304   0.857   4.485   1.790  0.4511  0.2497  0.7404
   92MOL   H18331305   1.095   4.544   1.792 -0.2189  0.2769  0.1707
   92MOL   H18431306   1.310   4.487   1.728  1.0047 -0.4906 -0.2448
   92MOL   H18531307   1.182   4.188   1.559 -1.1683 -3.4089  2.0773
   92MOL   H18631308   0.945   4.137   1.548 -0.4634  1.8222 -0.9620
   92MOL   H18731309   0.731   4.078   1.554 -1.8784 -0.0921 -0.5791
   92MOL   H18831310   0.596   4.132   1.638 -0.0802  2.4193  0.0285
   92MOL   C18931311   0.721   4.037   1.777 -0.3850  0.3094 -0.0987
   92MOL   C19031312   0.708   4.127   1.903 -0.0169 -0.9055 -0.3128
   92MOL   C19131313   0.591   4.196   1.937  0.3447 -1.3883 -0.7210
   92MOL   C19231314   0.588   4.298   2.036 -0.2173 -0.4143 -0.5759
   92MOL   C19331315   0.706   4.326   2.104  0.3763  0.0889  0.1337
   92MOL   O19431316   0.706   4.428   2.199 -0.6313  0.1428  0.0854
   92MOL   C19531317   0.826   4.263   2.067  0.0052  0.2809  0.6625
   92MOL   C19631318   0.826   4.163   1.969 -0.9086  0.6312 -0.3942
   92MOL   C19731319   0.631   3.910   1.782 -0.6566 -0.2840 -0.4823
   92MOL   H19831320   0.818   3.990   1.786 -1.7423 -2.6664 -0.3204
   92MOL   H19931321   0.501   4.175   1.880  1.0932  0.3289 -2.6044
   92MOL   H20031322   0.497   4.356   2.048 -0.2453 -0.3839 -0.9193
   92MOL   H20131323   0.623   4.465   2.225 -0.2734  0.1472  1.2381
   92MOL   H20231324   0.913   4.306   2.115 -0.0975 -0.1973  1.2788
   92MOL   H20331325   0.918   4.115   1.938 -0.3722  0.7369  1.0063
   92MOL   H20431326   0.536   3.939   1.739 -0.9154 -0.5156 -0.0613
   92MOL   H20531327   0.613   3.893   1.887  0.5973  0.2823 -0.1574
   92MOL   C20631328   0.701   3.783   1.724 -0.1917  0.4669 -0.7007
   92MOL   C20731329   0.751   3.806   1.582  0.1658 -0.2946 -0.1052
   92MOL   C20831330   0.661   3.841   1.473  0.4495 -0.2399 -1.0218
   92MOL   C20931331   0.716   3.879   1.349  0.1972 -0.6038 -0.0470
   92MOL   C21031332   0.855   3.888   1.337  0.4429  0.3087 -0.3788
   92MOL   O21131333   0.901   3.934   1.223 -0.3240  0.2791  0.5648
   92MOL   C21231334   0.942   3.849   1.439 -0.2566  0.1274 -0.2589
   92MOL   C21331335   0.887   3.800   1.556  0.1928  0.4024  0.3059
   92MOL   C21431336   0.620   3.650   1.739 -0.4666 -0.2339 -0.7741
   92MOL   H21531337   0.792   3.776   1.782 -0.2183  1.0335 -0.5890
   92MOL   H21631338   0.555   3.852   1.493  0.9920  2.5998  0.4769
   92MOL   H21731339   0.650   3.914   1.271 -0.0849 -0.5711  0.2057
   92MOL   H21831340   0.847   3.917   1.147  1.0238 -0.6576 -0.2070
   92MOL   H21931341   1.048   3.852   1.422 -0.2618 -0.2810 -0.3561
   92MOL   H22031342   0.952   3.777   1.639 -3.0983 -0.0711  2.8543
   92MOL   H22131343   0.519   3.662   1.700 -0.7422 -0.0060  0.0035
   92MOL   H22231344   0.598   3.630   1.843 -0.7570 -1.3845 -1.0422
   92MOL   C22331345   0.689   3.519   1.699 -0.0893  0.7758 -0.0115
   92MOL   C22431346   0.586   3.409   1.675 -0.1696 -0.3518  0.2165
   92MOL   C22531347   0.539   3.391   1.540 -0.2857  0.3367  0.1262
   92MOL   C22631348   0.457   3.277   1.507 -0.0923  0.7821 -0.2104
   92MOL   C22731349   0.436   3.176   1.601  0.5100  0.4046  0.0892
   92MOL   O22831350   0.377   3.064   1.558  0.0692 -0.4304 -0.6373
   92MOL   C22931351   0.463   3.209   1.736  0.0433 -0.7537  0.2170
   92MOL   C23031352   0.538   3.322   1.772  0.3134  0.3079  0.3918
   92MOL   C23131353   0.810   3.481   1.781  0.2039 -0.8517  0.3789
   92MOL   H23231354   0.722   3.542   1.597 -1.0543  0.3510 -0.4319
   92MOL   H23331355   0.579   3.442   1.453 -1.0841  0.9734  0.1220
   92MOL   H23431356   0.441   3.257   1.402 -1.0797 -0.8675  0.2413
   92MOL   H23531357   0.368   3.055   1.464  1.2396 -0.3290 -0.7764
   92MOL   H23631358   0.448   3.138   1.816  2.3879 -2.4345 -0.7539
   92MOL   H23731359   0.565   3.334   1.876  1.3841 -1.8571  0.3882
   92MOL   H23831360   0.884   3.560   1.767 -1.8064  1.1130  0.5183
   92MOL   H23931361   0.801   3.488   1.889  1.7075  0.9051  0.4236
   92MOL   C24031362   0.880   3.343   1.756  0.6660  0.2835 -0.0671
   92MOL   C24131363   0.905   3.315   1.603 -0.4359  0.3821  0.3474
   92MOL   C24231364   0.971   3.407   1.524  0.4510  0.1336  0.5849
   92MOL   C24331365   0.972   3.410   1.383 -0.4353  0.0101  0.6705
   92MOL   C24431366   0.916   3.301   1.319  0.3090 -0.3459  0.7682
   92MOL   O24531367   0.928   3.278   1.188 -0.0769  0.5194  0.3721
   92MOL   C24631368   0.843   3.212   1.394  0.8797 -0.4083  0.1008
   92MOL   C24731369   0.843   3.210   1.536  0.3692 -0.4988 -0.8876
   92MOL   C24831370   1.004   3.329   1.842 -0.8491  0.2841 -0.2318
   92MOL   H24931371   0.821   3.257   1.786  1.4732 -0.6331 -1.0660
   92MOL   H25031372   1.020   3.490   1.573  1.7430 -0.7431  0.7957
   92MOL   H25131373   1.040   3.480   1.335 -1.6236  0.3488 -0.5529
   92MOL   H25231374   0.995   3.332   1.149 -0.2644  1.1816  0.9506
   92MOL   H25331375   0.774   3.144   1.347 -0.0518 -0.0157  0.8945
   92MOL   H25431376   0.782   3.133   1.583 -0.5312 -0.3967 -1.8603
   92MOL   H25531377   1.076   3.401   1.802 -2.5937  1.8025 -0.6940
   92MOL   H25631378   0.998   3.367   1.944  0.6019 -0.5514  0.1809
   92MOL   C25731379   1.068   3.190   1.858 -0.7690  0.1343 -0.6611
   92MOL   C25831380   0.986   3.082   1.927 -1.0195 -0.1007 -0.1845
   92MOL   C25931381   1.001   3.046   2.065 -0.0835  0.0638 -0.0333
   92MOL   C26031382   0.919   2.954   2.130 -0.4738 -0.1963 -0.8379
   92MOL   C26131383   0.836   2.875   2.048  0.3662 -0.1047  0.1083
   92MOL   O26231384   0.767   2.772   2.101  0.9882  0.1517  0.1246
   92MOL   C26331385   0.825   2.899   1.910 -0.1338  0.3019 -0.7403
   92MOL   C26431386   0.907   2.997   1.848 -1.1114  0.0824 -0.5258
   92MOL   C26531387   1.141   3.157   1.722  0.5144 -0.4762 -0.5880
   92MOL   H26631388   1.154   3.201   1.923 -0.3338  0.4142 -1.2769
   92MOL   H26731389   1.073   3.090   2.133  1.3252  0.6932 -1.8978
   92MOL   H26831390   0.921   2.917   2.232  2.6240 -0.3041 -0.9039
   92MOL   H26931391   0.754   2.708   2.033 -0.5329  0.3630  0.2057
   92MOL   H27031392   0.756   2.842   1.849  1.7311 -1.4395 -1.3075
   92MOL   H27131393   0.887   3.025   1.745 -1.4312  0.4013 -0.3792
   92MOL   H27231394   1.171   3.251   1.675 -2.2176  0.4020 -0.6267
   92MOL   H27331395   1.069   3.110   1.654 -2.1461  2.8388 -0.1871
   92MOL   C27431396   1.250   3.054   1.726 -0.0285 -0.0482  0.7502
   92MOL   C27531397   1.361   3.079   1.827  1.1116  0.3874  1.2487
   92MOL   C27631398   1.384   3.007   1.945 -0.0297 -0.0554 -0.2467
   92MOL   C27731399   1.479   3.039   2.037  0.1561  0.2154 -0.1345
   92MOL   C27831400   1.566   3.147   2.012 -0.3380 -0.4399 -0.5338
   92MOL   O27931401   1.648   3.191   2.109  0.3549  0.3250  0.0845
   92MOL   C28031402   1.556   3.220   1.893  0.1231 -0.0831 -0.0531
   92MOL   C28131403   1.455   3.183   1.808  0.7440 -1.1515  0.0980
   92MOL   C28231404   1.317   3.037   1.580  0.3527  0.1029  0.3787
   92MOL   H28331405   1.201   2.962   1.759  1.3414 -0.0811  2.7322
   92MOL   H28431406   1.309   2.939   1.982 -0.3280  0.9694  1.0679
   92MOL   H28531407   1.476   2.998   2.137 -0.3013 -0.0538 -0.2568
   92MOL   H28631408   1.653   3.144   2.191 -2.6875 -0.6058 -0.1795
   92MOL   H28731409   1.624   3.303   1.884 -1.0975  1.0321  0.6492
   92MOL   H28831410   1.469   3.235   1.714 -1.7848 -0.8484 -0.1661
   92MOL   H28931411   1.344   3.133   1.538  1.1040 -0.1790  0.2186
   92MOL   H29031412   1.406   2.982   1.610 -0.7481 -1.2326  1.2833
   92MOL   C29131413   1.240   2.954   1.481  0.0684  0.7434 -0.4399
   92MOL   C29231414   1.186   2.830   1.544  0.3183  0.4703  1.1653
   92MOL   C29331415   1.044   2.819   1.571 -0.9378 -0.9361 -0.7929
   92MOL   C29431416   0.994   2.705   1.641 -0.6165 -0.6550  0.5262
   92MOL   C29531417   1.085   2.602   1.675  0.2834  0.5165 -0.4112
   92MOL   O29631418   1.034   2.489   1.738 -0.0206 -0.1573 -0.3133
   92MOL   C29731419   1.223   2.609   1.647  0.2275 -0.4047 -0.1514
   92MOL   C29831420   1.276   2.724   1.582  0.2642  0.4014 -0.4866
   92MOL   C29931421   1.316   2.935   1.349  0.4149 -0.2559 -0.0427
   92MOL   H30031422   1.153   3.017   1.460 -0.8912 -0.9045 -1.5446
   92MOL   H30131423   0.973   2.895   1.541  2.2927  2.5492  0.1036
   92MOL   H30231424   0.888   2.695   1.658 -1.2908  1.4396 -2.1188
   92MOL   H30331425   1.095   2.417   1.748 -1.1800 -1.0826  0.0954
   92MOL   H30431426   1.282   2.519   1.660 -0.1547 -0.4399  1.4432
   92MOL   H30531427   1.380   2.747   1.559  0.2719 -1.0563 -2.0590
   92MOL   H30631428   1.412   2.887   1.372  0.0407 -1.5039 -1.0261
   92MOL   H30731429   1.334   3.031   1.301  0.6126 -2.0244 -3.7232
   92MOL   C30831430   1.249   2.836   1.252  0.0457  0.2095  0.0776
   92MOL   C30931431   1.352   2.787   1.150  0.1904  0.4942  0.8549
   92MOL   C31031432   1.420   2.882   1.067 -0.2764 -0.0755 -0.6541
   92MOL   C31131433   1.517   2.839   0.972 -0.8343  0.6487 -0.2642
   92MOL   C31231434   1.543   2.701   0.962  0.9273 -0.0342  0.0055
   92MOL   O31331435   1.648   2.658   0.879  0.1136  0.0963 -0.3191
   92MOL   C31431436   1.478   2.609   1.043 -0.3609 -0.4709 -0.2035
   92MOL   C31531437   1.378   2.649   1.135  0.8778 -0.6648 -0.1486
   92MOL   C31631438   1.130   2.904   1.182 -0.7705  0.1001 -0.6873
   92MOL   H31731439   1.211   2.753   1.310 -1.6507  0.9096 -0.0030
   92MOL   H31831440   1.403   2.987   1.084 -1.9643 -0.3248 -0.7440
   92MOL   H31931441   1.576   2.911   0.918 -1.1015  0.5187 -0.7286
   92MOL   H32031442   1.645   2.570   0.846 -2.4846  0.6379 -1.6288
   92MOL   H32131443   1.498   2.503   1.038  1.8576 -0.0228 -1.2476
   92MOL   H32231444   1.326   2.582   1.201 -0.5697 -2.2464 -2.8034
   92MOL   H32331445   1.161   2.917   1.078  1.1874  0.5912 -0.0620
   92MOL   H32431446   1.114   3.006   1.217  1.3427 -0.0101  0.6995
   92MOL   C32531447   1.000   2.820   1.192 -0.1103 -0.0951  0.7574
   92MOL   C32631448   1.008   2.679   1.137  0.7398 -1.1292 -0.6098
   92MOL   C32731449   0.989   2.567   1.223 -0.1678  0.6546  0.0524
   92MOL   C32831450   1.028   2.443   1.175 -0.0495  0.2304  0.4565
   92MOL   C32931451   1.077   2.424   1.043  0.3542  0.1848 -0.8495
   92MOL   O33031452   1.103   2.299   0.994 -0.1023  0.4231 -0.4426
   92MOL   C33131453   1.087   2.533   0.958  0.4575  0.3659  0.0409
   92MOL   C33231454   1.056   2.663   1.006  0.5817 -0.3762 -0.2723
   92MOL   C33331455   0.888   2.899   1.127 -0.2848  0.4015 -0.1549
   92MOL   H33431456   0.979   2.808   1.299  1.2396 -0.3819  1.0033
   92MOL   H33531457   0.957   2.580   1.325 -1.4685  0.9305 -0.3705
   92MOL   H33631458   1.026   2.352   1.234  1.7766 -0.9989 -1.2933
   92MOL   H33731459   1.108   2.229   1.058 -0.6359  1.1786  0.4462
   92MOL   H33831460   1.124   2.528   0.857  0.6600 -1.0705  0.1742
   92MOL   H33931461   1.086   2.749   0.948  0.1225 -0.9932 -1.4356
   92MOL   H34031462   0.912   2.900   1.020  0.4535  0.6806  0.0070
   92MOL   H34131463   0.881   3.004   1.156 -0.3100 -0.0394  1.4554
   92MOL   H34231464   0.792   2.854   1.150  1.3140 -2.9232  0.2423
   93MOL     C131465   6.091   1.343   3.498  0.3755  0.7242  0.6628
   93MOL     C231466   6.003   1.463   3.464  0.6561  0.2160 -0.4123
   93MOL     C331467   6.010   1.577   3.535  0.4430  0.2439 -0.5368
   93MOL     C431468   5.927   1.683   3.491 -0.7804 -0.5374 -0.4726
   93MOL     C531469   5.835   1.677   3.389 -0.2300  0.1837 -0.1585
   93MOL     O631470   5.762   1.787   3.359 -0.0784  0.4129 -0.3219
   93MOL     C731471   5.824   1.547   3.325  0.4933 -0.9614 -0.5797
   93MOL     C831472   5.900   1.441   3.368  0.4513 -0.7474  0.6551
   93MOL     C931473   6.197   1.314   3.389  1.0538  0.2960 -0.3814
   93MOL    H1031474   6.130   1.340   3.600 -1.1353  1.1309  1.2569
   93MOL    H1131475   6.069   1.588   3.625 -2.3864 -1.9342  1.6700
   93MOL    H1231476   5.933   1.770   3.555  0.0958  1.2889 -2.9407
   93MOL    H1331477   5.806   1.865   3.389  0.8598 -0.2515  0.0681
   93MOL    H1431478   5.752   1.545   3.244  0.3559 -0.0065 -0.4918
   93MOL    H1531479   5.900   1.352   3.307 -2.2420 -0.6715  0.4552
   93MOL    H1631480   6.293   1.363   3.405  0.6603  1.2864 -0.9663
   93MOL    H1731481   6.166   1.365   3.299 -0.8302  0.3658  0.2886
   93MOL    H1831482   6.029   1.253   3.501  1.0219  0.2570  0.2226
   93MOL    C1931483   6.222   1.168   3.352  1.0381  0.2445 -0.0403
   93MOL    C2031484   6.270   1.089   3.471 -0.1988  0.2431 -0.7293
   93MOL    C2131485   6.396   1.119   3.522  0.6293 -0.2362 -0.2958
   93MOL    C2231486   6.445   1.054   3.643 -0.2544 -0.0031  0.8575
   93MOL    C2331487   6.373   0.948   3.693 -1.0503 -0.1754  0.1843
   93MOL    O2431488   6.430   0.873   3.784  0.1461 -0.1673 -0.1350
   93MOL    C2531489   6.244   0.910   3.636  0.4051 -0.0560  0.2335
   93MOL    C2631490   6.194   0.986   3.524  0.5950 -0.7988  0.3389
   93MOL    C2731491   6.316   1.160   3.221  0.8168 -0.0877  0.2332
   93MOL    H2831492   6.131   1.118   3.319  0.7774 -0.9291  2.3896
   93MOL    H2931493   6.449   1.204   3.481  0.3382 -0.4999 -1.2225
   93MOL    H3031494   6.537   1.086   3.689  0.6846  0.7231 -1.4823
   93MOL    H3131495   6.434   0.779   3.774  3.1924 -0.2996  1.4434
   93MOL    H3231496   6.197   0.821   3.675  1.0623 -0.6045 -0.1995
   93MOL    H3331497   6.097   0.975   3.479  0.7911  1.1452 -0.6323
   93MOL    H3431498   6.388   1.239   3.242 -0.0000  0.8509 -0.4471
   93MOL    H3531499   6.258   1.171   3.129 -1.3767 -0.5342  1.5364
   93MOL    C3631500   6.381   1.020   3.201  0.4408  0.0961 -0.2053
   93MOL    C3731501   6.534   1.022   3.193 -0.0254 -0.2079  0.2955
   93MOL    C3831502   6.613   0.970   3.292  0.2681  0.2999  0.0667
   93MOL    C3931503   6.749   0.959   3.272  0.4613  0.1198 -0.5501
   93MOL    C4031504   6.815   1.012   3.163 -0.2656 -0.0366  0.4922
   93MOL    O4131505   6.949   1.004   3.150  0.0214 -0.0963 -0.0816
   93MOL    C4231506   6.736   1.073   3.065 -1.2066 -0.2883 -0.5414
   93MOL    C4331507   6.595   1.070   3.074 -0.0353 -0.0569 -0.0740
   93MOL    C4431508   6.325   0.930   3.089  0.1158  0.3420  0.6033
   93MOL    H4531509   6.371   0.965   3.294  0.9484  2.1657  1.1108
   93MOL    H4631510   6.568   0.930   3.382 -0.0406  0.1704 -0.1441
   93MOL    H4731511   6.808   0.920   3.354 -0.1235  1.4371  0.5034
   93MOL    H4831512   7.004   0.976   3.222  0.2962 -1.6960 -0.8953
   93MOL    H4931513   6.787   1.113   2.978 -0.1415  1.5875  0.9003
   93MOL    H5031514   6.538   1.108   2.990 -0.8791  0.4081  0.6968
   93MOL    H5131515   6.216   0.935   3.090  0.1732  2.7578  0.0865
   93MOL    H5231516   6.355   0.984   3.000  3.0275  0.2552  1.4799
   93MOL    C5331517   6.364   0.779   3.075  0.4220 -0.2835 -0.2446
   93MOL    C5431518   6.334   0.705   3.209  0.7729  0.0795  0.4679
   93MOL    C5531519   6.203   0.662   3.238 -0.3069  0.3648  0.5207
   93MOL    C5631520   6.175   0.605   3.364  0.7813  0.8150 -0.0394
   93MOL    C5731521   6.270   0.612   3.468  0.2288  0.1145  0.4924
   93MOL    O5831522   6.242   0.571   3.591  0.1146  0.3737 -0.9549
   93MOL    C5931523   6.400   0.653   3.438 -0.0282  0.0801  0.2439
   93MOL    C6031524   6.436   0.699   3.307  0.0602  0.9237 -0.1560
   93MOL    C6131525   6.301   0.709   2.955 -0.1248 -0.2571  0.2277
   93MOL    H6231526   6.472   0.783   3.065  0.6650  0.1557  2.1316
   93MOL    H6331527   6.132   0.666   3.157  0.0499  1.9614  0.2570
   93MOL    H6431528   6.081   0.556   3.386  0.4384  1.2534 -0.5200
   93MOL    H6531529   6.305   0.602   3.655 -0.6200 -2.5955  1.3681
   93MOL    H6631530   6.475   0.649   3.515 -1.0643 -1.8674  1.1903
   93MOL    H6731531   6.537   0.725   3.279 -0.3689  1.2607 -1.4376
   93MOL    H6831532   6.338   0.760   2.866  0.4794  0.8884  1.1294
   93MOL    H6931533   6.194   0.729   2.949 -0.0049  0.3827  0.1693
   93MOL    C7031534   6.333   0.553   2.950  0.1579 -0.3207  0.1676
   93MOL    C7131535   6.479   0.534   2.937  0.3489 -0.2368  0.3712
   93MOL    C7231536   6.549   0.565   2.821 -0.2965 -0.3095 -1.5062
   93MOL    C7331537   6.685   0.535   2.817  0.1217  0.2428  0.5268
   93MOL    C7431538   6.752   0.478   2.925  0.4442  0.4448  0.0235
   93MOL    O7531539   6.886   0.463   2.927 -0.2175  0.5014 -0.0402
   93MOL    C7631540   6.683   0.456   3.047 -0.1327 -0.9609 -0.1608
   93MOL    C7731541   6.548   0.485   3.051 -0.1077  0.0142  0.1259
   93MOL    C7831542   6.250   0.484   2.841  0.1161  0.6085  0.2184
   93MOL    H7931543   6.309   0.493   3.038 -0.9435 -0.4741 -0.2249
   93MOL    H8031544   6.492   0.596   2.735 -1.5753  1.6019  0.0145
   93MOL    H8131545   6.729   0.557   2.720  1.1178 -1.3512  0.5967
   93MOL    H8231546   6.918   0.487   2.842 -3.1825  1.3818 -0.9748
   93MOL    H8331547   6.735   0.402   3.124  1.3228  0.2003 -0.3160
   93MOL    H8431548   6.498   0.466   3.145  2.1560  2.1277  1.8246
   93MOL    H8531549   6.280   0.540   2.752  0.1727 -2.1477 -1.5590
   93MOL    H8631550   6.142   0.486   2.854  0.1866 -1.2135  1.1873
   93MOL    C8731551   6.289   0.336   2.814 -0.3903 -0.0348  0.4483
   93MOL    C8831552   6.215   0.266   2.699  0.6015 -0.7250  0.2756
   93MOL    C8931553   6.284   0.174   2.619 -0.2221  0.1425  0.3759
   93MOL    C9031554   6.213   0.097   2.518 -0.2404  0.0853 -0.7227
   93MOL    C9131555   6.074   0.122   2.495  0.2881  0.7513 -0.1630
   93MOL    O9231556   6.001   0.053   2.402  0.6229  0.4996 -0.7161
   93MOL    C9331557   6.012   0.218   2.569  0.7026 -0.2102  0.1830
   93MOL    C9431558   6.077   0.286   2.669  0.9598  0.8549  0.1208
   93MOL    C9531559   6.304   0.227   2.927  0.1611  0.2365  0.6673
   93MOL    H9631560   6.389   0.344   2.772 -1.6104 -1.3385 -2.8736
   93MOL    H9731561   6.388   0.146   2.628  0.1923  1.4197 -0.3730
   93MOL    H9831562   6.258   0.018   2.460 -0.2939 -0.7483  0.3446
   93MOL    H9931563   6.037   8.009   2.371 -2.3015 -1.5855  1.2218
   93MOL   H10031564   5.913   0.258   2.552  1.3771  1.8764  0.9910
   93MOL   H10131565   6.023   0.360   2.727 -3.6839 -1.8837 -0.5195
   93MOL   H10231566   6.342   0.131   2.891  1.2160  0.7928  0.2938
   93MOL   H10331567   6.387   0.263   2.988  1.3432 -1.7816  0.3152
   93MOL   C10431568   6.196   0.205   3.027  0.8272 -0.6020  0.5332
   93MOL   C10531569   6.252   0.181   3.166 -0.3546  0.3041 -0.3978
   93MOL   C10631570   6.231   0.281   3.264 -0.2610  0.8211 -0.1636
   93MOL   C10731571   6.277   0.263   3.395 -0.4482 -0.3129  0.3514
   93MOL   C10831572   6.340   0.143   3.426 -0.5107 -0.1032 -0.2122
   93MOL   O10931573   6.389   0.117   3.547 -0.0626  0.0716 -0.8648
   93MOL   C11031574   6.363   0.045   3.329 -1.1590 -0.5638 -0.5376
   93MOL   C11131575   6.325   0.063   3.196 -0.1502 -0.3856 -0.4716
   93MOL   C11231576   6.102   0.087   2.970  1.0550 -0.3867 -0.1240
   93MOL   H11331577   6.131   0.292   3.034 -0.0515 -1.2543  0.5071
   93MOL   H11431578   6.170   0.368   3.246 -0.8243  0.9121  2.0469
   93MOL   H11531579   6.263   0.332   3.477 -0.4302  0.6986 -0.4790
   93MOL   H11631580   6.419   0.028   3.553  1.1995  0.3014 -3.2539
   93MOL   H11731581   6.413   7.991   3.358 -1.2929 -0.2922  0.5877
   93MOL   H11831582   6.341   8.016   3.131  0.2539 -0.1517 -0.6768
   93MOL   H11931583   6.170   0.002   2.966  1.5295  0.0820 -2.6734
   93MOL   H12031584   6.063   0.106   2.870 -0.9598 -2.8366  0.1435
   93MOL   C12131585   5.974   0.065   3.057  0.2708 -0.8658  0.0271
   93MOL   C12231586   5.884   0.179   3.065 -0.6128 -0.4723  0.0976
   93MOL   C12331587   5.882   0.257   3.185 -0.5256  0.4727 -0.2676
   93MOL   C12431588   5.800   0.369   3.196  0.8633 -0.5001  0.2372
   93MOL   C12531589   5.722   0.408   3.088  0.4568 -0.4455  0.1779
   93MOL   O12631590   5.650   0.528   3.097 -0.0406 -0.0936 -0.0262
   93MOL   C12731591   5.732   0.346   2.964 -0.0631  0.1655 -0.1891
   93MOL   C12831592   5.817   0.233   2.950 -0.8206  0.4674 -0.1993
   93MOL   C12931593   5.899   7.978   2.996 -0.8286  0.7068  0.0545
   93MOL   H13031594   5.998   0.047   3.162 -0.7383  0.3832  0.4929
   93MOL   H13131595   5.947   0.228   3.267 -0.6975 -1.6000 -0.8282
   93MOL   H13231596   5.803   0.423   3.289  0.3411  0.5602 -0.3437
   93MOL   H13331597   5.701   0.601   3.128 -0.5600 -0.5451  1.9809
   93MOL   H13431598   5.681   0.374   2.873 -0.8360  1.3358  0.5832
   93MOL   H13531599   5.818   0.196   2.849 -1.7711  1.6178 -0.6300
   93MOL   H13631600   5.925   7.977   2.890  1.7999 -0.6327  0.6718
   93MOL   H13731601   5.791   7.985   2.988 -0.9080 -1.4208 -0.8519
   93MOL   C13831602   5.956   7.849   3.062  0.2695  0.3213 -0.1678
   93MOL   C13931603   5.950   7.723   2.971  0.0278  0.0772  0.2930
   93MOL   C14031604   6.066   7.644   2.956  0.5720 -0.5744  0.1971
   93MOL   C14131605   6.063   7.527   2.885  0.6896 -0.1031  0.2407
   93MOL   C14231606   5.949   7.488   2.815  0.6976  0.0905  0.2790
   93MOL   O14331607   5.951   7.375   2.735 -0.1357 -0.4978 -0.4286
   93MOL   C14431608   5.830   7.561   2.825 -0.6454 -0.4987  0.3064
   93MOL   C14531609   5.832   7.680   2.906 -0.1715  0.2411  0.7610
   93MOL   C14631610   5.892   7.823   3.207  0.3300  0.3400  0.0886
   93MOL   H14731611   6.062   7.861   3.081 -0.2757 -0.4629  3.9665
   93MOL   H14831612   6.158   7.680   2.999  0.6569 -0.5978  0.0338
   93MOL   H14931613   6.155   7.469   2.880  0.6355 -0.2077  0.4633
   93MOL   H15031614   5.869   7.363   2.690 -1.0529  1.1344  0.7523
   93MOL   H15131615   5.746   7.525   2.769  0.9480 -1.3180 -1.6212
   93MOL   H15231616   5.732   7.721   2.900 -0.3367 -0.3801 -1.1526
   93MOL   H15331617   5.820   7.743   3.184 -1.0616  2.0996 -1.8642
   93MOL   H15431618   5.823   7.905   3.227 -1.9080 -1.6076  0.6387
   93MOL   C15531619   5.982   7.797   3.330  1.2482  0.9572 -0.0965
   93MOL   C15631620   6.067   7.672   3.312  0.4958  0.3173  0.5720
   93MOL   C15731621   6.199   7.695   3.258 -0.2151  0.3451  0.1903
   93MOL   C15831622   6.290   7.586   3.236  0.4790  0.4930  0.0507
   93MOL   C15931623   6.254   7.454   3.261  0.7842  0.0497  0.2164
   93MOL   O16031624   6.347   7.357   3.249  0.7368  0.4938 -0.1283
   93MOL   C16131625   6.126   7.433   3.314 -0.0820  0.3821  0.1273
   93MOL   C16231626   6.033   7.540   3.327 -0.1448 -0.2771  0.8326
   93MOL   C16331627   5.909   7.808   3.468 -0.3424 -0.2843  0.6797
   93MOL   H16431628   6.057   7.876   3.333  2.0105  0.2437 -0.1953
   93MOL   H16531629   6.240   7.792   3.235  1.2870  0.1698  1.9629
   93MOL   H16631630   6.389   7.605   3.198  0.0953 -1.0212 -1.7746
   93MOL   H16731631   6.322   7.270   3.276 -2.0290  0.5571 -2.2815
   93MOL   H16831632   6.105   7.336   3.357  1.5375  0.9419  2.2683
   93MOL   H16931633   5.933   7.516   3.358 -0.7213 -0.9293 -1.4627
   93MOL   H17031634   5.815   7.752   3.467 -0.4253 -0.1505  0.8561
   93MOL   H17131635   5.888   7.913   3.485  0.4334 -0.2109  1.1910
   93MOL   C17231636   5.987   7.740   3.585  0.0071  0.3618 -0.9240
   93MOL   C17331637   5.902   7.732   3.707 -0.1782 -0.2018  0.0960
   93MOL   C17431638   5.892   7.849   3.791 -0.1873 -0.0688  0.5461
   93MOL   C17531639   5.820   7.839   3.914 -0.2909 -0.3001 -0.6084
   93MOL   C17631640   5.754   7.717   3.950  0.0490 -0.2751 -0.6255
   93MOL   O17731641   5.683   7.713   4.067 -0.3955  0.0819 -0.0014
   93MOL   C17831642   5.759   7.604   3.865  0.5792 -0.1828  0.0259
   93MOL   C17931643   5.835   7.613   3.743 -0.0443  0.4824 -0.4857
   93MOL   C18031644   6.127   7.815   3.613  0.1976 -0.1469  0.4829
   93MOL   H18131645   6.006   7.636   3.559 -3.2714 -0.3216 -0.7869
   93MOL   H18231646   5.947   7.940   3.773 -0.9310 -0.0859 -2.0639
   93MOL   H18331647   5.803   7.920   3.983  0.9768 -0.3001 -0.2817
   93MOL   H18431648   5.635   7.632   4.070  1.6125 -1.1044  0.9610
   93MOL   H18531649   5.708   7.510   3.881  0.2151  0.1783  1.0551
   93MOL   H18631650   5.845   7.527   3.679  1.9023 -1.3379  2.1020
   93MOL   H18731651   6.112   7.916   3.653  0.5671 -0.0135  0.2863
   93MOL   H18831652   6.177   7.830   3.517  0.1119 -0.8170  0.3355
   93MOL   C18931653   6.229   7.734   3.702  0.1214  0.2849  0.5898
   93MOL   C19031654   6.370   7.753   3.642 -0.2419 -0.3543  0.2973
   93MOL   C19131655   6.442   7.872   3.664 -0.0795  0.1142  0.2512
   93MOL   C19231656   6.562   7.883   3.592 -0.5589 -0.5819  0.4458
   93MOL   C19331657   6.608   7.789   3.501 -0.3186 -0.3570 -0.4672
   93MOL   O19431658   6.712   7.818   3.419 -0.1306  0.7480  0.2524
   93MOL   C19531659   6.536   7.672   3.487 -1.1046 -0.2169 -0.5940
   93MOL   C19631660   6.420   7.647   3.562 -0.1072  0.0483  0.3226
   93MOL   C19731661   6.223   7.776   3.847 -0.5997  0.5402 -0.8930
   93MOL   H19831662   6.207   7.628   3.693  4.4257 -0.6546 -0.1343
   93MOL   H19931663   6.406   7.953   3.727 -1.9532  0.1524 -0.8301
   93MOL   H20031664   6.604   7.982   3.597 -2.1948  0.0612  2.0439
   93MOL   H20131665   6.730   7.755   3.352  1.1929  0.6755  0.6641
   93MOL   H20231666   6.566   7.598   3.414  1.8087  2.5104 -2.2575
   93MOL   H20331667   6.357   7.564   3.533 -0.5757  0.9516 -1.3013
   93MOL   H20431668   6.121   7.788   3.884 -0.2475 -0.7119  0.5830
   93MOL   H20531669   6.260   7.875   3.870 -1.5738  0.4366  1.3109
   93MOL   C20631670   6.306   7.680   3.944 -0.1711  0.3756  0.6809
   93MOL   C20731671   6.251   7.534   3.956 -0.0289  0.1097  0.7610
   93MOL   C20831672   6.320   7.418   3.930  0.2235  0.4122  0.8082
   93MOL   C20931673   6.260   7.288   3.946 -0.3780  0.1894 -0.1929
   93MOL   C21031674   6.125   7.275   3.978  0.3405  0.4121  0.0722
   93MOL   O21131675   6.068   7.156   3.983  0.0996  0.3750 -0.2831
   93MOL   C21231676   6.051   7.396   4.002  0.2658  0.1938  0.0687
   93MOL   C21331677   6.118   7.521   4.000 -0.0069  0.4399 -0.0254
   93MOL   C21431678   6.343   7.742   4.082  0.7215 -0.1935 -0.5163
   93MOL   H21531679   6.399   7.674   3.887 -0.1831 -0.9147  0.7936
   93MOL   H21631680   6.423   7.421   3.899  0.6380  0.0255  2.1148
   93MOL   H21731681   6.320   7.203   3.919  0.6238  0.7123  0.3533
   93MOL   H21831682   5.974   7.150   3.990 -0.3367  3.3436 -2.6836
   93MOL   H21931683   5.947   7.395   4.029  0.4610  1.4884  0.9462
   93MOL   H22031684   6.067   7.613   4.024 -0.7943  0.4069 -1.5594
   93MOL   H22131685   6.259   7.749   4.151  1.0450  1.3194 -0.2473
   93MOL   H22231686   6.369   7.847   4.066 -0.0083 -0.0364 -0.6829
   93MOL   C22331687   6.460   7.681   4.163  1.1559  1.0513  0.3671
   93MOL   C22431688   6.484   7.743   4.297  0.1853 -0.6255  0.5696
   93MOL   C22531689   6.509   7.668   4.417 -0.0295 -0.2078  0.6718
   93MOL   C22631690   6.524   7.725   4.542  0.1440  0.2096  1.1244
   93MOL   C22731691   6.531   7.867   4.542  0.6791  0.6085  0.1939
   93MOL   O22831692   6.559   7.927   4.654  0.4734 -0.1349 -0.7062
   93MOL   C22931693   6.529   7.946   4.428 -0.1248  0.7242 -0.4247
   93MOL   C23031694   6.499   7.884   4.309  0.5107  0.0836  0.5414
   93MOL   C23131695   6.589   7.677   4.083  0.1860 -0.3305  0.5977
   93MOL   H23231696   6.421   7.581   4.184  2.3239  0.3908 -0.5789
   93MOL   H23331697   6.497   7.561   4.416  2.1311 -0.4570 -1.7666
   93MOL   H23431698   6.538   7.657   4.624  0.0316 -1.9052 -0.5562
   93MOL   H23531699   6.653   7.939   4.659  0.3848  0.1127  0.5275
   93MOL   H23631700   6.538   0.015   4.443 -0.9121  0.5538  1.3860
   93MOL   H23731701   6.505   7.939   4.216  2.2333 -1.0253 -0.0291
   93MOL   H23831702   6.582   7.658   3.975  2.1719 -3.1939  0.9132
   93MOL   H23931703   6.619   7.781   4.087 -0.5880 -0.1098  0.7757
   93MOL   C24031704   6.704   7.593   4.143  0.0506  0.5111  0.3160
   93MOL   C24131705   6.668   7.452   4.102  0.2274 -1.1722 -0.3658
   93MOL   C24231706   6.619   7.366   4.203  0.4049 -0.3270 -0.5007
   93MOL   C24331707   6.572   7.237   4.164  0.6993 -0.3154  0.2436
   93MOL   C24431708   6.587   7.190   4.029 -0.1616 -0.3815  0.3295
   93MOL   O24531709   6.540   7.067   3.990 -0.1958  0.2196  0.2675
   93MOL   C24631710   6.650   7.278   3.934 -0.1181  0.2196 -0.1903
   93MOL   C24731711   6.685   7.406   3.972  0.0817  0.3043  0.1876
   93MOL   C24831712   6.849   7.631   4.104 -0.5375 -0.9934  0.1248
   93MOL   H24931713   6.697   7.596   4.251 -0.0404  1.6000  0.2788
   93MOL   H25031714   6.600   7.406   4.301 -0.0606  2.8235 -1.7927
   93MOL   H25131715   6.524   7.170   4.234  0.7875  0.4809  1.0789
   93MOL   H25231716   6.456   7.047   4.028 -0.3562 -3.4576 -1.7663
   93MOL   H25331717   6.652   7.244   3.831 -3.5507 -1.5708  0.2670
   93MOL   H25431718   6.721   7.474   3.895  0.0812  0.9987  0.7946
   93MOL   H25531719   6.919   7.570   4.162 -2.1184 -2.4504  0.5473
   93MOL   H25631720   6.865   7.615   3.998 -1.0745 -0.0912 -0.0898
   93MOL   C25731721   6.891   7.774   4.134 -0.1345 -0.2348  0.2180
   93MOL   C25831722   7.033   7.771   4.193 -0.1309 -0.1468  0.2075
   93MOL   C25931723   7.136   7.720   4.107  0.4424 -0.8055 -0.1487
   93MOL   C26031724   7.267   7.734   4.150  0.2822  0.2506 -0.9065
   93MOL   C26131725   7.298   7.791   4.274 -0.1748  0.0374 -0.2068
   93MOL   O26231726   7.426   7.787   4.318  0.7803  0.2326  0.0503
   93MOL   C26331727   7.195   7.825   4.365  0.7246  0.2289  0.4409
   93MOL   C26431728   7.060   7.816   4.321  0.1183  0.1201 -0.4509
   93MOL   C26531729   6.885   7.871   4.016 -0.0385 -1.2823  0.4676
   93MOL   H26631730   6.813   7.810   4.200 -0.3586 -0.0325 -0.1581
   93MOL   H26731731   7.125   7.679   4.008 -0.7274  0.4242 -0.5448
   93MOL   H26831732   7.352   7.712   4.088  1.9749 -0.3850  1.5833
   93MOL   H26931733   7.439   7.768   4.410  0.6104  0.7687  0.1910
   93MOL   H27031734   7.220   7.850   4.467 -0.7285 -0.4484  0.9753
   93MOL   H27131735   6.976   7.847   4.382  0.4081 -1.5008  0.7957
   93MOL   H27231736   6.780   7.867   3.988 -0.2288 -1.2129  1.1625
   93MOL   H27331737   6.944   7.841   3.929  0.4697 -0.6461  0.5883
   93MOL   C27431738   6.901   8.019   4.063  0.1896 -0.2468 -0.3025
   93MOL   C27531739   6.807   0.076   3.993 -0.7730  0.1647  0.4240
   93MOL   C27631740   6.712   0.158   4.060 -0.2921 -0.4591 -0.7214
   93MOL   C27731741   6.638   0.255   3.989  1.0671  0.3852 -0.2413
   93MOL   C27831742   6.651   0.270   3.849  0.0840  0.0092 -0.1545
   93MOL   O27931743   6.580   0.362   3.779 -0.0414 -0.2460 -0.1231
   93MOL   C28031744   6.739   0.185   3.778 -0.8894  0.4229  0.3326
   93MOL   C28131745   6.823   0.097   3.856 -0.9328 -0.8057 -0.1794
   93MOL   C28231746   7.056   0.025   4.076 -0.4558  0.3392 -0.0255
   93MOL   H28331747   6.864   8.017   4.165 -0.7508 -0.7474 -0.6472
   93MOL   H28431748   6.705   0.147   4.167 -0.2940 -0.1263 -0.6861
   93MOL   H28531749   6.568   0.312   4.047  1.8737 -2.0499  3.3074
   93MOL   H28631750   6.576   0.357   3.685  2.4912 -0.9034 -0.2481
   93MOL   H28731751   6.744   0.178   3.670 -1.0795  0.8868  0.2952
   93MOL   H28831752   6.899   0.043   3.800 -1.9976 -1.1766 -1.3036
   93MOL   H28931753   7.113   7.994   4.137 -0.0611  0.0014 -0.7761
   93MOL   H29031754   7.106   0.028   3.979 -2.7211  0.6230 -1.2345
   93MOL   C29131755   7.084   0.162   4.147 -0.3357  0.1927  0.2030
   93MOL   C29231756   7.233   0.185   4.145 -0.4496  0.0252 -0.8913
   93MOL   C29331757   7.311   0.099   4.228  0.1090  0.0944 -0.0625
   93MOL   C29431758   7.453   0.106   4.218 -0.0837 -0.1120  0.6754
   93MOL   C29531759   7.509   0.203   4.135  0.5552  0.5941 -0.1461
   93MOL   O29631760   7.644   0.212   4.126  0.1649  0.6700 -0.2266
   93MOL   C29731761   7.432   0.298   4.070  0.5907 -0.2727  0.2449
   93MOL   C29831762   7.289   0.288   4.067 -0.5576 -0.4843  0.0273
   93MOL   C29931763   7.016   0.181   4.284 -0.9310  0.6752  0.8693
   93MOL   H30031764   7.036   0.245   4.093 -0.2151  0.5887  0.7008
   93MOL   H30131765   7.251   0.032   4.288 -1.3220  0.4879 -1.0319
   93MOL   H30231766   7.517   0.036   4.271 -0.6612 -1.4422 -0.3569
   93MOL   H30331767   7.664   0.262   4.048  2.4445 -1.8372 -1.3611
   93MOL   H30431768   7.489   0.369   4.013  2.3418 -0.7973  1.3086
   93MOL   H30531769   7.227   0.350   4.004 -0.5642 -0.6735 -0.1535
   93MOL   H30631770   7.033   0.084   4.332  1.8242 -0.5005 -2.2753
   93MOL   H30731771   6.909   0.170   4.267 -0.9310  1.8289  0.0522
   93MOL   C30831772   7.074   0.298   4.374  0.8956 -0.3026  0.1204
   93MOL   C30931773   7.018   0.287   4.516 -0.0305  0.0599 -0.3019
   93MOL   C31031774   6.876   0.288   4.532  0.1347  1.0410  0.1018
   93MOL   C31131775   6.823   0.267   4.661  0.4294 -0.4023 -0.4892
   93MOL   C31231776   6.907   0.270   4.780  0.6014 -0.0759 -1.1384
   93MOL   O31331777   6.854   0.237   4.905  0.0762  0.3286 -0.1210
   93MOL   C31431778   7.044   0.283   4.761  0.2203 -0.2938  0.0164
   93MOL   C31531779   7.101   0.281   4.629 -1.2489 -0.6937 -0.4854
   93MOL   C31631780   7.040   0.438   4.328 -0.5488 -0.0959 -0.1596
   93MOL   H31731781   7.181   0.284   4.389  0.8724  0.8276  1.4764
   93MOL   H31831782   6.808   0.306   4.451  0.5532  1.8797 -0.0660
   93MOL   H31931783   6.720   0.249   4.686  0.4778 -1.7933 -1.2610
   93MOL   H32031784   6.893   0.173   4.962  1.8485  0.8119 -0.7548
   93MOL   H32131785   7.110   0.277   4.846  4.0987  1.3612 -2.7599
   93MOL   H32231786   7.207   0.283   4.613 -1.0360  0.9330  1.0247
   93MOL   H32331787   6.931   0.448   4.327 -0.5742 -0.2106  0.6984
   93MOL   H32431788   7.073   0.443   4.225  2.2726  0.1024  0.7083
   93MOL   C32531789   7.117   0.549   4.403 -0.0753 -0.3962  0.1978
   93MOL   C32631790   7.061   0.690   4.375 -0.7280  0.7842 -0.4267
   93MOL   C32731791   7.087   0.748   4.249 -0.6358  0.2652  0.6126
   93MOL   C32831792   7.040   0.876   4.218 -0.2072 -0.1890  0.0541
   93MOL   C32931793   6.962   0.941   4.318 -0.1589 -0.2288 -0.1106
   93MOL   O33031794   6.925   1.074   4.302 -0.4444 -0.5569 -0.5871
   93MOL   C33131795   6.929   0.883   4.437  0.5798  0.3854 -0.3401
   93MOL   C33231796   6.982   0.756   4.468 -0.3950 -0.3364  0.3287
   93MOL   C33331797   7.276   0.556   4.382  0.2233  0.5298  0.2685
   93MOL   H33431798   7.091   0.529   4.507  0.8892 -0.3567  0.4515
   93MOL   H33531799   7.157   0.697   4.183  1.4577  2.5683  0.9854
   93MOL   H33631800   7.063   0.920   4.122  2.5279  0.5235  1.0055
   93MOL   H33731801   6.877   1.106   4.377 -0.3627 -0.4776 -0.5685
   93MOL   H33831802   6.863   0.935   4.505  0.9220  0.5375 -0.1213
   93MOL   H33931803   6.954   0.698   4.554  0.1234 -1.7760 -0.4683
   93MOL   H34031804   7.310   0.565   4.279 -1.1229  2.7619  0.0009
   93MOL   H34131805   7.319   0.458   4.403  0.2404  0.2050 -1.1971
   93MOL   H34231806   7.330   0.632   4.437 -2.9377  3.1609 -0.0995
   94MOL     C131807   3.182   1.452   0.926 -0.7244  0.0240 -0.4289
   94MOL     C231808   3.107   1.583   0.948 -0.0617 -0.3366 -0.8616
   94MOL     C331809   3.108   1.679   0.843  0.0887 -0.0706 -0.0506
   94MOL     C431810   3.021   1.795   0.851 -0.4483 -0.6534  0.0746
   94MOL     C531811   2.950   1.822   0.974  0.1771 -0.5502  0.0539
   94MOL     O631812   2.870   1.932   0.992 -0.2861  0.5315 -0.5873
   94MOL     C731813   2.963   1.732   1.087 -0.8580 -0.3237 -0.1874
   94MOL     C831814   3.043   1.611   1.070  0.6520 -0.0879 -0.2052
   94MOL     C931815   3.090   1.323   0.909  0.5427  0.0809 -0.0254
   94MOL    H1031816   3.254   1.461   0.844 -0.1436  1.7167  0.2503
   94MOL    H1131817   3.163   1.649   0.756  0.0353  0.3320 -0.2253
   94MOL    H1231818   3.012   1.858   0.764 -2.8658 -1.3888 -0.2479
   94MOL    H1331819   2.907   2.007   0.947  1.8728 -0.1609 -0.0104
   94MOL    H1431820   2.916   1.762   1.179  1.3906 -3.0547  1.9347
   94MOL    H1531821   3.055   1.540   1.151  2.7865  0.5482  0.0697
   94MOL    H1631822   3.048   1.298   1.006  1.4101  0.6955  0.5162
   94MOL    H1731823   3.153   1.241   0.876  0.2455  0.4636 -1.6185
   94MOL    H1831824   3.244   1.429   1.013 -0.8515  1.5975  0.0919
   94MOL    C1931825   2.988   1.343   0.795  0.1952  0.0817 -0.1110
   94MOL    C2031826   2.852   1.403   0.831 -0.3257 -0.0804  0.6452
   94MOL    C2131827   2.806   1.525   0.780 -0.2710  0.8366 -0.4155
   94MOL    C2231828   2.679   1.572   0.814  0.9799 -0.5908  0.1563
   94MOL    C2331829   2.592   1.487   0.884 -0.3043 -0.5770 -0.7296
   94MOL    O2431830   2.471   1.532   0.913  0.0317 -0.5810  0.5372
   94MOL    C2531831   2.631   1.363   0.939  0.9082 -0.0882 -0.2309
   94MOL    C2631832   2.759   1.328   0.911 -0.6666  0.0978  0.2485
   94MOL    C2731833   2.988   1.217   0.696  0.3713  0.4248 -0.4901
   94MOL    H2831834   3.030   1.421   0.732  0.3755 -2.1427 -2.8031
   94MOL    H2931835   2.865   1.575   0.705  1.3497  0.7711  0.7610
   94MOL    H3031836   2.642   1.667   0.779  2.0470 -0.8732 -1.8059
   94MOL    H3131837   2.466   1.626   0.902 -0.1165 -0.4479  1.6651
   94MOL    H3231838   2.577   1.295   1.003 -3.2946  2.9371 -0.3473
   94MOL    H3331839   2.802   1.241   0.958  1.0558  0.6983 -0.1810
   94MOL    H3431840   2.964   1.133   0.762  1.6934  0.2413 -0.2185
   94MOL    H3531841   3.082   1.200   0.643 -0.2216 -2.0124 -0.8347
   94MOL    C3631842   2.887   1.221   0.585 -0.3552  0.9639 -0.1994
   94MOL    C3731843   2.866   1.082   0.527 -0.3889  0.0348 -0.2211
   94MOL    C3831844   2.967   1.023   0.452 -0.0592 -0.5345  0.1550
   94MOL    C3931845   2.961   0.894   0.397  0.2997  0.1849 -0.2075
   94MOL    C4031846   2.834   0.842   0.389  0.1111  0.5804  0.5519
   94MOL    O4131847   2.816   0.731   0.310  0.0211 -0.6168 -0.1708
   94MOL    C4231848   2.727   0.900   0.460 -0.1541 -0.1960  0.1238
   94MOL    C4331849   2.740   1.017   0.532  0.9424 -0.5476 -0.0972
   94MOL    C4431850   2.931   1.313   0.471 -0.1725 -0.6339  0.5873
   94MOL    H4531851   2.791   1.254   0.622 -1.2203  0.0388 -1.5633
   94MOL    H4631852   3.062   1.074   0.447 -0.4229  0.0571 -0.8396
   94MOL    H4731853   3.048   0.844   0.356  0.2430  1.3118 -1.7337
   94MOL    H4831854   2.726   0.704   0.293 -0.7384  0.8349  1.4185
   94MOL    H4931855   2.633   0.848   0.449 -0.0705 -0.5008  0.8457
   94MOL    H5031856   2.651   1.063   0.572  0.3658 -3.1341  1.6609
   94MOL    H5131857   2.968   1.404   0.518  1.9146 -1.7659  1.1970
   94MOL    H5231858   3.016   1.266   0.422 -1.6883 -1.1485 -1.6220
   94MOL    C5331859   2.825   1.341   0.365 -0.0697 -0.4069  0.2407
   94MOL    C5431860   2.718   1.442   0.411  0.3452 -0.0439 -0.6404
   94MOL    C5531861   2.580   1.399   0.420  0.3360 -0.1463 -0.6070
   94MOL    C5631862   2.482   1.491   0.465 -0.1508  0.2638 -0.1311
   94MOL    C5731863   2.524   1.614   0.516  0.4207 -0.0204  0.1930
   94MOL    O5831864   2.437   1.691   0.575 -0.4089  0.3140 -0.2080
   94MOL    C5931865   2.659   1.654   0.504 -0.1631  0.1030  0.1538
   94MOL    C6031866   2.756   1.570   0.446 -0.3605  0.2263  0.2109
   94MOL    C6131867   2.898   1.389   0.238 -0.6955  0.5710  0.1646
   94MOL    H6231868   2.781   1.243   0.345  1.5621 -1.4425  1.6227
   94MOL    H6331869   2.550   1.302   0.384 -0.9187 -0.8913  2.2773
   94MOL    H6431870   2.378   1.462   0.467  0.4003 -1.8195 -0.1788
   94MOL    H6531871   2.350   1.671   0.545 -0.9859  1.5974  0.5422
   94MOL    H6631872   2.692   1.746   0.550 -0.2876  0.0048  0.4415
   94MOL    H6731873   2.851   1.621   0.443 -0.9979  1.4740  0.6739
   94MOL    H6831874   2.985   1.326   0.220 -0.9948  0.1651  0.1412
   94MOL    H6931875   2.935   1.492   0.244  1.1927 -0.1042  0.3595
   94MOL    C7031876   2.802   1.391   0.114 -0.4223 -0.8871 -0.3648
   94MOL    C7131877   2.748   1.256   0.078 -0.1889  0.1026  0.0976
   94MOL    C7231878   2.840   1.153   0.049  0.1415  0.2040  0.1202
   94MOL    C7331879   2.799   1.024   0.019  0.1729  0.1823  0.1027
   94MOL    C7431880   2.661   0.993   0.004 -0.2365 -1.1374 -0.2852
   94MOL    O7531881   2.632   0.877   7.989 -0.2711 -0.4208  0.2894
   94MOL    C7631882   2.564   1.094   0.027 -1.5463  0.4632 -0.9425
   94MOL    C7731883   2.612   1.227   0.062  0.1684 -0.5902  0.4657
   94MOL    C7831884   2.873   1.451   8.033 -0.0361 -0.1227  0.7714
   94MOL    H7931885   2.719   1.459   0.133  0.2176  0.0827 -1.0506
   94MOL    H8031886   2.946   1.172   0.056  0.0472  0.8210 -0.1775
   94MOL    H8131887   2.879   0.952   0.011  2.1973  2.2549  0.9290
   94MOL    H8231888   2.709   0.838   7.951 -0.0574  2.0709 -1.9941
   94MOL    H8331889   2.457   1.083   0.021 -1.4373 -1.0889 -0.0984
   94MOL    H8431890   2.542   1.303   0.092 -1.1358 -1.9316  0.9053
   94MOL    H8531891   2.945   1.379   7.995 -0.9840  0.0068 -1.3615
   94MOL    H8631892   2.940   1.532   0.020  1.3828  0.0925 -3.4605
   94MOL    C8731893   2.781   1.492   7.919  1.1456 -0.3376 -0.4435
   94MOL    C8831894   2.844   1.463   7.784 -0.1432  0.2728 -0.8414
   94MOL    C8931895   2.977   1.497   7.761  0.2528 -0.4369 -0.5473
   94MOL    C9031896   3.043   1.464   7.644 -0.3807  0.8047  0.1067
   94MOL    C9131897   2.969   1.401   7.546  0.1807 -1.1271 -0.1600
   94MOL    O9231898   3.024   1.375   7.426  0.0694  0.5504  0.3429
   94MOL    C9331899   2.834   1.371   7.560 -0.1399 -0.3415  0.5082
   94MOL    C9431900   2.767   1.405   7.684  0.1775 -0.4075 -0.1214
   94MOL    C9531901   2.741   1.639   7.918  0.2572  0.5435  0.7487
   94MOL    H9631902   2.689   1.435   7.918 -0.0309  1.5038 -1.4645
   94MOL    H9731903   3.039   1.540   7.839 -0.7224 -1.9449  1.1187
   94MOL    H9831904   3.148   1.489   7.640  0.2283 -1.6758 -0.3751
   94MOL    H9931905   3.113   1.404   7.435 -0.1682  1.1594  0.7842
   94MOL   H10031906   2.775   1.315   7.488 -2.5751 -0.2701  2.3688
   94MOL   H10131907   2.662   1.381   7.695  0.0987  0.4458  1.1588
   94MOL   H10231908   2.836   1.691   7.907  0.7309 -0.4267  0.1747
   94MOL   H10331909   2.681   1.651   7.828  0.3066 -0.9747  0.4933
   94MOL   C10431910   2.670   1.698   0.007 -0.2081  0.4244  0.5214
   94MOL   C10531911   2.530   1.639   0.015 -0.5892 -0.8636 -0.2612
   94MOL   C10631912   2.479   1.588   0.139 -0.2473  0.3458 -0.2279
   94MOL   C10731913   2.340   1.563   0.164 -0.8845 -0.3049 -0.2467
   94MOL   C10831914   2.244   1.596   0.062 -0.2938 -0.6487 -0.5804
   94MOL   O10931915   2.111   1.605   0.098  0.7691  0.5703  0.6208
   94MOL   C11031916   2.291   1.648   7.980 -0.8642  0.8118  0.9563
   94MOL   C11131917   2.430   1.660   7.952 -0.6004  0.2762 -0.0551
   94MOL   C11231918   2.679   1.851   8.032  0.8075  0.1509  0.4208
   94MOL   H11331919   2.721   1.680   0.101 -0.9064 -1.4965  0.5534
   94MOL   H11431920   2.549   1.563   0.217 -0.7022  0.9187  0.3708
   94MOL   H11531921   2.307   1.512   0.253  0.8500  0.3526  0.8078
   94MOL   H11631922   2.057   1.604   0.021 -0.0382 -2.2864  1.1433
   94MOL   H11731923   2.217   1.667   7.903 -0.5642  0.6811  0.6325
   94MOL   H11831924   2.463   1.716   7.865  1.8818 -2.1011 -0.7265
   94MOL   H11931925   2.620   1.884   7.946 -2.0638 -0.9354  1.9036
   94MOL   H12031926   2.781   1.868   7.996  0.2878  0.0987 -1.1263
   94MOL   C12131927   2.655   1.934   0.127 -0.0298 -0.2056  0.7195
   94MOL   C12231928   2.723   2.067   0.107 -0.4782 -0.4831 -0.6417
   94MOL   C12331929   2.716   2.146   8.026 -0.1427 -0.6281  0.7775
   94MOL   C12431930   2.781   2.269   8.020 -0.2476 -0.1364  0.7423
   94MOL   C12531931   2.856   2.322   0.092  0.2657 -1.0838 -0.3266
   94MOL   O12631932   2.923   2.440   0.080 -0.1737  0.4262  0.1555
   94MOL   C12731933   2.861   2.246   0.208 -0.2589 -0.4671 -0.0716
   94MOL   C12831934   2.795   2.122   0.219 -0.0617  0.7037 -0.4754
   94MOL   C12931935   2.503   1.943   0.154  0.6345  0.2751  0.5452
   94MOL   H13031936   2.703   1.899   0.219  0.0851  3.5739  2.1802
   94MOL   H13131937   2.665   2.117   7.936 -0.4216 -2.1185  1.3939
   94MOL   H13231938   2.786   2.333   7.933  0.0858 -0.4283  0.5478
   94MOL   H13331939   2.985   2.458   0.149  1.2444 -0.6583 -0.8265
   94MOL   H13431940   2.916   2.279   0.295  0.5919  0.2534 -0.8774
   94MOL   H13531941   2.806   2.069   0.313 -1.5538 -0.3747 -0.9036
   94MOL   H13631942   2.470   1.841   0.170 -2.2180  0.8169 -1.4023
   94MOL   H13731943   2.452   1.966   0.060 -0.1637  0.0266  0.9181
   94MOL   C13831944   2.448   2.035   0.273  0.2799  0.4802 -0.0743
   94MOL   C13931945   2.315   1.974   0.332  0.5346  0.2595  0.2265
   94MOL   C14031946   2.206   1.948   0.241 -0.3917  0.3040  0.3635
   94MOL   C14131947   2.088   1.890   0.289  0.1191  0.8765  0.1571
   94MOL   C14231948   2.077   1.853   0.422  0.0224  0.2604 -1.0890
   94MOL   O14331949   1.959   1.809   0.475  0.5849  0.1738  0.4505
   94MOL   C14431950   2.187   1.869   0.512 -0.2297 -0.8044  0.2217
   94MOL   C14531951   2.303   1.929   0.468 -0.1382 -0.0428 -0.1102
   94MOL   C14631952   2.435   2.183   0.238 -0.0742  0.2165  0.0594
   94MOL   H14731953   2.520   2.024   0.354 -1.2690 -0.3514  1.2076
   94MOL   H14831954   2.213   1.957   0.133  2.5546  0.9300  0.5829
   94MOL   H14931955   2.010   1.871   0.217 -0.3450 -0.6407  1.0521
   94MOL   H15031956   1.908   1.764   0.409  0.3449  0.0932  0.6872
   94MOL   H15131957   2.173   1.829   0.612 -2.6632  0.0447  0.2548
   94MOL   H15231958   2.382   1.943   0.540  0.2877 -2.9608  0.0479
   94MOL   H15331959   2.348   2.190   0.172 -0.1196  0.3630  0.1340
   94MOL   H15431960   2.526   2.222   0.193  1.2359 -1.2293  1.4204
   94MOL   C15531961   2.398   2.288   0.353  0.5920  0.1336 -0.1510
   94MOL   C15631962   2.512   2.297   0.454 -0.4555  0.2099 -0.9083
   94MOL   C15731963   2.517   2.211   0.571  0.0069  0.6476 -0.4140
   94MOL   C15831964   2.602   2.235   0.678  0.1741  0.2232  0.0133
   94MOL   C15931965   2.712   2.327   0.654 -0.1841 -0.4240 -0.1033
   94MOL   O16031966   2.798   2.362   0.751  0.4093 -0.5332  0.3384
   94MOL   C16131967   2.720   2.399   0.532 -0.0698 -0.0963  0.0203
   94MOL   C16231968   2.615   2.387   0.435 -0.7087  0.6435  0.7542
   94MOL   C16331969   2.262   2.283   0.424  0.0927  0.2265 -0.3659
   94MOL   H16431970   2.392   2.392   0.323  2.3848 -0.0826 -1.3469
   94MOL   H16531971   2.436   2.140   0.579 -0.4855  0.9722 -2.1704
   94MOL   H16631972   2.593   2.190   0.776  1.3485 -0.0673 -0.0127
   94MOL   H16731973   2.759   2.424   0.811  1.5661  1.8669 -1.3092
   94MOL   H16831974   2.803   2.466   0.513 -1.0144  0.9471 -0.4173
   94MOL   H16931975   2.611   2.458   0.354 -0.7825  0.8324  0.9240
   94MOL   H17031976   2.273   2.311   0.529 -1.0510 -2.5107  0.5389
   94MOL   H17131977   2.218   2.183   0.419  0.3804  0.1766 -2.3816
   94MOL   C17231978   2.152   2.383   0.369  0.4626  1.0466 -0.0640
   94MOL   C17331979   2.036   2.397   0.471 -0.2562 -0.5801  0.0175
   94MOL   C17431980   2.009   2.520   0.546  0.2984 -0.4959  0.1767
   94MOL   C17531981   1.898   2.533   0.626  0.4034  0.5474 -0.6510
   94MOL   C17631982   1.807   2.427   0.638  0.7611  1.1776 -0.0920
   94MOL   O17731983   1.702   2.436   0.726 -0.6954  0.4357 -0.0973
   94MOL   C17831984   1.826   2.311   0.559 -0.4223 -0.5860  0.3481
   94MOL   C17931985   1.937   2.293   0.475  0.3238 -0.6145 -0.4659
   94MOL   C18031986   2.093   2.333   0.228 -0.1078 -0.6002  0.0584
   94MOL   H18131987   2.191   2.484   0.361  0.3805  1.2554  1.7690
   94MOL   H18231988   2.074   2.606   0.533 -0.4465  0.1528  0.7340
   94MOL   H18331989   1.891   2.623   0.686 -2.2043  0.4598 -0.7514
   94MOL   H18431990   1.622   2.387   0.715 -1.6484  1.7195  0.9753
   94MOL   H18531991   1.753   2.235   0.582 -0.8392  0.4386  2.4746
   94MOL   H18631992   1.957   2.196   0.432  0.9766 -0.6880 -0.0031
   94MOL   H18731993   1.992   2.373   0.229  0.5784  1.2133 -0.8964
   94MOL   H18831994   2.078   2.225   0.225 -0.5859 -0.4979 -1.4153
   94MOL   C18931995   2.159   2.389   0.098  0.1880  0.5757  0.7563
   94MOL   C19031996   2.137   2.294   8.018  0.8205  0.1807 -0.2893
   94MOL   C19131997   2.018   2.217   8.008 -0.8993  0.1233 -0.1994
   94MOL   C19231998   2.005   2.111   7.920 -0.7281  0.4927  0.2576
   94MOL   C19331999   2.112   2.081   7.831  0.0707  0.5281 -0.3302
   94MOL   O19432000   2.100   1.980   7.742  0.0078  0.3220 -0.8851
   94MOL   C19532001   2.229   2.160   7.839  0.3439 -0.3980 -0.0124
   94MOL   C19632002   2.246   2.258   7.936 -0.0437 -0.9896  0.6531
   94MOL   C19732003   2.108   2.532   0.062 -0.7574  0.3891 -0.5593
   94MOL   H19832004   2.267   2.386   0.114  0.4540  0.7010 -0.8724
   94MOL   H19932005   1.942   2.231   0.046  0.3046  1.1685  0.8412
   94MOL   H20032006   1.910   2.060   7.927  0.5846 -2.1046 -0.3535
   94MOL   H20132007   2.037   1.910   7.749 -0.2633  0.5146 -1.3581
   94MOL   H20232008   2.314   2.132   7.779  0.1400 -0.1438 -0.4235
   94MOL   H20332009   2.340   2.310   7.944 -0.7483  0.7312 -1.7610
   94MOL   H20432010   2.103   2.588   0.155 -3.0868  0.4229 -0.6753
   94MOL   H20532011   2.009   2.532   0.015 -1.0242 -4.6231 -0.2321
   94MOL   C20632012   2.202   2.617   8.017  0.2292 -0.2108  0.3864
   94MOL   C20732013   2.346   2.626   0.031 -0.1483  0.0191 -0.0243
   94MOL   C20832014   2.452   2.560   7.996  0.1721  0.3543  0.8972
   94MOL   C20932015   2.582   2.563   0.011 -0.7137  0.3071 -1.0059
   94MOL   C21032016   2.612   2.636   0.126  0.1622  0.5557 -0.6904
   94MOL   O21132017   2.742   2.654   0.153 -0.3394  0.2577  0.3962
   94MOL   C21232018   2.509   2.708   0.189 -0.2772 -0.4321 -0.1963
   94MOL   C21332019   2.374   2.697   0.148 -0.0976 -0.3446 -0.0421
   94MOL   C21432020   2.128   2.752   7.985 -0.2314 -0.6436 -0.1189
   94MOL   H21532021   2.211   2.568   7.919 -0.9648  0.3452 -0.0132
   94MOL   H21632022   2.429   2.514   7.901  3.0406  0.6272  0.0067
   94MOL   H21732023   2.658   2.515   7.988 -0.7194 -0.4635 -0.4175
   94MOL   H21832024   2.803   2.593   0.114  1.5332  1.2274  1.7386
   94MOL   H21932025   2.536   2.768   0.274 -0.7426 -0.2065 -0.2067
   94MOL   H22032026   2.290   2.744   0.196  0.2189 -0.4847  0.6517
   94MOL   H22132027   2.078   2.780   0.040 -0.1715  0.2537 -0.3575
   94MOL   H22232028   2.051   2.727   7.913  0.2734 -2.2547 -0.1190
   94MOL   C22332029   2.209   2.879   7.949  0.0818  0.1954  0.0973
   94MOL   C22432030   2.129   3.010   7.940 -0.6718  0.2797  0.3199
   94MOL   C22532031   2.015   3.011   7.860 -0.5180  0.0464 -0.4277
   94MOL   C22632032   1.941   3.126   7.842  0.1924  0.4437 -0.2825
   94MOL   C22732033   1.975   3.237   7.922 -0.0899 -0.0285  0.3604
   94MOL   O22832034   1.908   3.357   7.919 -0.4711  0.8116 -0.0753
   94MOL   C22932035   2.088   3.241   8.007  0.8000  0.6734  0.1371
   94MOL   C23032036   2.164   3.123   8.011  0.0180 -0.5051 -0.2591
   94MOL   C23132037   2.294   2.846   7.825 -0.7784  0.6547 -0.1754
   94MOL   H23232038   2.276   2.891   8.034  1.4206  0.2216 -0.9544
   94MOL   H23332039   1.990   2.916   7.816 -0.1706 -0.4918  0.5211
   94MOL   H23432040   1.848   3.124   7.787  0.3543 -1.0466 -0.5223
   94MOL   H23532041   1.840   3.357   7.853  0.5816  0.1866 -1.1641
   94MOL   H23632042   2.112   3.334   0.018  0.1180  1.5560 -1.1579
   94MOL   H23732043   2.247   3.126   0.042 -1.4211  0.7518  1.4867
   94MOL   H23832044   2.364   2.763   7.839  0.2184  1.2131 -1.7124
   94MOL   H23932045   2.222   2.826   7.745  1.2629 -1.8425 -1.4829
   94MOL   C24032046   2.396   2.954   7.780 -0.1240  0.0268  0.1894
   94MOL   C24132047   2.498   2.989   7.892 -0.4195  0.5050  0.1612
   94MOL   C24232048   2.607   2.896   7.928 -0.3721  0.1467  0.5041
   94MOL   C24332049   2.708   2.942   8.012 -0.1875  0.5064  0.3549
   94MOL   C24432050   2.702   3.070   0.027  0.3554 -0.2040 -0.9371
   94MOL   O24532051   2.797   3.109   0.110 -0.2501 -0.0213 -0.1079
   94MOL   C24632052   2.596   3.157   0.003 -0.4155 -0.1204 -0.1661
   94MOL   C24732053   2.496   3.120   7.950 -0.5351 -0.2835  0.1516
   94MOL   C24832054   2.458   2.909   7.651  0.1000 -0.1269  0.1369
   94MOL   H24932055   2.330   3.037   7.756 -1.6649 -1.4632 -0.8793
   94MOL   H25032056   2.609   2.796   7.888  0.4154  0.0940  0.6802
   94MOL   H25132057   2.795   2.886   0.006  0.4278  1.3950  0.2451
   94MOL   H25232058   2.777   3.184   0.163  2.0668  0.1807  0.5520
   94MOL   H25332059   2.580   3.240   0.071 -0.2580 -0.9665  0.9203
   94MOL   H25432060   2.415   3.183   7.919 -0.4674 -0.7096 -0.8926
   94MOL   H25532061   2.517   2.820   7.674 -1.2372 -1.0206  0.2059
   94MOL   H25632062   2.379   2.863   7.590  2.3475 -2.2276 -1.2864
   94MOL   C25732063   2.540   3.022   7.586 -0.0395 -0.5261  0.0409
   94MOL   C25832064   2.664   2.968   7.513  0.0922  0.2090 -0.0923
   94MOL   C25932065   2.666   2.834   7.463 -0.1812 -0.0887 -0.2635
   94MOL   C26032066   2.774   2.793   7.381  0.1450 -0.5644  0.1937
   94MOL   C26132067   2.878   2.880   7.342  0.0989 -0.6199 -0.3157
   94MOL   O26232068   2.984   2.840   7.270  0.1216  0.2023  0.8076
   94MOL   C26332069   2.877   3.009   7.397  0.0988  0.5779  0.1614
   94MOL   C26432070   2.766   3.055   7.474 -0.0133 -0.0168 -0.1608
   94MOL   C26532071   2.448   3.107   7.490  0.1870 -0.4416  0.2710
   94MOL   H26632072   2.581   3.085   7.665 -0.4179  0.5476 -0.6020
   94MOL   H26732073   2.589   2.764   7.489 -1.5561  0.0856 -3.6476
   94MOL   H26832074   2.788   2.692   7.346  0.2169 -0.9999  1.4736
   94MOL   H26932075   3.047   2.908   7.253 -0.8118  1.4354  2.1399
   94MOL   H27032076   2.959   3.077   7.375 -1.5414  2.3355 -0.6577
   94MOL   H27132077   2.756   3.161   7.492 -0.4757  0.1890 -1.5705
   94MOL   H27232078   2.342   3.079   7.492  1.1242 -4.3155 -0.5502
   94MOL   H27332079   2.491   3.083   7.392  1.9049 -0.8116  1.1044
   94MOL   C27432080   2.475   3.262   7.499  0.2037 -0.1612 -0.3302
   94MOL   C27532081   2.376   3.325   7.598 -0.2224  0.6156  0.0795
   94MOL   C27632082   2.235   3.330   7.572 -0.4237 -0.4563  0.1735
   94MOL   C27732083   2.150   3.397   7.659  0.1372  0.1580 -0.4320
   94MOL   C27832084   2.203   3.449   7.780 -0.6240 -0.2314 -0.0167
   94MOL   O27932085   2.114   3.519   7.872 -0.3858 -0.0296 -0.4230
   94MOL   C28032086   2.340   3.441   7.808 -0.3895 -0.1357  0.1204
   94MOL   C28132087   2.426   3.376   7.722 -0.5976  0.2378  0.0711
   94MOL   C28232088   2.468   3.335   7.353  0.2021  0.1566 -0.3059
   94MOL   H28332089   2.576   3.285   7.534  0.7142 -3.6128  0.6541
   94MOL   H28432090   2.201   3.278   7.484 -3.7411 -0.1996  1.2336
   94MOL   H28532091   2.045   3.408   7.634 -0.9569 -2.7133  2.4690
   94MOL   H28632092   2.024   3.489   7.875 -0.2220 -0.4015  1.3644
   94MOL   H28732093   2.386   3.491   7.892  2.3149 -0.4830 -1.1163
   94MOL   H28832094   2.531   3.372   7.747 -0.2115 -3.3635 -1.7346
   94MOL   H28932095   2.474   3.264   7.271  1.4371 -2.4145  1.9372
   94MOL   H29032096   2.366   3.376   7.348 -0.1676 -0.6985  0.2085
   94MOL   C29132097   2.579   3.444   7.329  0.2444 -0.2819  0.1061
   94MOL   C29232098   2.710   3.393   7.283  0.4620  0.0414  0.3303
   94MOL   C29332099   2.738   3.358   7.148 -0.4961 -0.1190  0.2412
   94MOL   C29432100   2.859   3.319   7.096  0.2464 -0.6663 -0.1272
   94MOL   C29532101   2.968   3.318   7.185  0.2822 -0.1071 -0.8202
   94MOL   O29632102   3.090   3.306   7.137  0.2280  0.6757  0.1113
   94MOL   C29732103   2.951   3.353   7.323  0.1556  0.1079 -0.7019
   94MOL   C29832104   2.822   3.387   7.370 -0.1115 -0.2766  0.1037
   94MOL   C29932105   2.591   3.564   7.426  0.2438 -0.4544  0.1698
   94MOL   H30032106   2.553   3.500   7.240 -0.2063 -1.5594 -0.5801
   94MOL   H30132107   2.658   3.352   7.076 -0.9415 -0.0632  0.7259
   94MOL   H30232108   2.870   3.296   6.991  0.7092  1.0518 -0.4811
   94MOL   H30332109   3.133   3.391   7.139  0.7761  0.3739  1.2811
   94MOL   H30432110   3.036   3.336   7.388 -1.4547 -3.3000  0.6445
   94MOL   H30532111   2.810   3.401   7.477 -0.3287 -0.9398  0.1745
   94MOL   H30632112   2.692   3.605   7.431  0.2992 -0.5192 -0.3724
   94MOL   H30732113   2.580   3.506   7.518  0.0164 -1.7123 -0.6304
   94MOL   C30832114   2.491   3.684   7.416 -0.3028 -0.1732 -1.0608
   94MOL   C30932115   2.529   3.793   7.512 -0.2637  0.2224 -0.1874
   94MOL   C31032116   2.498   3.782   7.648  0.0217 -0.4134 -0.0582
   94MOL   C31132117   2.529   3.885   7.739 -0.1106  0.0940  0.2340
   94MOL   C31232118   2.596   3.999   7.688 -0.5672 -0.6998 -0.1467
   94MOL   O31332119   2.644   4.095   7.770  0.3256 -0.6867 -0.2994
   94MOL   C31432120   2.631   4.016   7.555  0.6507  0.8683  0.0248
   94MOL   C31532121   2.584   3.915   7.462 -0.7088 -0.2503  0.2093
   94MOL   C31632122   2.335   3.650   7.427  0.0515  0.1177  0.3937
   94MOL   H31732123   2.498   3.727   7.316  0.2790  1.4627 -0.3334
   94MOL   H31832124   2.458   3.688   7.682  0.2569 -0.4073  0.2369
   94MOL   H31932125   2.513   3.881   7.845 -1.5844  1.0736  0.0631
   94MOL   H32032126   2.707   4.156   7.734 -0.5633 -0.3717 -1.3785
   94MOL   H32132127   2.692   4.100   7.527  1.2240  0.3516 -0.2979
   94MOL   H32232128   2.620   3.910   7.360 -1.1942 -1.9985  0.0983
   94MOL   H32332129   2.318   3.600   7.523  2.6978 -3.1126 -0.7274
   94MOL   H32432130   2.305   3.582   7.348  0.0815 -0.5302  0.9320
   94MOL   C32532131   2.249   3.780   7.417  0.4467 -0.1209 -0.2629
   94MOL   C32632132   2.104   3.760   7.469 -0.2114 -0.3846  0.3662
   94MOL   C32732133   2.024   3.662   7.401 -0.1380 -0.1891 -0.1204
   94MOL   C32832134   1.888   3.649   7.431  1.2523 -0.2492  0.4282
   94MOL   C32932135   1.830   3.729   7.533 -0.2144  0.4561  0.4837
   94MOL   O33032136   1.705   3.724   7.569 -0.2535  0.6571  0.1798
   94MOL   C33132137   1.909   3.820   7.606 -0.3466 -0.0184 -0.2205
   94MOL   C33232138   2.044   3.837   7.574 -0.4122  0.6252  0.3351
   94MOL   C33332139   2.249   3.840   7.279  0.0649 -0.1071 -0.1892
   94MOL   H33432140   2.281   3.854   7.491 -2.2885 -0.4402  1.3053
   94MOL   H33532141   2.068   3.607   7.318  0.6322  2.3353 -1.4318
   94MOL   H33632142   1.824   3.579   7.380 -0.4990  1.9630 -0.4784
   94MOL   H33732143   1.682   3.771   7.647 -0.7355 -0.2931  0.6186
   94MOL   H33832144   1.869   3.892   7.676 -0.5318 -2.1781  1.9255
   94MOL   H33932145   2.100   3.907   7.633  1.2778 -0.9994  0.6973
   94MOL   H34032146   2.198   3.770   7.212 -0.3347  1.1054 -1.1669
   94MOL   H34132147   2.352   3.853   7.248  0.0551  2.0164  0.5999
   94MOL   H34232148   2.185   3.928   7.282 -1.1580 -0.9686 -0.5664
   95MOL     C132149   5.326   6.864   0.805 -0.5113 -0.2440  0.6215
   95MOL     C232150   5.360   6.885   0.661  0.1839 -0.6342 -0.0740
   95MOL     C332151   5.309   6.795   0.568 -0.4846  0.0874 -0.9401
   95MOL     C432152   5.346   6.809   0.432  0.4066  0.3542  0.2332
   95MOL     C532153   5.450   6.898   0.391  0.1469  0.3282  0.7980
   95MOL     O632154   5.495   6.910   0.265 -0.3569 -0.0585 -0.6628
   95MOL     C732155   5.514   6.976   0.496  0.4504  0.2288  0.1002
   95MOL     C832156   5.465   6.975   0.630 -0.3742  0.0756 -0.3089
   95MOL     C932157   5.208   6.944   0.859 -0.2117  0.7322 -1.9557
   95MOL    H1032158   5.294   6.760   0.805 -1.3199 -0.0009  0.6120
   95MOL    H1132159   5.241   6.716   0.594  0.0670 -0.5113 -1.3088
   95MOL    H1232160   5.316   6.727   0.368  1.5112  0.8527 -0.9559
   95MOL    H1332161   5.420   6.946   0.220  0.1051 -0.1191 -1.4936
   95MOL    H1432162   5.592   7.042   0.458 -0.1950  0.2420 -1.2301
   95MOL    H1532163   5.502   7.047   0.702 -0.4999 -1.1167  0.9512
   95MOL    H1632164   5.131   6.950   0.782  0.1492 -0.1561 -2.3906
   95MOL    H1732165   5.231   7.049   0.880 -0.2529  0.1135  1.4452
   95MOL    H1832166   5.417   6.869   0.865  0.1443  0.3604 -0.4214
   95MOL    C1932167   5.142   6.868   0.984 -0.1275  0.1869 -0.4548
   95MOL    C2032168   5.094   6.722   0.951 -0.1335 -0.0265  0.6268
   95MOL    C2132169   5.093   6.627   1.057  0.0209 -0.3713 -0.1145
   95MOL    C2232170   5.046   6.497   1.034  0.1610 -0.0441 -0.2563
   95MOL    C2332171   5.003   6.458   0.900  0.2050  0.6083  0.2557
   95MOL    O2432172   4.979   6.327   0.875 -0.1937 -0.1389 -0.2449
   95MOL    C2532173   5.011   6.549   0.796  0.1328  0.0278 -0.4177
   95MOL    C2632174   5.056   6.684   0.821 -0.0527  0.3044 -0.7010
   95MOL    C2732175   5.032   6.946   1.059  0.0378  0.2121 -0.4203
   95MOL    H2832176   5.228   6.857   1.050 -1.0399  0.9764  0.8908
   95MOL    H2932177   5.137   6.660   1.150 -0.0646 -1.3944  0.2957
   95MOL    H3032178   5.051   6.417   1.106  0.6934 -1.1259 -1.4713
   95MOL    H3132179   4.986   6.303   0.784 -0.8438  1.6884 -0.7798
   95MOL    H3232180   4.985   6.509   0.699  0.1222  1.4546 -1.0266
   95MOL    H3332181   5.057   6.755   0.740  0.8120 -0.1612 -1.0998
   95MOL    H3432182   4.967   6.884   1.121 -1.3436  2.8659  0.8627
   95MOL    H3532183   4.954   6.978   0.990  0.3994 -2.2246 -2.0085
   95MOL    C3632184   5.079   7.059   1.154 -0.4752 -0.3869  0.0285
   95MOL    C3732185   4.990   7.093   1.269 -0.1523 -0.1401 -0.6821
   95MOL    C3832186   5.041   7.127   1.396 -0.5163 -0.0861  0.0274
   95MOL    C3932187   4.956   7.173   1.498 -0.3511  0.1882 -0.6946
   95MOL    C4032188   4.820   7.180   1.488  0.4256  1.1378  0.4451
   95MOL    O4132189   4.733   7.230   1.585 -0.3076 -0.1888 -0.1569
   95MOL    C4232190   4.765   7.134   1.368  0.4025  0.8123  0.2100
   95MOL    C4332191   4.851   7.102   1.259 -0.1905  0.0103 -0.5774
   95MOL    C4432192   5.109   7.198   1.088 -0.6123 -0.0270 -0.3802
   95MOL    H4532193   5.177   7.029   1.192  0.4191 -0.0738 -1.9533
   95MOL    H4632194   5.146   7.124   1.422 -0.9255 -1.1667  1.5889
   95MOL    H4732195   5.006   7.218   1.582  0.9339  0.5606 -1.6409
   95MOL    H4832196   4.768   7.226   1.673  1.2221 -2.2164 -0.8242
   95MOL    H4932197   4.659   7.126   1.349  0.5277  1.1093 -0.6454
   95MOL    H5032198   4.812   7.085   1.160  1.5903 -0.3206 -1.2451
   95MOL    H5132199   5.134   7.188   0.982  0.0200  0.0171 -0.2411
   95MOL    H5232200   5.016   7.254   1.085 -0.3552  0.4140 -0.1569
   95MOL    C5332201   5.223   7.280   1.147 -0.0758  0.2830 -0.6061
   95MOL    C5432202   5.349   7.283   1.057 -0.1284  0.3006 -0.3128
   95MOL    C5532203   5.355   7.359   0.941 -0.5319 -0.0895  0.1087
   95MOL    C5632204   5.475   7.361   0.864 -0.2534  0.1667 -0.7172
   95MOL    C5732205   5.593   7.301   0.917  0.2430  0.0715  0.2573
   95MOL    O5832206   5.712   7.300   0.847  0.1177  1.0378 -0.6562
   95MOL    C5932207   5.586   7.236   1.043 -0.0509  0.0837  0.3313
   95MOL    C6032208   5.466   7.222   1.114  0.0723  0.2179 -0.2121
   95MOL    C6132209   5.185   7.424   1.182 -0.2508 -0.5598 -0.5942
   95MOL    H6232210   5.242   7.222   1.238 -0.5815 -0.7699 -1.1655
   95MOL    H6332211   5.268   7.400   0.891 -1.1656 -2.6429 -0.9121
   95MOL    H6432212   5.465   7.410   0.768 -0.6285 -1.4609 -1.5227
   95MOL    H6532213   5.740   7.212   0.865 -0.0128  0.7721 -1.7591
   95MOL    H6632214   5.667   7.196   1.102  0.4744  2.4075  1.2089
   95MOL    H6732215   5.464   7.163   1.205  0.9155 -0.1190 -0.4068
   95MOL    H6832216   5.096   7.424   1.245 -1.4489 -0.7565 -2.2474
   95MOL    H6932217   5.148   7.476   1.094  2.6108  4.1889  0.7683
   95MOL    C7032218   5.292   7.516   1.254  0.1307  0.1814  0.0469
   95MOL    C7132219   5.344   7.463   1.392 -0.7994  0.1146  0.2354
   95MOL    C7232220   5.244   7.437   1.488 -0.0897 -0.0354  0.2858
   95MOL    C7332221   5.283   7.380   1.608  0.6768  0.2669 -0.4175
   95MOL    C7432222   5.415   7.348   1.643 -0.3457  0.0698 -0.0679
   95MOL    O7532223   5.462   7.285   1.751  0.2777  0.6032  0.4374
   95MOL    C7632224   5.514   7.387   1.549 -0.3883  1.2719 -0.1986
   95MOL    C7732225   5.476   7.432   1.419 -0.3649  0.4022 -0.0229
   95MOL    C7832226   5.248   7.669   1.275 -0.5351 -0.1662 -0.4315
   95MOL    H7932227   5.368   7.515   1.175 -0.2963 -0.6535 -0.3624
   95MOL    H8032228   5.140   7.461   1.471  0.2172  0.9382 -0.2441
   95MOL    H8132229   5.200   7.352   1.672 -1.2177 -3.4105 -4.2450
   95MOL    H8232230   5.498   7.343   1.816  1.3790 -1.5939  1.8201
   95MOL    H8332231   5.620   7.390   1.570  0.0043  0.8815 -2.0852
   95MOL    H8432232   5.550   7.468   1.349  0.4584  1.9229  1.5811
   95MOL    H8532233   5.285   7.695   1.374 -1.8515  0.5677 -0.1080
   95MOL    H8632234   5.140   7.682   1.285 -0.5037 -0.9614  1.1369
   95MOL    C8732235   5.300   7.769   1.168 -0.3258 -0.5013 -0.0125
   95MOL    C8832236   5.209   7.762   1.044 -0.1855  0.2124 -0.7206
   95MOL    C8932237   5.231   7.683   0.934 -0.1392 -0.4508 -0.1806
   95MOL    C9032238   5.155   7.688   0.817  0.0266  0.1681 -0.0952
   95MOL    C9132239   5.044   7.773   0.816  0.4963  0.3989  0.1762
   95MOL    O9232240   4.970   7.797   0.703 -0.4619  0.1522  0.2279
   95MOL    C9332241   5.016   7.848   0.928 -0.6143  0.0160  0.3222
   95MOL    C9432242   5.098   7.841   1.040 -0.0247 -0.2244 -0.0419
   95MOL    C9532243   5.449   7.758   1.135  0.6545 -0.5988  0.7546
   95MOL    H9632244   5.291   7.868   1.213 -1.0125 -0.8958  0.7184
   95MOL    H9732245   5.323   7.626   0.933 -0.0960 -0.3637 -1.5153
   95MOL    H9832246   5.192   7.635   0.731 -0.3054  2.5821 -1.7852
   95MOL    H9932247   4.898   7.857   0.713 -0.3278  0.9317 -2.8341
   95MOL   H10032248   4.933   7.917   0.927 -0.6534  0.1804  4.6317
   95MOL   H10132249   5.076   7.906   1.123 -2.8244  0.0642 -0.9247
   95MOL   H10232250   5.483   7.780   1.237  0.9951  0.5812  0.3985
   95MOL   H10332251   5.490   7.667   1.092  0.2211  0.5871 -2.2833
   95MOL   C10432252   5.513   7.870   1.050  0.2781 -0.2172 -0.5765
   95MOL   C10532253   5.501   7.838   0.904  1.1097 -0.1412  0.3285
   95MOL   C10632254   5.430   7.926   0.812 -0.2123 -0.1105 -0.0943
   95MOL   C10732255   5.419   7.900   0.672  0.1740  0.7922 -0.3560
   95MOL   C10832256   5.481   7.783   0.623  0.0342 -0.5465  0.0100
   95MOL   O10932257   5.459   7.740   0.494 -0.4347  0.1244 -0.1564
   95MOL   C11032258   5.542   7.694   0.712  0.1811 -0.2572 -0.1504
   95MOL   C11132259   5.553   7.718   0.849 -0.0717 -0.3604 -0.1515
   95MOL   C11232260   5.653   7.912   1.088  0.0494  0.1970  0.5225
   95MOL   H11332261   5.447   7.955   1.063 -0.0348 -0.6766  0.9849
   95MOL   H11432262   5.375   8.012   0.848  1.0594  1.2942 -1.4585
   95MOL   H11532263   5.362   7.958   0.601  1.7123  2.4040 -0.2949
   95MOL   H11632264   5.484   7.654   0.465  3.8786  1.3769 -0.5942
   95MOL   H11732265   5.577   7.599   0.674 -0.7998 -0.2930 -0.9971
   95MOL   H11832266   5.595   7.637   0.907 -1.4810 -2.0447 -1.4259
   95MOL   H11932267   5.723   7.828   1.090  1.2914  1.1132 -2.5510
   95MOL   H12032268   5.638   7.926   1.195  1.3311 -0.3115  0.7885
   95MOL   C12132269   5.721   8.031   1.021  0.4410  0.4257 -0.0137
   95MOL   C12232270   5.627   0.113   1.005  0.2240  0.3259 -0.1249
   95MOL   C12332271   5.565   0.169   1.120 -0.1870  0.1045  1.0100
   95MOL   C12432272   5.469   0.265   1.108 -0.3545  1.1970 -0.6743
   95MOL   C12532273   5.430   0.307   0.977 -0.9539 -0.1050 -0.5647
   95MOL   O12632274   5.346   0.416   0.973  0.7160  0.1546  0.0493
   95MOL   C12732275   5.482   0.249   0.863  1.2808  0.4591  0.5468
   95MOL   C12832276   5.586   0.153   0.876 -0.1950 -0.0795 -0.2490
   95MOL   C12932277   5.847   0.038   1.097  0.9531  0.7394 -0.0111
   95MOL   H13032278   5.755   7.999   0.922 -0.0502 -2.3624  0.6899
   95MOL   H13132279   5.601   0.151   1.220  1.0179 -2.7697  0.1071
   95MOL   H13232280   5.434   0.308   1.201  1.5387 -1.8589  1.5288
   95MOL   H13332281   5.293   0.433   1.049  0.2521  1.7309 -0.6156
   95MOL   H13432282   5.449   0.292   0.770 -1.7409  1.0842  1.8598
   95MOL   H13532283   5.629   0.113   0.786 -0.1544 -3.6248  1.2747
   95MOL   H13632284   5.913   7.990   1.109 -0.8178 -0.4448  1.6548
   95MOL   H13732285   5.818   0.056   1.201  2.0890  1.3710  0.1973
   95MOL   C13832286   5.931   0.157   1.042  0.4125 -0.4416  0.3367
   95MOL   C13932287   6.080   0.144   1.073  0.1705 -0.0646 -0.4986
   95MOL   C14032288   6.127   0.152   1.209  0.5840 -0.5828  0.4767
   95MOL   C14132289   6.265   0.143   1.240  0.3501 -0.4073  0.3531
   95MOL   C14232290   6.354   0.114   1.132 -0.3797  0.0242  0.5718
   95MOL   O14332291   6.486   0.090   1.154 -0.3640  0.0259 -0.2010
   95MOL   C14432292   6.312   0.083   1.005  0.1975 -0.3975  1.2423
   95MOL   C14532293   6.175   0.105   0.973 -0.0487 -0.6224  0.7243
   95MOL   C14632294   5.881   0.297   1.089 -0.3573 -0.2745  0.2211
   95MOL   H14732295   5.916   0.159   0.934 -3.3643 -0.3042  0.8198
   95MOL   H14832296   6.051   0.171   1.283  1.3086  0.5347  0.9419
   95MOL   H14932297   6.294   0.148   1.344 -0.4463  1.3632  0.5008
   95MOL   H15032298   6.531   0.054   1.079 -2.1676  1.1083 -1.8487
   95MOL   H15132299   6.374   0.043   0.926 -0.3394  2.6197 -0.8005
   95MOL   H15232300   6.135   0.084   0.874 -1.3033  0.1753  1.0640
   95MOL   H15332301   5.862   0.286   1.196  1.2753 -3.4694  0.2146
   95MOL   H15432302   5.786   0.327   1.043 -0.2412 -0.3785 -0.0838
   95MOL   C15532303   5.979   0.423   1.089 -0.3502  0.4516  0.0303
   95MOL   C15632304   5.924   0.535   1.168 -0.3663 -0.2114  0.2228
   95MOL   C15732305   5.995   0.571   1.281 -0.2844  0.1919  0.1047
   95MOL   C15832306   5.954   0.674   1.364  0.5068 -0.5448  0.1976
   95MOL   C15932307   5.828   0.734   1.336 -0.2777  0.1319 -0.2464
   95MOL   O16032308   5.789   0.840   1.415  0.2257 -0.0747  0.1102
   95MOL   C16132309   5.751   0.697   1.220  0.2076 -0.2424 -0.2971
   95MOL   C16232310   5.797   0.592   1.135  0.0935 -0.4061  0.4533
   95MOL   C16332311   6.034   0.466   0.951 -0.2859  0.2191 -0.2193
   95MOL   H16432312   6.070   0.399   1.144  1.0997  2.4994 -1.3693
   95MOL   H16532313   6.084   0.518   1.312 -1.0061 -1.1795 -0.1632
   95MOL   H16632314   6.025   0.709   1.437 -0.3442  0.9228  0.3380
   95MOL   H16732315   5.694   0.848   1.416  0.1087 -1.3343  0.2206
   95MOL   H16832316   5.660   0.753   1.203 -0.3745 -1.0418  0.1532
   95MOL   H16932317   5.741   0.555   1.050  2.8112  0.8785 -1.9798
   95MOL   H17032318   5.954   0.523   0.905  1.4771  1.2366 -2.1131
   95MOL   H17132319   6.041   0.373   0.895  0.3738  1.2759 -1.9197
   95MOL   C17232320   6.165   0.548   0.946 -0.0965  0.1427 -0.4105
   95MOL   C17332321   6.172   0.618   0.808  0.5503 -0.1490 -0.2076
   95MOL   C17432322   6.221   0.553   0.691 -0.5063 -1.1902 -0.6205
   95MOL   C17532323   6.240   0.631   0.572 -0.9804  0.3121 -0.5966
   95MOL   C17632324   6.190   0.761   0.561  0.0690  0.5884  0.9645
   95MOL   O17732325   6.204   0.837   0.449 -0.0674 -0.0291 -0.1000
   95MOL   C17832326   6.140   0.821   0.676  0.1544 -0.0367  0.1930
   95MOL   C17932327   6.130   0.754   0.795  0.1508 -0.1465  0.1075
   95MOL   C18032328   6.282   0.454   0.975 -0.2388  0.1279 -0.5066
   95MOL   H18132329   6.159   0.621   1.027 -2.6145 -1.9374  1.3603
   95MOL   H18232330   6.257   0.451   0.692  1.9810 -0.3719  2.8433
   95MOL   H18332331   6.282   0.585   0.483 -0.3261  0.8149 -0.5522
   95MOL   H18432332   6.276   0.799   0.401  1.1989  1.1257  0.8307
   95MOL   H18532333   6.117   0.927   0.672  0.9331  0.1621  0.7957
   95MOL   H18632334   6.104   0.809   0.883 -4.0199 -0.7207 -0.6774
   95MOL   H18732335   6.280   0.356   0.927  1.1164 -0.7332  1.0946
   95MOL   H18832336   6.282   0.433   1.082  0.6412 -1.4957 -0.8004
   95MOL   C18932337   6.426   0.515   0.946  0.7059  0.1408  0.4894
   95MOL   C19032338   6.434   0.645   1.026 -0.3593  0.1030  0.9089
   95MOL   C19132339   6.460   0.767   0.961  0.0355 -0.0248 -0.6143
   95MOL   C19232340   6.473   0.886   1.036  0.7988 -0.0782 -0.1208
   95MOL   C19332341   6.456   0.895   1.177  0.1158 -0.7732  0.5579
   95MOL   O19432342   6.479   1.007   1.248 -0.5260 -0.1896  0.0602
   95MOL   C19532343   6.432   0.768   1.239 -0.1324  0.7084 -0.0863
   95MOL   C19632344   6.423   0.644   1.170 -0.1628 -0.0014 -0.4634
   95MOL   C19732345   6.540   0.411   0.982  0.3219 -0.0548  0.6716
   95MOL   H19832346   6.440   0.552   0.845  0.7716 -1.0991  0.0298
   95MOL   H19932347   6.476   0.770   0.854  1.2028 -1.3709 -0.4826
   95MOL   H20032348   6.506   0.975   0.984  4.4193 -0.1210  1.9206
   95MOL   H20132349   6.518   1.082   1.206  1.5034 -0.9125  0.5671
   95MOL   H20232350   6.430   0.762   1.347 -0.5037  0.2211 -0.1220
   95MOL   H20332351   6.384   0.557   1.223  1.4198  0.1642  1.0262
   95MOL   H20432352   6.507   0.352   1.068  1.3173 -2.7684 -0.7635
   95MOL   H20532353   6.621   0.479   1.008  1.5937 -0.4147 -2.1269
   95MOL   C20632354   6.591   0.335   0.859  0.1994  0.0175  0.3746
   95MOL   C20732355   6.662   0.204   0.897 -0.1494 -0.3127 -0.1418
   95MOL   C20832356   6.775   0.207   0.977 -0.4429 -0.7539  0.0618
   95MOL   C20932357   6.854   0.090   1.001  0.5480  0.3988 -0.0634
   95MOL   C21032358   6.815   8.005   0.945 -0.5880  0.3833  0.0337
   95MOL   O21132359   6.887   7.890   0.970  0.0838  0.4489  0.0747
   95MOL   C21232360   6.700   7.998   0.867 -0.4210  0.0238  0.4615
   95MOL   C21332361   6.623   0.077   0.847 -0.6826  0.0099 -0.6397
   95MOL   C21432362   6.685   0.416   0.770 -0.1346 -0.5037  0.3952
   95MOL   H21532363   6.504   0.308   0.800  1.3170  1.9947 -2.3256
   95MOL   H21632364   6.788   0.301   1.029  1.0013 -0.4406 -0.8425
   95MOL   H21732365   6.941   0.104   1.063 -0.3343  1.2747  1.0149
   95MOL   H21832366   6.824   7.826   0.940 -1.1481  1.1831  1.0131
   95MOL   H21932367   6.671   7.902   0.827  1.3539 -0.6644  0.7567
   95MOL   H22032368   6.546   0.068   0.772 -2.1384  2.4356  0.5016
   95MOL   H22132369   6.785   0.384   0.798 -1.6117 -1.9984  4.3364
   95MOL   H22232370   6.682   0.523   0.792 -0.9142 -0.4165 -0.1153
   95MOL   C22332371   6.672   0.403   0.611 -0.1837  0.0397 -0.4193
   95MOL   C22432372   6.650   0.256   0.568 -0.0014 -0.4873 -0.6084
   95MOL   C22532373   6.527   0.224   0.514 -0.3709  0.2195  0.0791
   95MOL   C22632374   6.502   0.092   0.466 -0.2289 -0.1772 -0.6525
   95MOL   C22732375   6.599   8.028   0.484 -0.2361 -0.1948 -0.4355
   95MOL   O22832376   6.561   7.898   0.450 -0.4318  0.3150  0.1982
   95MOL   C22932377   6.725   0.028   0.540  0.1969 -0.3447  0.0235
   95MOL   C23032378   6.753   0.155   0.578  0.3101  0.7120 -0.0907
   95MOL   C23132379   6.794   0.471   0.548 -0.6280 -0.0874 -0.0093
   95MOL   H23232380   6.580   0.452   0.580  0.3151  0.6079 -1.0071
   95MOL   H23332381   6.444   0.293   0.502 -1.4598 -1.0088  0.4333
   95MOL   H23432382   6.406   0.070   0.423 -0.7435  0.5872  0.0903
   95MOL   H23532383   6.642   7.851   0.438 -0.9363 -0.8600  1.3124
   95MOL   H23632384   6.801   7.990   0.558 -0.6329 -0.6474  2.3985
   95MOL   H23732385   6.855   0.179   0.603  0.9364  1.2588 -2.9567
   95MOL   H23832386   6.812   0.569   0.593  1.1326  0.8983 -2.7533
   95MOL   H23932387   6.874   0.404   0.579 -0.6710 -0.2047 -0.1518
   95MOL   C24032388   6.789   0.491   0.392  1.0059 -0.5326 -0.2177
   95MOL   C24132389   6.677   0.582   0.348  0.6252  0.1786 -0.1871
   95MOL   C24232390   6.658   0.711   0.397  0.6019 -0.1295 -0.1916
   95MOL   C24332391   6.545   0.781   0.352  0.0281  0.0384 -0.4921
   95MOL   C24432392   6.465   0.742   0.242 -0.0649 -0.0538 -0.0583
   95MOL   O24532393   6.369   0.831   0.193 -0.4476  0.5366 -0.6463
   95MOL   C24632394   6.492   0.618   0.188  1.0407 -1.2100 -0.2250
   95MOL   C24732395   6.582   0.535   0.248  0.1937  0.1350  0.4050
   95MOL   C24832396   6.932   0.541   0.361  0.2513 -0.9167  0.2904
   95MOL   H24932397   6.772   0.394   0.346  0.3858 -0.4105 -0.2560
   95MOL   H25032398   6.718   0.756   0.475 -0.5066 -0.8603  1.1132
   95MOL   H25132399   6.528   0.878   0.395  1.0990 -0.9478  2.2784
   95MOL   H25232400   6.296   0.786   0.155  0.1852  1.0353 -2.5062
   95MOL   H25332401   6.438   0.579   0.103 -1.1883 -0.2673  0.7369
   95MOL   H25432402   6.594   0.439   0.200 -1.1435 -0.0550  0.4204
   95MOL   H25532403   6.948   0.623   0.430 -0.6656  0.8798 -1.5710
   95MOL   H25632404   7.003   0.460   0.378  1.2871  0.0408  0.5041
   95MOL   C25732405   6.953   0.604   0.221 -0.5548 -0.4834 -0.5615
   95MOL   C25832406   7.064   0.711   0.229  0.2685  0.3574  0.2122
   95MOL   C25932407   7.203   0.680   0.229  0.3322 -0.7435 -0.3329
   95MOL   C26032408   7.293   0.781   0.269  0.3366  0.1003  0.0212
   95MOL   C26132409   7.248   0.909   0.307 -0.0563 -0.4708 -0.9267
   95MOL   O26232410   7.345   0.998   0.354  0.2282 -0.5518  0.3151
   95MOL   C26332411   7.114   0.939   0.304  0.3708  0.0902 -0.1689
   95MOL   C26432412   7.020   0.843   0.265  0.1105 -0.1677  0.5053
   95MOL   C26532413   6.974   0.493   0.117 -0.2432 -0.2276 -0.2657
   95MOL   H26632414   6.859   0.655   0.208 -0.5529  0.2460  1.9697
   95MOL   H26732415   7.234   0.583   0.193  0.6480 -0.5627 -0.5444
   95MOL   H26832416   7.399   0.764   0.273  0.3791  0.7908  2.0949
   95MOL   H26932417   7.299   1.074   0.388 -0.6933  0.3926 -2.8229
   95MOL   H27032418   7.074   1.032   0.342 -0.3037 -0.2818  0.0326
   95MOL   H27132419   6.914   0.864   0.265  0.3683  1.1870  0.7606
   95MOL   H27232420   6.892   0.422   0.126 -1.0641  0.3557 -2.5758
   95MOL   H27332421   7.070   0.443   0.130 -0.8038 -1.8020 -1.9945
   95MOL   C27432422   6.976   0.545   8.005 -0.4122  0.0815 -0.1164
   95MOL   C27532423   6.830   0.563   7.950  0.6025  0.0314  0.5434
   95MOL   C27632424   6.766   0.689   7.927 -0.1338 -0.1825 -0.2617
   95MOL   C27732425   6.639   0.693   7.863 -0.5614  0.2750  0.1686
   95MOL   C27832426   6.569   0.572   7.838 -0.2264  0.0859 -0.3448
   95MOL   O27932427   6.456   0.582   7.767  0.5453  0.4666  0.0156
   95MOL   C28032428   6.625   0.454   7.879  0.0873 -0.4547 -0.6555
   95MOL   C28132429   6.754   0.446   7.925 -0.2775 -0.1127  0.5136
   95MOL   C28232430   7.076   0.473   7.904  0.7831  0.5696 -0.0400
   95MOL   H28332431   7.015   0.646   8.016  0.4122 -0.1448 -0.8578
   95MOL   H28432432   6.816   0.783   7.938 -1.5963  0.7929 -1.6611
   95MOL   H28532433   6.607   0.789   7.825 -1.4946 -0.4042 -0.8004
   95MOL   H28632434   6.432   0.670   7.741 -2.2008 -0.4246 -0.6807
   95MOL   H28732435   6.575   0.359   7.862 -0.6819 -0.5322  1.7541
   95MOL   H28832436   6.799   0.351   7.952  0.3627  0.1090  0.2485
   95MOL   H28932437   7.160   0.430   7.960 -0.1310  0.3443  1.1775
   95MOL   H29032438   7.029   0.378   7.876 -0.2624  0.5347  1.8121
   95MOL   C29132439   7.127   0.556   7.782 -0.6216  0.2253 -0.5074
   95MOL   C29232440   7.243   0.654   7.808  0.2942 -0.4172  0.4153
   95MOL   C29332441   7.223   0.771   7.881 -0.4484 -0.5368 -1.1249
   95MOL   C29432442   7.337   0.843   7.926  0.5569  0.9627  0.2652
   95MOL   C29532443   7.463   0.818   7.876  0.0878  0.8382  0.4647
   95MOL   O29632444   7.571   0.878   7.925 -0.4071  0.7915  0.0021
   95MOL   C29732445   7.480   0.717   7.784 -0.3592  0.2172 -0.4973
   95MOL   C29832446   7.372   0.634   7.750  0.6252  0.1766 -0.0912
   95MOL   C29932447   7.015   0.615   7.691  0.3445 -0.0267 -0.2049
   95MOL   H30032448   7.164   0.479   7.714 -1.5012 -0.1583 -0.5536
   95MOL   H30132449   7.123   0.799   7.911  0.0957 -1.0277  1.2915
   95MOL   H30232450   7.319   0.919   8.001  2.6818  0.5638  1.2197
   95MOL   H30332451   7.558   0.937   7.998  1.0762  0.3541  0.6456
   95MOL   H30432452   7.581   0.692   7.756 -0.3074  0.3995 -0.4772
   95MOL   H30532453   7.399   0.551   7.686 -0.9935 -1.2574  1.0355
   95MOL   H30632454   6.966   0.698   7.742 -0.9278  0.0539 -1.5180
   95MOL   H30732455   6.943   0.533   7.692  0.3378 -0.0220 -0.3684
   95MOL   C30832456   7.049   0.646   7.540  0.0071 -0.1336  0.0333
   95MOL   C30932457   7.103   0.788   7.520 -0.1338 -0.1176 -0.3785
   95MOL   C31032458   7.052   0.897   7.595 -0.1444 -0.3382 -0.2391
   95MOL   C31132459   7.113   1.023   7.589 -0.2020 -0.2877  0.0289
   95MOL   C31232460   7.220   1.044   7.505  0.4581 -0.6089  0.5495
   95MOL   O31332461   7.260   1.173   7.503 -0.1285 -0.0548  0.0341
   95MOL   C31432462   7.270   0.936   7.424  0.3349  0.0537  0.5164
   95MOL   C31532463   7.216   0.809   7.435 -0.4776 -0.0341 -0.6075
   95MOL   C31632464   6.909   0.623   7.465 -0.4342  0.0331 -0.4481
   95MOL   H31732465   7.121   0.568   7.516  0.6789  0.1263  1.1746
   95MOL   H31832466   6.957   0.890   7.646 -1.5185 -0.6720 -2.7945
   95MOL   H31932467   7.082   1.106   7.651 -0.3433  0.8256 -1.5105
   95MOL   H32032468   7.351   1.171   7.480 -0.2426 -1.6058 -0.2874
   95MOL   H32132469   7.338   0.952   7.341 -1.6293 -0.1018 -1.1611
   95MOL   H32232470   7.246   0.725   7.375  0.2332 -1.3773  1.5652
   95MOL   H32332471   6.840   0.699   7.501  0.2200 -0.0271  0.9578
   95MOL   H32432472   6.864   0.530   7.499 -0.7023  0.2965 -0.0844
   95MOL   C32532473   6.916   0.631   7.310 -0.0011  0.0088 -0.0197
   95MOL   C32632474   6.771   0.611   7.255 -0.5714 -0.3442 -0.5351
   95MOL   C32732475   6.691   0.502   7.290 -0.4974 -0.2671 -0.2700
   95MOL   C32832476   6.548   0.494   7.263 -0.5851  0.2861 -0.8150
   95MOL   C32932477   6.492   0.600   7.200  0.4835 -0.5648 -0.9882
   95MOL   O33032478   6.357   0.594   7.173  0.0644 -0.5368 -0.1620
   95MOL   C33132479   6.573   0.702   7.141  0.3799  0.5964  0.1365
   95MOL   C33232480   6.710   0.710   7.172 -0.3281 -0.1501  0.7713
   95MOL   C33332481   7.013   0.522   7.254 -0.1808 -0.8424  0.2807
   95MOL   H33432482   6.954   0.726   7.273 -0.5809  2.1342  4.4854
   95MOL   H33532483   6.733   0.430   7.359 -2.7474  1.3625  2.9703
   95MOL   H33632484   6.503   0.410   7.314  2.6222 -1.7947 -1.2446
   95MOL   H33732485   6.332   0.503   7.184  1.1668 -0.6330  1.7814
   95MOL   H33832486   6.526   0.780   7.082 -0.2819 -0.5808 -0.9203
   95MOL   H33932487   6.756   0.804   7.145 -0.4001 -0.3523 -0.0759
   95MOL   H34032488   7.116   0.517   7.290 -0.5775 -3.7438  1.1379
   95MOL   H34132489   7.022   0.530   7.146 -0.8561  0.5689  0.3183
   95MOL   H34232490   6.970   0.423   7.266 -1.2174 -0.5292 -0.6861
   96MOL     C132491   7.309   4.318   3.432  0.2240  0.5303  0.0060
   96MOL     C232492   7.213   4.341   3.547  0.1276 -0.4150 -0.4727
   96MOL     C332493   7.241   4.270   3.663 -0.0848  0.4613 -0.2021
   96MOL     C432494   7.146   4.283   3.767 -0.1351  0.4680 -0.7532
   96MOL     C532495   7.032   4.367   3.752  0.5525  0.2702  0.2694
   96MOL     O632496   6.960   4.393   3.864 -0.0666  0.5743 -0.0574
   96MOL     C732497   7.002   4.432   3.630 -0.7018  0.7183 -0.4335
   96MOL     C832498   7.096   4.416   3.532  0.2763 -0.5866  0.2373
   96MOL     C932499   7.383   4.443   3.383  0.0613  0.6387 -0.2632
   96MOL    H1032500   7.375   4.232   3.447 -0.1209  0.2275 -0.2345
   96MOL    H1132501   7.324   4.202   3.675 -1.1732 -0.7107  0.9407
   96MOL    H1232502   7.180   4.239   3.860  2.0797 -0.4502 -1.9597
   96MOL    H1332503   6.899   4.462   3.845  0.8286  1.9065  1.8008
   96MOL    H1432504   6.918   4.495   3.608 -0.7103  0.1130 -2.2190
   96MOL    H1532505   7.076   4.468   3.439 -2.0495  1.7313  1.9914
   96MOL    H1632506   7.455   4.465   3.463  1.7451  1.4745 -1.9808
   96MOL    H1732507   7.320   4.529   3.361  0.4461  0.5158 -1.9119
   96MOL    H1832508   7.247   4.281   3.351 -2.4021  1.1176  1.7046
   96MOL    C1932509   7.454   4.417   3.248 -0.2953  0.4889 -0.5102
   96MOL    C2032510   7.570   4.319   3.268  0.6420  0.1234 -0.7841
   96MOL    C2132511   7.557   4.198   3.195  0.4360  0.2651  0.2680
   96MOL    C2232512   7.658   4.097   3.209  0.1822  0.5000  0.3231
   96MOL    C2332513   7.765   4.118   3.289 -0.0226  0.0358 -0.4096
   96MOL    O2432514   7.857   4.023   3.306 -0.0205 -0.1640 -0.6619
   96MOL    C2532515   7.778   4.237   3.367  0.4266  0.1171  0.2306
   96MOL    C2632516   7.680   4.336   3.361  0.2146  0.3248 -0.8520
   96MOL    C2732517   7.511   4.544   3.180 -0.3345  0.0922 -0.0858
   96MOL    H2832518   7.375   4.375   3.185 -1.2112  0.0935  0.8725
   96MOL    H2932519   7.472   4.180   3.131  0.2293  1.0493  0.3165
   96MOL    H3032520   7.645   4.004   3.157  2.6779 -0.6471  1.6669
   96MOL    H3132521   7.865   3.969   3.228 -2.0249 -0.9577 -0.3603
   96MOL    H3232522   7.863   4.257   3.430  1.5420  0.1176 -1.2457
   96MOL    H3332523   7.694   4.428   3.415  1.6785  0.4789 -1.4879
   96MOL    H3432524   7.593   4.584   3.240 -0.3059  0.2130 -0.2046
   96MOL    H3532525   7.440   4.627   3.182  2.1639  2.3428 -1.1685
   96MOL    C3632526   7.554   4.515   3.035 -0.1501 -0.1926  0.4439
   96MOL    C3732527   7.684   4.591   2.999  0.2431  0.8299 -0.3446
   96MOL    C3832528   7.802   4.508   2.981  0.0136  0.2617  0.3479
   96MOL    C3932529   7.925   4.564   2.937  0.1494  0.2217 -0.1106
   96MOL    C4032530   7.929   4.701   2.913  0.2714 -0.3611 -0.0474
   96MOL    O4132531   0.014   4.748   2.868  0.1853  0.8396  0.8316
   96MOL    C4232532   7.812   4.783   2.926 -0.5204  0.4112 -0.2728
   96MOL    C4332533   7.686   4.730   2.967  0.0541 -0.0879  0.3964
   96MOL    C4432534   7.438   4.532   2.941  0.4134  0.4032  0.1922
   96MOL    H4532535   7.576   4.409   3.023 -1.4607 -0.4321  0.1190
   96MOL    H4632536   7.797   4.402   3.001  0.7477  0.0742 -0.4381
   96MOL    H4732537   8.011   4.503   2.916 -0.4815 -0.7866  0.1848
   96MOL    H4832538   0.039   4.828   2.913  0.4356  0.4822  1.3293
   96MOL    H4932539   7.807   4.891   2.922  0.5032  0.4928  0.5472
   96MOL    H5032540   7.602   4.796   2.982  0.4322  0.4958 -0.0303
   96MOL    H5132541   7.357   4.467   2.976  1.6847 -0.3003  1.9278
   96MOL    H5232542   7.396   4.632   2.948 -0.7656  0.0831 -1.9235
   96MOL    C5332543   7.482   4.511   2.792  0.0071  0.1865 -0.7308
   96MOL    C5432544   7.473   4.362   2.768  0.0208  0.2987  0.1505
   96MOL    C5532545   7.349   4.301   2.784  0.5547 -0.0748 -0.1832
   96MOL    C5632546   7.332   4.164   2.761  0.3324  0.5063  0.6100
   96MOL    C5732547   7.444   4.088   2.729 -0.2840  0.6714 -0.1620
   96MOL    O5832548   7.430   3.955   2.706  0.0260  0.4747 -0.3201
   96MOL    C5932549   7.572   4.146   2.725 -0.4241  0.3825 -0.5611
   96MOL    C6032550   7.589   4.281   2.746  0.4627 -0.2357 -0.3195
   96MOL    C6132551   7.396   4.589   2.687  0.6030  0.0394  0.5518
   96MOL    H6232552   7.587   4.533   2.774  0.5452 -0.8357  1.0242
   96MOL    H6332553   7.261   4.355   2.815 -0.1885 -0.9868 -0.6667
   96MOL    H6432554   7.235   4.116   2.762  0.6294 -0.1275 -0.8313
   96MOL    H6532555   7.349   3.920   2.673 -0.4127  0.8558  0.3380
   96MOL    H6632556   7.662   4.088   2.711 -0.7031  0.1877 -1.5711
   96MOL    H6732557   7.692   4.311   2.731  0.5797 -0.3582  0.2117
   96MOL    H6832558   7.360   4.682   2.730  0.4015  0.1050  0.2401
   96MOL    H6932559   7.299   4.540   2.678  2.0925 -3.0425  0.4231
   96MOL    C7032560   7.445   4.608   2.543  0.0050 -0.1857  0.6024
   96MOL    C7132561   7.547   4.719   2.536 -0.0161  0.1636 -0.3355
   96MOL    C7232562   7.502   4.851   2.541 -0.3226 -0.3798 -0.7099
   96MOL    C7332563   7.597   4.955   2.520 -0.0275  0.0387  0.7288
   96MOL    C7432564   7.730   4.919   2.490 -0.5039 -0.5411 -0.1067
   96MOL    O7532565   7.825   5.025   2.475  0.6961  0.1785 -0.5494
   96MOL    C7632566   7.775   4.787   2.491 -0.0969 -0.0148  0.1345
   96MOL    C7732567   7.684   4.689   2.519 -0.4436 -0.1000  0.1195
   96MOL    C7832568   7.327   4.649   2.453  0.1240  0.4939 -0.2232
   96MOL    H7932569   7.480   4.512   2.506 -0.2947 -0.1508  0.2277
   96MOL    H8032570   7.403   4.875   2.576 -0.1215 -0.5314 -0.0202
   96MOL    H8132571   7.560   5.056   2.529  0.4153  0.1913  0.8413
   96MOL    H8232572   7.826   5.091   2.543  0.4452 -0.5380  0.1639
   96MOL    H8332573   7.878   4.775   2.461  0.7285  0.3793  2.6622
   96MOL    H8432574   7.718   4.587   2.529 -2.2563 -0.6295  1.1172
   96MOL    H8532575   7.368   4.699   2.365 -1.6894  1.2291 -0.6776
   96MOL    H8632576   7.265   4.726   2.499  1.2992  1.1560  0.2723
   96MOL    C8732577   7.233   4.543   2.394  0.3880 -0.1028  0.1112
   96MOL    C8832578   7.313   4.437   2.322  0.0000 -0.2815 -0.8826
   96MOL    C8932579   7.340   4.317   2.386 -0.3134  0.4164 -0.1566
   96MOL    C9032580   7.445   4.234   2.341 -0.0212  0.6320 -0.2204
   96MOL    C9132581   7.504   4.267   2.218 -0.0559 -0.5462  1.1596
   96MOL    O9232582   7.597   4.185   2.165 -0.1109 -0.1317 -0.2470
   96MOL    C9332583   7.469   4.382   2.145  0.5787  0.1923 -0.6676
   96MOL    C9432584   7.381   4.473   2.202  0.5298  0.2188 -0.7468
   96MOL    C9532585   7.125   4.609   2.301 -0.6933  0.2139 -0.7077
   96MOL    H9632586   7.175   4.491   2.471 -1.3289  1.0458 -0.3769
   96MOL    H9732587   7.293   4.303   2.482  1.5709  2.7160  1.1587
   96MOL    H9832588   7.472   4.150   2.403  2.9149  1.6510  0.0134
   96MOL    H9932589   7.606   4.104   2.212 -3.2181 -1.0014 -1.0163
   96MOL   H10032590   7.524   4.414   2.058 -0.8682 -0.0002 -1.6646
   96MOL   H10132591   7.357   4.562   2.146 -2.3800 -0.4795 -0.6595
   96MOL   H10232592   7.041   4.636   2.365  0.3473  3.5392 -0.6652
   96MOL   H10332593   7.153   4.705   2.258 -0.3195  0.3130 -0.2489
   96MOL   C10432594   7.073   4.545   2.169  0.3813 -0.5643 -0.6851
   96MOL   C10532595   6.978   4.628   2.088 -0.3856  0.0202  0.4827
   96MOL   C10632596   7.025   4.686   1.966  0.6538 -0.5168  0.6036
   96MOL   C10732597   6.927   4.751   1.886  0.3327  0.0020  0.3981
   96MOL   C10832598   6.787   4.771   1.930  0.5730  0.2011  0.3074
   96MOL   O10932599   6.694   4.841   1.853  0.4926 -0.0246 -0.3326
   96MOL   C11032600   6.748   4.719   2.053 -0.3859  0.3638 -0.1962
   96MOL   C11132601   6.844   4.644   2.128  0.1739 -1.1593 -0.2764
   96MOL   C11232602   7.003   4.410   2.193  0.3451  0.7308  0.6826
   96MOL   H11332603   7.165   4.524   2.114  1.7577 -0.9110  1.6610
   96MOL   H11432604   7.126   4.675   1.930 -0.1105 -1.0901 -1.4349
   96MOL   H11532605   6.956   4.795   1.791 -0.5520 -1.2794 -0.4741
   96MOL   H11632606   6.738   4.920   1.826  2.7694 -1.2506 -0.4106
   96MOL   H11732607   6.646   4.719   2.087 -0.3397 -2.1649  0.0334
   96MOL   H11832608   6.809   4.619   2.227  0.3568 -0.4044 -0.0162
   96MOL   H11932609   6.913   4.418   2.254 -0.1813 -1.9786  0.2967
   96MOL   H12032610   7.075   4.358   2.257  1.5096  1.6677  0.1560
   96MOL   C12132611   6.974   4.316   2.066  0.2853  0.0600  0.1015
   96MOL   C12232612   7.061   4.191   2.077 -0.4788  0.6106 -0.3250
   96MOL   C12332613   7.194   4.189   2.036  0.0188  0.6830  0.1821
   96MOL   C12432614   7.282   4.081   2.053 -0.1887  0.1204  0.1724
   96MOL   C12532615   7.235   3.966   2.119  0.3563  0.0874 -0.2617
   96MOL   O12632616   7.312   3.851   2.149  0.1215 -0.1455 -0.6738
   96MOL   C12732617   7.096   3.962   2.159 -1.9518 -0.1060  0.9551
   96MOL   C12832618   7.015   4.074   2.142  0.1688  0.0931  0.3790
   96MOL   C12932619   6.830   4.296   2.034  0.0454 -0.4569 -0.2353
   96MOL   H13032620   7.019   4.375   1.986  1.2409  1.5523  1.7149
   96MOL   H13132621   7.240   4.269   1.980 -0.8685  0.5726 -0.7226
   96MOL   H13232622   7.385   4.077   2.022  0.2090  0.1984  1.4502
   96MOL   H13332623   7.395   3.863   2.193 -0.9754 -0.3583  1.5465
   96MOL   H13432624   7.061   3.877   2.216  1.4900 -1.6919  0.8427
   96MOL   H13532625   6.910   4.063   2.166 -0.0439 -1.4102 -1.1947
   96MOL   H13632626   6.796   4.399   2.018  1.4948  0.0852  0.0761
   96MOL   H13732627   6.783   4.247   2.120 -2.8473  1.8013 -0.4418
   96MOL   C13832628   6.796   4.229   1.902 -0.2812  0.7286  0.3715
   96MOL   C13932629   6.884   4.284   1.792 -0.5151 -0.9007 -0.5647
   96MOL   C14032630   6.835   4.402   1.734 -0.3608 -0.1224 -0.1122
   96MOL   C14132631   6.913   4.466   1.635 -0.7112  0.1167  1.8955
   96MOL   C14232632   7.034   4.411   1.595 -0.3474  0.3634 -0.2260
   96MOL   O14332633   7.101   4.479   1.498  0.0898 -0.7591  0.4166
   96MOL   C14432634   7.077   4.290   1.648  0.4122  0.5744 -0.1297
   96MOL   C14532635   7.001   4.217   1.740 -0.2424  0.2592  0.1134
   96MOL   C14632636   6.644   4.220   1.871 -0.4170  0.2952 -0.4710
   96MOL   H14732637   6.827   4.125   1.909 -0.9516  0.4459 -0.8586
   96MOL   H14832638   6.743   4.447   1.767 -0.5045 -0.6047  0.1454
   96MOL   H14932639   6.882   4.559   1.589  3.7023  1.5422  1.6196
   96MOL   H15032640   7.164   4.427   1.451 -0.9599 -0.7888 -0.9722
   96MOL   H15132641   7.173   4.248   1.620  0.1434 -0.1131 -0.0320
   96MOL   H15232642   7.035   4.122   1.780 -0.9914 -0.1063 -0.1032
   96MOL   H15332643   6.613   4.320   1.841  1.5585  0.6136 -1.5279
   96MOL   H15432644   6.606   4.197   1.970  3.3776 -0.1238  0.9786
   96MOL   C15532645   6.595   4.129   1.761 -0.2365 -0.5864  0.0765
   96MOL   C15632646   6.443   4.150   1.726  0.0556  1.2704  0.1130
   96MOL   C15732647   6.348   4.174   1.829  0.0850 -0.3855  0.1139
   96MOL   C15832648   6.212   4.194   1.807  0.6803  0.2438  0.1807
   96MOL   C15932649   6.162   4.179   1.680  0.3046 -0.8501  0.4718
   96MOL   O16032650   6.033   4.213   1.659  0.2836  0.5468 -0.1424
   96MOL   C16132651   6.250   4.149   1.575  0.1901 -0.3477 -0.4993
   96MOL   C16232652   6.389   4.138   1.594 -0.3210  0.4891 -1.0687
   96MOL   C16332653   6.613   3.979   1.793  0.1328 -0.1581  0.2949
   96MOL   H16432654   6.633   4.166   1.666 -0.9369  0.5939  0.2451
   96MOL   H16532655   6.381   4.181   1.932 -0.2681  0.1794  0.1862
   96MOL   H16632656   6.149   4.222   1.890  1.5731  2.2507  0.2200
   96MOL   H16732657   5.988   4.227   1.741 -1.1608 -1.1488 -0.6264
   96MOL   H16832658   6.206   4.133   1.477  1.4840  0.5144 -1.2455
   96MOL   H16932659   6.461   4.110   1.518 -1.1220 -0.3391 -1.5441
   96MOL   H17032660   6.528   3.945   1.853 -2.3091  0.3907 -2.7063
   96MOL   H17132661   6.707   3.957   1.844  0.6000 -4.2315 -2.0650
   96MOL   C17232662   6.621   3.888   1.668 -0.0468 -0.4226 -0.5158
   96MOL   C17332663   6.587   3.743   1.707  0.1694 -0.2507 -0.7813
   96MOL   C17432664   6.676   3.672   1.789  0.2707 -0.0256 -0.5473
   96MOL   C17532665   6.636   3.546   1.839  0.1531  0.3676  0.0906
   96MOL   C17632666   6.517   3.487   1.804  0.0114  0.0169 -0.6408
   96MOL   O17732667   6.476   3.372   1.874 -0.1373 -0.1555 -0.1701
   96MOL   C17832668   6.431   3.551   1.715 -0.1182 -0.6973  0.0397
   96MOL   C17932669   6.465   3.680   1.670 -0.7367 -0.0348  0.6669
   96MOL   C18032670   6.761   3.893   1.595  0.2027 -0.7619  0.5720
   96MOL   H18132671   6.537   3.913   1.603 -0.0353 -3.5398 -1.8177
   96MOL   H18232672   6.769   3.714   1.822 -0.6286 -1.3739  4.0303
   96MOL   H18332673   6.708   3.498   1.903  1.7743  0.6217 -1.5143
   96MOL   H18432674   6.546   3.337   1.927  0.8190 -0.0289 -1.3214
   96MOL   H18532675   6.332   3.510   1.696 -0.0826 -0.6039 -0.3536
   96MOL   H18632676   6.404   3.725   1.592 -0.5703 -1.1408 -0.1145
   96MOL   H18732677   6.824   3.806   1.611  0.3189 -0.8912 -0.5851
   96MOL   H18832678   6.814   3.985   1.621  0.5082 -0.5502 -0.7914
   96MOL   C18932679   6.746   3.899   1.445 -0.1429 -0.9571  0.3008
   96MOL   C19032680   6.869   3.976   1.388  0.8872  0.2667  0.0920
   96MOL   C19132681   6.857   4.107   1.351  0.2301  0.9179  0.5709
   96MOL   C19232682   6.974   4.181   1.331  0.3907  0.7053 -0.2985
   96MOL   C19332683   7.103   4.132   1.339 -0.0833 -0.3507 -0.4580
   96MOL   O19432684   7.203   4.215   1.308 -0.0550 -0.1770  0.5914
   96MOL   C19532685   7.110   3.994   1.356 -0.2651 -0.4722 -0.0718
   96MOL   C19632686   6.997   3.913   1.386  0.2634 -0.3720 -0.7944
   96MOL   C19732687   6.720   3.758   1.379  0.0829 -0.0984  0.2884
   96MOL   H19832688   6.655   3.958   1.430 -1.0120 -2.1923  0.6557
   96MOL   H19932689   6.762   4.158   1.355 -1.6159 -2.3537  0.7852
   96MOL   H20032690   6.965   4.287   1.314 -0.5099  0.5696 -0.6614
   96MOL   H20132691   7.281   4.170   1.281 -1.1082 -0.0306 -2.9537
   96MOL   H20232692   7.200   3.936   1.340  0.5537  0.3614  1.4119
   96MOL   H20332693   7.017   3.809   1.406  0.0971 -0.5547 -1.5593
   96MOL   H20432694   6.624   3.728   1.422  0.1699 -0.6777  0.0773
   96MOL   H20532695   6.785   3.678   1.414  0.6572  1.0741  2.0128
   96MOL   C20632696   6.728   3.739   1.227  0.2342  0.6931 -0.0138
   96MOL   C20732697   6.860   3.678   1.180  0.3171 -0.4336  0.0823
   96MOL   C20832698   6.895   3.543   1.208 -0.7428  0.3481 -0.3059
   96MOL   C20932699   7.013   3.481   1.158  0.4910  0.2192 -0.3446
   96MOL   C21032700   7.111   3.563   1.098 -0.0187  0.3050  0.7428
   96MOL   O21132701   7.233   3.516   1.058 -1.0429 -0.3817 -0.1225
   96MOL   C21232702   7.075   3.700   1.078 -0.2763  0.0653  0.7899
   96MOL   C21332703   6.954   3.756   1.113 -0.2697 -0.0426  0.4758
   96MOL   C21432704   6.673   3.849   1.131 -0.5240 -0.9039 -0.2163
   96MOL   H21532705   6.654   3.664   1.201  2.3095 -1.4960  0.2358
   96MOL   H21632706   6.825   3.476   1.255  0.9526 -1.5606 -0.4687
   96MOL   H21732707   7.030   3.379   1.189 -2.5466 -0.6948 -1.4648
   96MOL   H21832708   7.265   3.427   1.064  0.0529  0.0557  0.6253
   96MOL   H21932709   7.144   3.770   1.033  1.2088 -0.5921  2.0058
   96MOL   H22032710   6.937   3.862   1.098  1.2668  0.3068  1.0553
   96MOL   H22132711   6.671   3.793   1.037 -0.2486 -0.9294 -0.2070
   96MOL   H22232712   6.751   3.921   1.106 -0.9595 -0.7068 -1.0347
   96MOL   C22332713   6.539   3.917   1.154 -0.8190 -0.0197  0.3934
   96MOL   C22432714   6.421   3.835   1.200 -0.6177 -0.4957  0.1177
   96MOL   C22532715   6.343   3.870   1.312  0.1804 -0.1378  0.5199
   96MOL   C22632716   6.235   3.787   1.352  0.8439  0.0215  0.0141
   96MOL   C22732717   6.192   3.690   1.261  0.1550 -0.0419 -0.7415
   96MOL   O22832718   6.086   3.612   1.293 -0.4088  0.3909  0.6975
   96MOL   C22932719   6.262   3.664   1.141  0.4211 -0.5344 -0.1049
   96MOL   C23032720   6.378   3.736   1.115 -0.1753  0.8746 -0.6608
   96MOL   C23132721   6.503   4.016   1.045  0.2827  0.2699  0.7137
   96MOL   H23232722   6.564   3.979   1.239 -0.2904 -2.9114  2.4122
   96MOL   H23332723   6.378   3.951   1.374  0.6254 -1.5237  2.1263
   96MOL   H23432724   6.188   3.807   1.448  2.0708  1.7611  0.2743
   96MOL   H23532725   6.041   3.654   1.365 -0.9171  1.1408 -0.0549
   96MOL   H23632726   6.227   3.585   1.077  2.5797  0.0966 -2.1186
   96MOL   H23732727   6.415   3.715   1.016  0.3829  0.8310 -0.4498
   96MOL   H23832728   6.585   4.058   0.986 -0.0241  0.6448  0.5505
   96MOL   H23932729   6.445   3.963   0.970 -0.5553 -0.5618  1.9368
   96MOL   C24032730   6.417   4.133   1.097  0.5800  0.1743 -0.5245
   96MOL   C24132731   6.504   4.241   1.166 -0.1758  0.9328 -0.2474
   96MOL   C24232732   6.635   4.275   1.122 -0.4227 -0.6128 -0.2516
   96MOL   C24332733   6.709   4.377   1.189 -1.0890  0.2241  0.4869
   96MOL   C24432734   6.663   4.428   1.310 -0.2240 -0.7902 -0.0838
   96MOL   O24532735   6.730   4.530   1.369  0.5861 -0.3041  0.2409
   96MOL   C24632736   6.534   4.389   1.357 -0.1125 -0.6249  0.3697
   96MOL   C24732737   6.456   4.300   1.283 -0.3604  0.2589  0.7524
   96MOL   C24832738   6.333   4.199   0.988 -0.1627  0.1738 -0.1083
   96MOL   H24932739   6.341   4.103   1.169 -0.5853  2.2573 -0.8398
   96MOL   H25032740   6.682   4.235   1.034 -1.4958  1.3059 -1.7447
   96MOL   H25132741   6.802   4.412   1.146 -0.4570 -0.7622  1.0225
   96MOL   H25232742   6.674   4.563   1.438  1.0542  0.5443  0.2153
   96MOL   H25332743   6.514   4.417   1.459  2.0810  2.4767  0.0377
   96MOL   H25432744   6.358   4.269   1.317 -0.3729  0.5624  1.0027
   96MOL   H25532745   6.341   4.308   0.989  0.2980  0.1676 -1.8252
   96MOL   H25632746   6.386   4.174   0.896 -0.9630  0.5270 -0.6814
   96MOL   C25732747   6.184   4.147   0.961 -0.2151  0.2788  0.5121
   96MOL   C25832748   6.099   4.171   1.083 -0.2610  0.4015  0.4271
   96MOL   C25932749   6.080   4.305   1.117  0.4187 -0.0288 -0.1827
   96MOL   C26032750   6.011   4.332   1.238  0.3442 -0.5128  0.4651
   96MOL   C26132751   5.969   4.227   1.312  0.3359  0.3340 -0.0333
   96MOL   O26232752   5.895   4.250   1.428 -0.0978  0.2873 -0.0775
   96MOL   C26332753   5.999   4.094   1.281  0.7585  0.3173  0.3746
   96MOL   C26432754   6.060   4.065   1.160 -0.1037 -0.3806 -0.3425
   96MOL   C26532755   6.128   4.207   0.828  0.8373 -0.5632  0.2788
   96MOL   H26632756   6.203   4.040   0.956 -1.3471  0.1755 -2.0254
   96MOL   H26732757   6.123   4.394   1.072  2.0938  0.4531  2.2599
   96MOL   H26832758   5.983   4.431   1.270 -0.2961 -0.5395  0.0017
   96MOL   H26932759   5.940   4.230   1.509  0.1889 -0.0440 -0.3159
   96MOL   H27032760   5.971   4.015   1.349 -0.0190  0.2385 -0.0180
   96MOL   H27132761   6.074   3.966   1.119  1.8837  0.2454 -1.2098
   96MOL   H27232762   6.207   4.256   0.772  0.3590 -0.3868 -0.2498
   96MOL   H27332763   6.054   4.283   0.855 -0.0456 -1.2064 -0.2877
   96MOL   C27432764   6.058   4.116   0.726  0.2591  0.0412 -1.0092
   96MOL   C27532765   6.132   3.987   0.717  0.4658  0.1248 -0.2460
   96MOL   C27632766   6.273   3.990   0.700 -0.6570  0.2331 -0.0014
   96MOL   C27732767   6.347   3.871   0.714 -0.0312 -0.0158 -0.0039
   96MOL   C27832768   6.282   3.746   0.735 -0.2712  0.0579 -0.8272
   96MOL   O27932769   6.358   3.632   0.747  0.0411 -0.2180 -0.0683
   96MOL   C28032770   6.141   3.746   0.744  0.1217  0.0290 -0.2782
   96MOL   C28132771   6.065   3.865   0.739  0.0917  0.1076  0.5139
   96MOL   C28232772   6.028   4.182   0.588  0.3643  0.8216  0.3777
   96MOL   H28332773   5.962   4.096   0.773  1.8051  0.6743  2.5981
   96MOL   H28432774   6.329   4.081   0.683 -0.6790  0.1309 -0.6483
   96MOL   H28532775   6.455   3.868   0.704 -0.1056 -0.4071 -0.6783
   96MOL   H28632776   6.311   3.551   0.732 -1.0860  0.3518  0.3580
   96MOL   H28732777   6.093   3.654   0.774 -0.9947  0.4279 -0.8347
   96MOL   H28832778   5.959   3.881   0.758  0.1100  0.2165  0.5263
   96MOL   H28932779   5.971   4.271   0.617  1.9099  1.6057  1.0500
   96MOL   H29032780   6.120   4.211   0.537  1.6887 -2.1981  0.9571
   96MOL   C29132781   5.933   4.097   0.499 -0.7305 -0.4359  0.4528
   96MOL   C29232782   5.935   4.157   0.358 -0.2986 -0.1544  0.1698
   96MOL   C29332783   6.012   4.097   0.255  0.3774 -0.2673 -1.3621
   96MOL   C29432784   5.993   4.134   0.126 -0.3473  0.2450 -0.7630
   96MOL   C29532785   5.917   4.248   0.099  0.3031 -0.8266  0.1305
   96MOL   O29632786   5.900   4.283   8.005  0.3923 -0.3580  0.0467
   96MOL   C29732787   5.848   4.320   0.197 -0.2548  0.1306  0.2463
   96MOL   C29832788   5.862   4.277   0.329  0.0337 -0.3341 -0.2025
   96MOL   C29932789   5.783   4.075   0.548 -0.4000  0.3588  0.2854
   96MOL   H30032790   5.983   4.001   0.484  0.1469  0.0829 -0.0046
   96MOL   H30132791   6.075   4.014   0.282 -1.4119 -1.0350  0.6481
   96MOL   H30232792   6.049   4.091   0.045 -0.7150 -0.1731 -0.7915
   96MOL   H30332793   5.811   4.312   7.993  1.0925  1.5751 -0.6734
   96MOL   H30432794   5.783   4.405   0.182 -0.2182  0.7583  3.2433
   96MOL   H30532795   5.817   4.332   0.410  1.6882 -0.0682  0.5421
   96MOL   H30632796   5.743   4.176   0.541 -0.7378  0.1340 -1.3817
   96MOL   H30732797   5.786   4.068   0.656 -3.1049  0.7520  0.4152
   96MOL   C30832798   5.712   3.967   0.467  0.5031 -0.0737  0.2800
   96MOL   C30932799   5.562   3.990   0.466  0.0273  0.0073 -0.1532
   96MOL   C31032800   5.479   3.944   0.571  0.1292  0.0028  0.1750
   96MOL   C31132801   5.340   3.953   0.572 -0.8702  0.5723  0.3805
   96MOL   C31232802   5.281   4.020   0.462 -1.4949  0.3406 -0.0907
   96MOL   O31332803   5.144   4.039   0.471  0.1951 -0.5870 -0.1476
   96MOL   C31432804   5.358   4.061   0.357 -0.5769  0.0558 -0.4355
   96MOL   C31532805   5.497   4.050   0.359  0.6111 -0.3106  0.0276
   96MOL   C31632806   5.756   3.823   0.509 -0.2151 -0.1744 -0.3805
   96MOL   H31732807   5.737   3.989   0.363 -0.0604  0.8855  0.3421
   96MOL   H31832808   5.514   3.886   0.655 -1.9583 -2.3530 -0.5168
   96MOL   H31932809   5.283   3.920   0.658 -0.7446  0.0626  0.2705
   96MOL   H32032810   5.100   4.098   0.412 -3.8074 -2.7396  0.4697
   96MOL   H32132811   5.312   4.101   0.268 -0.9627 -0.1080 -0.3117
   96MOL   H32232812   5.552   4.096   0.278 -0.3103  1.3940  0.3480
   96MOL   H32332813   5.708   3.786   0.600  2.4892 -0.7560  0.8647
   96MOL   H32432814   5.860   3.821   0.541 -0.0101 -0.9049 -1.0795
   96MOL   C32532815   5.730   3.709   0.401 -0.0270  0.0842 -0.6571
   96MOL   C32632816   5.814   3.742   0.276  0.4406 -0.5736  0.4269
   96MOL   C32732817   5.956   3.723   0.288 -0.0241 -0.0523  0.2098
   96MOL   C32832818   6.033   3.745   0.169 -0.4891  0.0755 -0.3771
   96MOL   C32932819   5.978   3.791   0.046 -0.0329  0.8073  0.5348
   96MOL   O33032820   6.059   3.814   7.977  0.5922 -0.0048 -0.4191
   96MOL   C33132821   5.839   3.820   0.039 -0.0342  0.4311  0.1572
   96MOL   C33232822   5.758   3.785   0.149 -0.8137  0.5082 -0.2638
   96MOL   C33332823   5.583   3.674   0.383 -0.3339  0.0404  0.0695
   96MOL   H33432824   5.776   3.615   0.431  1.7791  0.6975 -1.4407
   96MOL   H33532825   6.002   3.681   0.376 -0.3034  1.3001  1.0160
   96MOL   H33632826   6.137   3.719   0.173 -0.0341  1.7268 -1.0495
   96MOL   H33732827   6.012   3.848   7.902 -0.7355 -0.1958  0.3092
   96MOL   H33832828   5.792   3.858   7.988 -1.6610 -2.0449 -0.0856
   96MOL   H33932829   5.650   3.792   0.147 -0.8303  1.0103  1.5256
   96MOL   H34032830   5.523   3.755   0.343  0.1753  0.0894 -0.5984
   96MOL   H34132831   5.542   3.640   0.479  0.1585  1.0367  0.6349
   96MOL   H34232832   5.574   3.585   0.321 -1.7761 -0.7135  1.3062
   97MOL     C132833   3.267   3.834   6.988  0.3090 -0.2787  0.3177
   97MOL     C232834   3.197   3.720   6.921  0.6867 -0.2723  0.1866
   97MOL     C332835   3.265   3.604   6.875  0.2886  0.5753 -0.7084
   97MOL     C432836   3.192   3.500   6.815  0.0501 -0.3467  0.3112
   97MOL     C532837   3.053   3.506   6.795 -0.0508 -0.2423  0.3757
   97MOL     O632838   2.978   3.406   6.745 -0.2630  0.1956  0.2767
   97MOL     C732839   2.996   3.623   6.833 -0.5948 -0.3259 -0.3993
   97MOL     C832840   3.060   3.728   6.898 -0.1465  0.2148 -0.1378
   97MOL     C932841   3.331   3.928   6.884  0.4823 -0.4248 -0.3606
   97MOL    H1032842   3.190   3.887   7.043  0.1730  1.5902 -1.6018
   97MOL    H1132843   3.367   3.614   6.908 -0.1448  0.9860  0.5516
   97MOL    H1232844   3.241   3.408   6.788 -0.0465 -0.2223 -0.2838
   97MOL    H1332845   3.028   3.334   6.709  1.2883  0.1200  2.4870
   97MOL    H1432846   2.890   3.635   6.817 -0.7537  0.1758  0.9341
   97MOL    H1532847   3.002   3.812   6.936 -1.4759 -1.1229  0.8989
   97MOL    H1632848   3.374   3.866   6.805  0.3690 -2.7317  1.3417
   97MOL    H1732849   3.411   3.979   6.938 -0.9304  0.7401  0.6807
   97MOL    H1832850   3.336   3.797   7.064 -0.7937 -0.4776  1.2380
   97MOL    C1932851   3.237   4.036   6.832  0.1243  0.1958  0.7473
   97MOL    C2032852   3.298   4.092   6.706 -0.5227  0.3005 -0.0184
   97MOL    C2132853   3.421   4.160   6.709  0.7923  0.0033 -0.3049
   97MOL    C2232854   3.478   4.195   6.584  0.0153 -0.5588 -0.5933
   97MOL    C2332855   3.410   4.175   6.464 -0.0957  0.4468 -0.6688
   97MOL    O2432856   3.456   4.225   6.343  0.2149  0.4532  0.1393
   97MOL    C2532857   3.285   4.113   6.468 -0.0770  0.5594  0.2471
   97MOL    C2632858   3.229   4.068   6.586 -0.0132  0.0334 -0.0417
   97MOL    C2732859   3.210   4.148   6.938  0.5106  0.0464 -0.4622
   97MOL    H2832860   3.139   3.992   6.811  0.4110  0.2092 -0.6112
   97MOL    H2932861   3.474   4.175   6.802 -0.3853  2.2549  0.0401
   97MOL    H3032862   3.579   4.233   6.579  0.4277 -1.6421 -0.7433
   97MOL    H3132863   3.540   4.269   6.345  0.5861 -0.2801  2.0928
   97MOL    H3232864   3.228   4.100   6.377 -0.7732 -1.5262  0.9290
   97MOL    H3332865   3.129   4.026   6.585 -0.0605  0.1321  0.5225
   97MOL    H3432866   3.300   4.209   6.950 -1.2082  1.8674  3.9473
   97MOL    H3532867   3.200   4.108   7.038  1.9816  3.0293  0.9405
   97MOL    C3632868   3.090   4.239   6.902  0.6039 -0.3452  0.6678
   97MOL    C3732869   3.100   4.375   6.969  0.0699 -0.7300 -0.4623
   97MOL    C3832870   3.119   4.490   6.888  0.0298 -0.1657  0.3382
   97MOL    C3932871   3.095   4.614   6.946  0.1494  1.0815  0.8554
   97MOL    C4032872   3.042   4.621   7.078  0.4524  0.4250 -0.7406
   97MOL    O4132873   2.985   4.734   7.119  0.0032  0.2151  0.5129
   97MOL    C4232874   3.032   4.507   7.157  0.3552 -0.1977  0.2145
   97MOL    C4332875   3.080   4.385   7.111  0.1537 -0.1522  0.8129
   97MOL    C4432876   2.953   4.170   6.949  0.3537  0.6303 -0.1947
   97MOL    H4532877   3.095   4.259   6.795  1.1445  0.7360  0.8776
   97MOL    H4632878   3.134   4.487   6.781 -0.0026  1.6282  0.2718
   97MOL    H4732879   3.096   4.705   6.887  0.4501 -0.2291 -1.2373
   97MOL    H4832880   2.937   4.718   7.198 -0.6894 -0.0945  0.0316
   97MOL    H4932881   2.991   4.511   7.257 -0.6357  0.4737 -0.2232
   97MOL    H5032882   3.071   4.296   7.172  0.1456 -0.0032  1.0277
   97MOL    H5132883   2.947   4.072   6.901  1.0151  0.7751 -0.5833
   97MOL    H5232884   2.947   4.158   7.057 -1.0227  0.7017 -0.2593
   97MOL    C5332885   2.821   4.247   6.908 -0.1455 -0.0901 -0.6762
   97MOL    C5432886   2.813   4.277   6.763  1.2104 -0.4728 -0.5533
   97MOL    C5532887   2.817   4.409   6.719  0.2002  0.1376  0.3335
   97MOL    C5632888   2.826   4.435   6.584 -0.7362  0.4473  0.3695
   97MOL    C5732889   2.807   4.325   6.491 -0.3946 -0.1760  2.1646
   97MOL    O5832890   2.826   4.352   6.358  0.1220  1.1367  0.2590
   97MOL    C5932891   2.809   4.193   6.535  0.4162  1.0370 -0.5671
   97MOL    C6032892   2.799   4.166   6.672 -0.1886 -0.2122  0.0733
   97MOL    C6132893   2.692   4.164   6.956  0.3193  0.1637  0.4787
   97MOL    H6232894   2.817   4.343   6.959 -0.1331 -0.7981  0.7009
   97MOL    H6332895   2.840   4.488   6.789  1.4575 -1.2238  1.4726
   97MOL    H6432896   2.851   4.535   6.551 -0.4969  0.2481 -0.0644
   97MOL    H6532897   2.870   4.434   6.341 -2.0508  2.1192 -0.9723
   97MOL    H6632898   2.803   4.112   6.463 -0.3138  0.8313 -0.2820
   97MOL    H6732899   2.788   4.068   6.715  0.4905 -0.1454  0.4133
   97MOL    H6832900   2.669   4.072   6.902 -0.4918  1.1297 -0.8601
   97MOL    H6932901   2.607   4.223   6.922  0.1007  0.1962  1.0864
   97MOL    C7032902   2.683   4.141   7.109 -0.6639  0.3422  0.4385
   97MOL    C7132903   2.734   4.008   7.153 -0.1570  0.2993  0.3818
   97MOL    C7232904   2.678   3.890   7.096  0.2867  0.1427  0.0342
   97MOL    C7332905   2.734   3.767   7.125  0.3674  0.3011 -0.2789
   97MOL    C7432906   2.852   3.752   7.198  0.2470 -0.0581  0.6505
   97MOL    O7532907   2.902   3.626   7.213  0.2361 -0.3851 -0.2303
   97MOL    C7632908   2.904   3.869   7.264 -1.1699 -0.4169  0.1216
   97MOL    C7732909   2.848   3.995   7.242  0.0366  0.8210 -0.2781
   97MOL    C7832910   2.541   4.157   7.155  0.6769  0.3231 -0.0784
   97MOL    H7932911   2.752   4.207   7.163  3.3559 -1.6934 -1.9616
   97MOL    H8032912   2.588   3.894   7.037  0.6101  2.2830 -0.3519
   97MOL    H8132913   2.677   3.679   7.097 -2.0309  2.6146 -2.9041
   97MOL    H8232914   2.849   3.551   7.193 -0.6964  0.3315 -0.5103
   97MOL    H8332915   2.992   3.865   7.326  0.1808 -2.9650 -1.8579
   97MOL    H8432916   2.901   4.081   7.279 -0.6050  1.6027 -1.1539
   97MOL    H8532917   2.520   4.125   7.257 -0.5752 -1.9753 -1.0259
   97MOL    H8632918   2.482   4.097   7.087 -1.2597  3.4061 -1.2028
   97MOL    C8732919   2.477   4.303   7.164 -0.5442  1.3999  0.4735
   97MOL    C8832920   2.575   4.400   7.222 -0.3575  0.4304  0.0700
   97MOL    C8932921   2.603   4.402   7.359  0.1086  0.2418  0.1814
   97MOL    C9032922   2.690   4.501   7.412 -1.1103  0.4113  1.2659
   97MOL    C9132923   2.741   4.597   7.327  0.0340 -0.7349  0.7433
   97MOL    O9232924   2.841   4.677   7.371 -0.0722 -0.2707  0.4733
   97MOL    C9332925   2.691   4.609   7.196 -0.2734 -0.0732  0.7882
   97MOL    C9432926   2.622   4.505   7.136 -0.0063 -0.4684  0.2604
   97MOL    C9532927   2.339   4.312   7.244  0.9653 -0.4593  0.8291
   97MOL    H9632928   2.454   4.336   7.063  0.7465  1.4544  0.1854
   97MOL    H9732929   2.556   4.331   7.425 -1.0519  1.4095  0.6478
   97MOL    H9832930   2.727   4.495   7.513  0.0630 -1.7381  0.7394
   97MOL    H9932931   2.836   4.729   7.449  3.1232 -1.3244  1.4578
   97MOL   H10032932   2.717   4.696   7.137  0.2899 -0.9802 -0.3410
   97MOL   H10132933   2.587   4.527   7.036 -0.6552 -0.0425  0.5725
   97MOL   H10232934   2.280   4.237   7.193  0.7882  1.0774 -1.2607
   97MOL   H10332935   2.362   4.288   7.348 -2.0506  0.3093  1.7171
   97MOL   C10432936   2.264   4.444   7.243 -0.2103  0.1759  0.2223
   97MOL   C10532937   2.155   4.439   7.352 -0.2502 -0.1593  0.3467
   97MOL   C10632938   2.149   4.544   7.444 -0.1870 -0.3100 -0.5226
   97MOL   C10732939   2.053   4.544   7.546 -0.2687 -0.0849  0.1689
   97MOL   C10832940   1.960   4.436   7.560 -0.1260  0.4925  0.2220
   97MOL   O10932941   1.864   4.443   7.653  0.1245 -0.1835 -0.3413
   97MOL   C11032942   1.970   4.332   7.469 -0.0830 -0.5788 -0.1268
   97MOL   C11132943   2.067   4.330   7.364  0.4452 -0.0071  0.4266
   97MOL   C11232944   2.190   4.465   7.113  0.3559 -0.5127 -0.6250
   97MOL   H11332945   2.331   4.526   7.268 -0.1319  0.3847 -0.6418
   97MOL   H11432946   2.215   4.629   7.447  0.8479 -1.1417  1.5431
   97MOL   H11532947   2.061   4.620   7.622  0.8257  0.0402 -0.0598
   97MOL   H11632948   1.869   4.533   7.683  0.2949 -0.2402 -0.2016
   97MOL   H11732949   1.913   4.241   7.480 -0.5705 -0.4987 -1.8321
   97MOL   H11832950   2.075   4.239   7.307  3.5862  0.9882 -0.8144
   97MOL   H11932951   2.120   4.383   7.099 -0.9170  0.4185  0.2068
   97MOL   H12032952   2.258   4.455   7.028  1.0542 -2.3830  0.1294
   97MOL   C12132953   2.117   4.600   7.103 -0.4695 -0.4211  0.0936
   97MOL   C12232954   2.203   4.726   7.134 -0.4881 -0.0055 -0.2479
   97MOL   C12332955   2.181   4.807   7.248 -0.0277 -0.3807  0.1157
   97MOL   C12432956   2.265   4.916   7.283  0.5903  0.2945 -0.0146
   97MOL   C12532957   2.370   4.944   7.193 -0.5251 -0.1034 -0.3211
   97MOL   O12632958   2.464   5.040   7.223  0.5335 -0.7753  0.2801
   97MOL   C12732959   2.385   4.878   7.067 -0.0294  0.1770 -0.3011
   97MOL   C12832960   2.304   4.765   7.043 -0.1728  0.8361 -0.3906
   97MOL   C12932961   2.034   4.615   6.975 -0.5878  0.6626 -0.8458
   97MOL   H13032962   2.041   4.591   7.180  2.0524 -2.2161  2.4860
   97MOL   H13132963   2.106   4.779   7.321 -1.0468 -0.0631 -0.7814
   97MOL   H13232964   2.271   4.966   7.378 -0.9089 -2.0900  1.4023
   97MOL   H13332965   2.501   5.093   7.154  0.0073 -0.9184 -0.1178
   97MOL   H13432966   2.462   4.920   7.004 -0.9942  3.2185  0.4737
   97MOL   H13532967   2.314   4.715   6.948 -0.0557 -0.5806  0.3488
   97MOL   H13632968   1.977   4.525   6.953 -1.3292  1.1429 -0.9216
   97MOL   H13732969   2.107   4.621   6.894  0.4809 -1.0146 -0.0281
   97MOL   C13832970   1.926   4.731   6.977  0.1088 -0.5156  0.0484
   97MOL   C13932971   1.829   4.717   7.092  0.5886  0.1797 -0.5646
   97MOL   C14032972   1.840   4.802   7.206  0.3705 -0.2399 -0.4614
   97MOL   C14132973   1.756   4.778   7.322 -0.0712 -0.1665  0.4527
   97MOL   C14232974   1.671   4.664   7.322 -0.6644 -0.6350  0.1363
   97MOL   O14332975   1.605   4.637   7.438 -0.2044 -0.3630 -0.1945
   97MOL   C14432976   1.667   4.579   7.206  0.4557 -0.3115 -0.3573
   97MOL   C14532977   1.747   4.604   7.096 -0.0704 -0.6615 -0.1947
   97MOL   C14632978   1.855   4.748   6.840  0.3665  0.2051  0.2405
   97MOL   H14732979   1.989   4.818   6.998 -0.6450  0.2319 -0.7299
   97MOL   H14832980   1.887   4.899   7.203  0.3896 -0.1452  1.7924
   97MOL   H14932981   1.754   4.856   7.396  0.7773 -0.2386  0.5534
   97MOL   H15032982   1.647   4.678   7.513  1.0484  1.5165 -1.8396
   97MOL   H15132983   1.614   4.486   7.212  1.5978 -0.8800  1.7034
   97MOL   H15232984   1.760   4.537   7.012  1.3036 -0.1889 -0.3711
   97MOL   H15332985   1.761   4.800   6.855  0.3190 -0.3083  1.7734
   97MOL   H15432986   1.816   4.653   6.804 -0.9051  0.9977 -0.4928
   97MOL   C15532987   1.943   4.806   6.725 -0.5135  0.9469 -0.2705
   97MOL   C15632988   1.989   4.939   6.764  0.1996 -0.3979 -0.8411
   97MOL   C15732989   1.899   5.045   6.789  0.4443 -0.2673  0.2842
   97MOL   C15832990   1.946   5.174   6.813 -0.2372 -0.8891 -0.5870
   97MOL   C15932991   2.082   5.206   6.811 -0.2590 -0.2632  0.3123
   97MOL   O16032992   2.130   5.335   6.812  0.0461  0.2849 -0.4718
   97MOL   C16132993   2.173   5.098   6.782  0.0196 -0.2232 -0.3070
   97MOL   C16232994   2.123   4.969   6.771  0.3436  0.0596  0.6596
   97MOL   C16332995   1.874   4.801   6.584 -0.1730 -0.4260 -0.4371
   97MOL   H16432996   2.031   4.741   6.718  0.9779  2.9420 -0.3473
   97MOL   H16532997   1.793   5.030   6.780  0.0738  1.1427  2.0246
   97MOL   H16632998   1.884   5.260   6.835  0.1536 -0.0013 -2.8592
   97MOL   H16732999   2.057   5.394   6.800  0.2151 -0.0128 -3.3434
   97MOL   H16833000   2.281   5.109   6.789 -0.0013  0.9122 -1.5681
   97MOL   H16933001   2.190   4.889   6.744 -0.6240 -0.1898 -1.0477
   97MOL   H17033002   1.886   4.900   6.539 -0.3731 -0.0012  0.4501
   97MOL   H17133003   1.765   4.798   6.593 -0.0412  1.1341  2.0793
   97MOL   C17233004   1.926   4.700   6.480  0.1952  0.2027 -0.0519
   97MOL   C17333005   1.891   4.741   6.338  1.1480  0.6357  0.2040
   97MOL   C17433006   1.753   4.746   6.305 -0.1651 -0.9518  0.0990
   97MOL   C17533007   1.710   4.761   6.170  0.4845 -0.2226  0.0375
   97MOL   C17633008   1.803   4.777   6.065  0.2921 -0.2974 -0.0332
   97MOL   O17733009   1.759   4.799   5.941 -0.1721  0.7593  0.4938
   97MOL   C17833010   1.942   4.769   6.097  0.0197  0.1330 -0.2881
   97MOL   C17933011   1.988   4.760   6.239 -0.2212 -0.6927  0.7162
   97MOL   C18033012   1.892   4.555   6.509 -0.0584 -0.3572 -0.0163
   97MOL   H18133013   2.033   4.720   6.480  0.3772 -0.7652  0.3635
   97MOL   H18233014   1.678   4.734   6.381  0.5557 -0.9667  0.8170
   97MOL   H18333015   1.603   4.759   6.153 -0.0483  1.0168  2.8766
   97MOL   H18433016   1.819   4.849   5.888  0.2466  0.5132  0.7395
   97MOL   H18533017   2.009   4.788   6.014 -0.0980  0.6721 -0.2562
   97MOL   H18633018   2.092   4.772   6.263 -0.1773 -0.8416  0.6015
   97MOL   H18733019   1.791   4.529   6.478  0.5142 -4.2415  1.1044
   97MOL   H18833020   1.890   4.541   6.617  1.8143 -0.9360 -0.0410
   97MOL   C18933021   1.984   4.461   6.440 -0.4253  0.0807 -0.0600
   97MOL   C19033022   2.123   4.466   6.495  0.1411 -0.0987  0.9229
   97MOL   C19133023   2.146   4.438   6.633  0.4883 -0.2289  0.6455
   97MOL   C19233024   2.272   4.431   6.688  0.0685  0.7400 -0.3521
   97MOL   C19333025   2.386   4.436   6.602  0.6241  0.9118 -0.9439
   97MOL   O19433026   2.510   4.416   6.655  0.0027 -0.5431  0.3160
   97MOL   C19533027   2.364   4.463   6.461 -0.2403 -1.2120  0.3082
   97MOL   C19633028   2.234   4.484   6.411  1.0004  1.2049  0.0646
   97MOL   C19733029   1.926   4.319   6.446  0.8520 -0.0105 -0.4791
   97MOL   H19833030   1.989   4.500   6.339  0.2635 -2.1471 -0.9101
   97MOL   H19933031   2.057   4.422   6.691  0.6449  0.1202  0.9857
   97MOL   H20033032   2.273   4.421   6.795 -2.0319 -0.2507 -0.4018
   97MOL   H20133033   2.584   4.410   6.596  0.5373 -2.0364  1.1090
   97MOL   H20233034   2.447   4.474   6.394 -0.9453 -2.1069 -0.7191
   97MOL   H20333035   2.215   4.505   6.307  0.4198 -0.7308 -0.2355
   97MOL   H20433036   1.822   4.332   6.416  0.0973 -1.9455  1.1703
   97MOL   H20533037   1.925   4.270   6.544 -0.8105  0.1306 -0.4090
   97MOL   C20633038   2.003   4.224   6.347  0.4274 -0.5184 -0.6062
   97MOL   C20733039   2.031   4.291   6.209  0.3561 -0.2570 -0.6934
   97MOL   C20833040   1.928   4.364   6.145  0.0518 -0.5962  0.1855
   97MOL   C20933041   1.958   4.447   6.037  0.1949  0.8253  0.1067
   97MOL   C21033042   2.097   4.460   5.993  0.5995 -0.0482  0.2101
   97MOL   O21133043   2.127   4.542   5.887  0.1248 -0.4184 -0.1755
   97MOL   C21233044   2.192   4.370   6.048 -0.2842 -0.1766  0.3179
   97MOL   C21333045   2.162   4.286   6.155 -0.7303  0.2522 -0.3745
   97MOL   C21433046   1.924   4.091   6.329  0.3530  0.5199  0.2597
   97MOL   H21533047   2.100   4.217   6.397  0.8318 -1.4326 -1.4831
   97MOL   H21633048   1.827   4.362   6.185  0.0608  1.3878  0.3583
   97MOL   H21733049   1.881   4.509   5.994 -0.9664 -0.4352  0.3428
   97MOL   H21833050   2.211   4.581   5.905 -0.8636  1.1300  1.1956
   97MOL   H21933051   2.286   4.350   5.998 -1.2496 -1.2631 -1.1354
   97MOL   H22033052   2.236   4.224   6.203 -1.9483  0.0646  1.2871
   97MOL   H22133053   1.836   4.107   6.267  0.8655  2.2070 -0.0702
   97MOL   H22233054   1.876   4.062   6.422 -0.1587  0.2522 -0.0897
   97MOL   C22333055   2.016   3.962   6.296  0.1544 -0.3635  0.5874
   97MOL   C22433056   1.944   3.842   6.234 -0.4771  0.3923 -0.6218
   97MOL   C22533057   1.978   3.786   6.109  0.1357  0.9337  0.4489
   97MOL   C22633058   1.922   3.657   6.078 -0.7129 -0.1375 -0.1428
   97MOL   C22733059   1.838   3.590   6.169 -0.7879 -0.0753  0.4937
   97MOL   O22833060   1.799   3.464   6.138 -0.0414  0.0763 -0.0070
   97MOL   C22933061   1.798   3.650   6.287  0.3293  0.2464  0.0118
   97MOL   C23033062   1.853   3.777   6.323  0.4687 -0.3417 -0.1196
   97MOL   C23133063   2.103   3.918   6.415  0.0217 -0.1148 -0.3022
   97MOL   H23233064   2.091   4.001   6.227  0.9970  1.4115  2.4435
   97MOL   H23333065   2.049   3.835   6.044 -1.4426 -0.1361 -2.1661
   97MOL   H23433066   1.947   3.614   5.982 -0.8007  0.6930 -0.5438
   97MOL   H23533067   1.722   3.438   6.187  0.7289 -2.4657 -0.0432
   97MOL   H23633068   1.732   3.600   6.357  3.0568 -3.4766  0.1270
   97MOL   H23733069   1.828   3.822   6.418 -1.5464  2.3176 -1.8515
   97MOL   H23833070   2.138   4.008   6.465 -0.6735 -0.1777  0.3010
   97MOL   H23933071   2.051   3.861   6.492 -1.1377  0.5398 -0.5980
   97MOL   C24033072   2.239   3.853   6.383 -0.3831  0.3888 -0.5401
   97MOL   C24133073   2.339   3.952   6.335  0.0179  0.7174  0.3019
   97MOL   C24233074   2.386   4.053   6.428 -0.0245  0.6102 -0.3929
   97MOL   C24333075   2.478   4.157   6.393  0.0766 -0.6496  0.0197
   97MOL   C24433076   2.524   4.154   6.262  0.5581 -0.6024  0.1076
   97MOL   O24533077   2.614   4.246   6.214 -0.1350  0.0016 -0.0718
   97MOL   C24633078   2.479   4.055   6.171  0.1117 -0.1259 -0.0929
   97MOL   C24733079   2.384   3.955   6.205  0.0054 -0.8717  0.2518
   97MOL   C24833080   2.294   3.758   6.479 -0.2902 -0.4686 -0.0033
   97MOL   H24933081   2.206   3.795   6.297 -0.4783  1.7296 -1.4077
   97MOL   H25033082   2.340   4.065   6.525  0.4083  2.2009 -0.3717
   97MOL   H25133083   2.509   4.234   6.461 -1.4394  0.6562 -0.7265
   97MOL   H25233084   2.676   4.276   6.277  1.9626  0.4182 -2.2654
   97MOL   H25333085   2.518   4.066   6.071 -0.0974 -0.1049 -0.1702
   97MOL   H25433086   2.343   3.889   6.130 -0.2593 -1.4883  0.9322
   97MOL   H25533087   2.367   3.808   6.542  0.9697  0.3979 -2.0878
   97MOL   H25633088   2.221   3.710   6.544  0.1042 -3.1531 -1.4602
   97MOL   C25733089   2.356   3.633   6.412  0.1715 -0.2356 -0.3604
   97MOL   C25833090   2.453   3.561   6.514 -0.1008  0.1972 -0.0431
   97MOL   C25933091   2.596   3.570   6.493 -0.1313 -0.2748 -0.1544
   97MOL   C26033092   2.685   3.512   6.587  0.1120 -1.0804  0.5157
   97MOL   C26133093   2.636   3.436   6.691 -0.2871  1.3160  0.3665
   97MOL   O26233094   2.712   3.361   6.780  0.3579 -0.2481 -0.4444
   97MOL   C26333095   2.496   3.427   6.710  0.1134 -0.0358 -0.7658
   97MOL   C26433096   2.401   3.485   6.624 -0.4624  0.4842 -0.3149
   97MOL   C26533097   2.253   3.531   6.345 -0.0947 -0.1943  0.2048
   97MOL   H26633098   2.422   3.673   6.335 -0.1187  1.2856  0.1560
   97MOL   H26733099   2.630   3.630   6.409 -2.3194 -0.1681 -1.0103
   97MOL   H26833100   2.791   3.503   6.566 -0.0636 -0.3881 -0.7320
   97MOL   H26933101   2.792   3.410   6.791  0.6801 -0.9311  0.3299
   97MOL   H27033102   2.465   3.368   6.795  0.4798  2.3174  1.0443
   97MOL   H27133103   2.296   3.487   6.646 -0.5502  1.2223 -0.7679
   97MOL   H27233104   2.190   3.581   6.271 -0.2747 -2.1173 -0.9771
   97MOL   H27333105   2.178   3.509   6.421 -0.3023  2.3722  0.7853
   97MOL   C27433106   2.313   3.406   6.273 -0.0752  0.5054 -0.2196
   97MOL   C27533107   2.404   3.450   6.155 -0.7675 -0.4020 -0.3697
   97MOL   C27633108   2.540   3.416   6.157 -0.4315 -0.1257  0.4755
   97MOL   C27733109   2.627   3.434   6.046  0.4220 -0.2152  0.1508
   97MOL   C27833110   2.572   3.493   5.936 -0.8191  0.5553 -0.0663
   97MOL   O27933111   2.655   3.514   5.831 -0.2656 -0.1121  1.0200
   97MOL   C28033112   2.442   3.540   5.935  0.0269 -0.1823 -0.3933
   97MOL   C28133113   2.357   3.515   6.040 -0.7307  0.0122 -0.3037
   97MOL   C28233114   2.212   3.301   6.217  0.1649 -0.6974  0.4188
   97MOL   H28333115   2.377   3.359   6.347 -0.6634  0.4317  0.2473
   97MOL   H28433116   2.583   3.362   6.240  0.0902 -1.8597 -0.8869
   97MOL   H28533117   2.729   3.400   6.042  0.7480  0.8101 -0.3922
   97MOL   H28633118   2.710   3.440   5.810 -0.0034  0.5563 -0.7739
   97MOL   H28733119   2.407   3.592   5.847 -0.4806  1.7709  0.9294
   97MOL   H28833120   2.255   3.550   6.033 -0.7312 -0.1563 -1.2029
   97MOL   H28933121   2.135   3.269   6.288  0.8821 -3.3067  0.0435
   97MOL   H29033122   2.145   3.344   6.143 -0.0699 -2.3235 -0.3227
   97MOL   C29133123   2.287   3.176   6.160  0.6949 -0.9794 -0.3374
   97MOL   C29233124   2.227   3.117   6.038  0.1219 -0.2346  0.0703
   97MOL   C29333125   2.252   3.156   5.904 -0.2532 -0.4239  0.3875
   97MOL   C29433126   2.200   3.094   5.791 -0.3583 -0.1022 -0.5060
   97MOL   C29533127   2.091   3.005   5.812  0.3200  0.0481 -0.7438
   97MOL   O29633128   2.029   2.956   5.699  0.0812 -0.2745 -0.5047
   97MOL   C29733129   2.053   2.970   5.940 -0.2973 -0.9012  0.1595
   97MOL   C29833130   2.124   3.020   6.050  0.4283 -0.4831 -0.4930
   97MOL   C29933131   2.333   3.080   6.264  0.6520  0.2101 -0.0898
   97MOL   H30033132   2.382   3.201   6.113  1.0569  0.5043  1.1290
   97MOL   H30133133   2.327   3.233   5.892 -0.8696  0.0268 -0.6101
   97MOL   H30233134   2.221   3.145   5.698 -0.5362  0.1625 -0.4005
   97MOL   H30333135   1.937   2.938   5.701 -0.1956  0.6764 -3.3291
   97MOL   H30433136   1.968   2.905   5.955 -1.0548  0.3639  1.4471
   97MOL   H30533137   2.090   2.988   6.147 -0.3675  2.3310  0.2143
   97MOL   H30633138   2.243   3.038   6.309  1.3325 -1.3958 -0.1982
   97MOL   H30733139   2.369   3.146   6.342 -3.1176 -0.6339  2.5299
   97MOL   C30833140   2.429   2.972   6.230  0.7843 -0.0232  0.2531
   97MOL   C30933141   2.443   2.879   6.349 -0.0583  0.8204  0.2496
   97MOL   C31033142   2.486   2.934   6.470  0.2575  0.1579  0.4878
   97MOL   C31133143   2.482   2.863   6.588  0.6339  0.3903  1.1942
   97MOL   C31233144   2.433   2.724   6.586  0.0768 -0.0264  0.3245
   97MOL   O31333145   2.398   2.662   6.702 -0.2530 -0.1661 -0.4380
   97MOL   C31433146   2.386   2.669   6.465 -0.2763 -1.2375  0.2334
   97MOL   C31533147   2.388   2.748   6.346 -0.1758 -0.1644  0.3344
   97MOL   C31633148   2.570   3.027   6.185  0.2789  0.5544  0.2863
   97MOL   H31733149   2.380   2.928   6.143 -0.2303 -1.0460  1.3208
   97MOL   H31833150   2.508   3.040   6.472 -0.6605  0.3854 -1.0476
   97MOL   H31933151   2.496   2.912   6.683  2.4021  0.6881  0.7993
   97MOL   H32033152   2.360   2.579   6.675  0.2744 -0.3680 -0.5652
   97MOL   H32133153   2.347   2.569   6.466  2.3659 -2.3021  2.7512
   97MOL   H32233154   2.340   2.716   6.254 -0.9708 -1.5919  1.2170
   97MOL   H32333155   2.655   2.989   6.241 -0.3940  2.0307  2.4223
   97MOL   H32433156   2.574   3.135   6.204  1.1074  0.4532  0.7097
   97MOL   C32533157   2.610   3.011   6.036  0.5184 -0.1642 -0.6152
   97MOL   C32633158   2.554   2.882   5.978 -0.1016 -0.3184  0.1542
   97MOL   C32733159   2.457   2.881   5.874  0.1180  0.4072  0.4144
   97MOL   C32833160   2.374   2.777   5.852 -0.1238  0.7301  0.6791
   97MOL   C32933161   2.393   2.658   5.926 -0.1909  0.0042 -0.0548
   97MOL   O33033162   2.318   2.543   5.919  0.6177  0.0486  0.7900
   97MOL   C33133163   2.500   2.650   6.020 -0.2470 -0.5145  0.4387
   97MOL   C33233164   2.577   2.766   6.049  0.4177 -0.0708  0.9427
   97MOL   C33333165   2.756   3.035   6.003 -0.1959  0.6158  0.4333
   97MOL   H33433166   2.561   3.095   5.986 -0.6867  0.0039  0.8154
   97MOL   H33533167   2.435   2.967   5.811 -1.5096 -0.5254 -0.3253
   97MOL   H33633168   2.287   2.787   5.788 -1.5164  0.2016  2.4587
   97MOL   H33733169   2.226   2.563   5.908  0.6594 -0.2098 -0.0724
   97MOL   H33833170   2.516   2.561   6.078  0.4248 -0.3853  0.4561
   97MOL   H33933171   2.644   2.766   6.133 -1.0122  0.6011  2.1083
   97MOL   H34033172   2.799   3.128   6.041 -1.1478  1.2372  0.0202
   97MOL   H34133173   2.766   3.030   5.895 -2.8495 -0.0991  0.1815
   97MOL   H34233174   2.817   2.957   6.048 -1.7191 -1.2551 -0.6644
   98MOL     C133175   3.690   4.305   7.324 -0.1996  0.2823  0.1060
   98MOL     C233176   3.829   4.246   7.335  0.2558  0.3609  0.2489
   98MOL     C333177   3.860   4.121   7.273  0.2294  0.1217  0.3637
   98MOL     C433178   3.988   4.068   7.289 -0.1364 -0.0854 -0.5754
   98MOL     C533179   4.080   4.131   7.374 -0.7675  0.3489  0.3258
   98MOL     O633180   4.204   4.075   7.402 -0.2885  0.4033  0.2328
   98MOL     C733181   4.044   4.253   7.436  0.2322  0.0612  0.4379
   98MOL     C833182   3.920   4.311   7.412 -1.2200  0.2207  0.1088
   98MOL     C933183   3.642   4.349   7.183 -0.2095  0.8915  0.6040
   98MOL    H1033184   3.616   4.243   7.375  0.5194  0.1147  0.9596
   98MOL    H1133185   3.789   4.056   7.224  0.8606 -1.0524  1.0046
   98MOL    H1233186   4.010   3.973   7.242 -1.0902 -0.1976 -0.8079
   98MOL    H1333187   4.254   4.151   7.426 -1.9017  1.5021  0.1833
   98MOL    H1433188   4.118   4.310   7.490  1.4961  0.0361 -1.2204
   98MOL    H1533189   3.905   4.406   7.461  0.8767 -0.4555  2.1097
   98MOL    H1633190   3.658   4.279   7.101  2.0415  0.9014  1.0049
   98MOL    H1733191   3.704   4.431   7.148  0.5124  0.1344  0.1027
   98MOL    H1833192   3.682   4.392   7.390 -0.5792 -0.8422  1.5583
   98MOL    C1933193   3.495   4.397   7.186  0.5930 -0.0788  0.0014
   98MOL    C2033194   3.400   4.293   7.248 -0.5409 -0.4959  0.5687
   98MOL    C2133195   3.314   4.327   7.353  0.4580 -0.6068  0.7770
   98MOL    C2233196   3.256   4.223   7.435 -0.0561 -0.1916  0.3556
   98MOL    C2333197   3.268   4.085   7.399  0.5076 -0.0711  0.3628
   98MOL    O2433198   3.208   3.981   7.463 -0.0936 -0.1570 -0.2400
   98MOL    C2533199   3.347   4.054   7.285  0.0788 -0.2682 -0.5708
   98MOL    C2633200   3.414   4.155   7.209  0.3739 -0.2375 -0.4586
   98MOL    C2733201   3.439   4.452   7.051  0.1096 -0.0102 -0.1043
   98MOL    H2833202   3.498   4.476   7.262  0.5485 -0.8861  0.8479
   98MOL    H2933203   3.303   4.432   7.378 -2.6299 -0.6611 -0.0550
   98MOL    H3033204   3.191   4.249   7.517  0.2179  4.2510 -0.7097
   98MOL    H3133205   3.132   4.006   7.513  2.4026  1.3033  2.9060
   98MOL    H3233206   3.375   3.954   7.256 -1.0311 -0.7744  0.0845
   98MOL    H3333207   3.476   4.133   7.124  0.3066  0.7606 -0.7708
   98MOL    H3433208   3.331   4.467   7.057  0.2402  1.2577 -0.7812
   98MOL    H3533209   3.452   4.371   6.980 -0.6591  0.5224 -0.8541
   98MOL    C3633210   3.496   4.590   7.018 -0.3681  0.7002 -0.0896
   98MOL    C3733211   3.520   4.692   7.131  0.4554 -1.0207 -0.1320
   98MOL    C3833212   3.646   4.706   7.194 -0.0431  0.2442 -0.7680
   98MOL    C3933213   3.657   4.781   7.314 -0.0867  0.9165 -0.2553
   98MOL    C4033214   3.542   4.841   7.372  0.2137 -0.7324  0.7143
   98MOL    O4133215   3.549   4.889   7.500 -0.1852  0.4885  0.0343
   98MOL    C4233216   3.422   4.833   7.302 -0.1126 -0.1343 -0.1373
   98MOL    C4333217   3.410   4.757   7.189 -0.0290 -0.3555 -0.0677
   98MOL    C4433218   3.426   4.660   6.897  0.4071 -0.4186  0.5123
   98MOL    H4533219   3.595   4.553   6.989 -0.1395 -0.0459  1.5508
   98MOL    H4633220   3.733   4.662   7.148  0.2498 -1.6075  1.4362
   98MOL    H4733221   3.759   4.779   7.348 -0.3743  0.5200  0.5982
   98MOL    H4833222   3.467   4.903   7.546 -0.1164 -0.0880  0.3473
   98MOL    H4933223   3.330   4.876   7.339 -0.8591  0.4476 -2.5743
   98MOL    H5033224   3.312   4.745   7.145 -0.1730  1.2704 -0.2192
   98MOL    H5133225   3.376   4.580   6.842 -0.6150  0.7495 -0.3024
   98MOL    H5233226   3.336   4.713   6.928 -0.8667 -3.1020  1.5880
   98MOL    C5333227   3.513   4.739   6.797  0.3453 -0.3349 -0.2516
   98MOL    C5433228   3.549   4.655   6.680  0.5765  0.8594  0.4424
   98MOL    C5533229   3.452   4.590   6.599  0.1795 -0.2622 -0.6483
   98MOL    C5633230   3.488   4.498   6.501  0.5590 -0.5276  1.1824
   98MOL    C5733231   3.620   4.472   6.472  0.8405  0.3736  0.2549
   98MOL    O5833232   3.664   4.387   6.373  0.3601 -0.7927 -0.2016
   98MOL    C5933233   3.717   4.548   6.535 -0.3694  0.7949  0.3673
   98MOL    C6033234   3.685   4.640   6.638 -0.8273 -0.0540 -0.4145
   98MOL    C6133235   3.462   4.886   6.778  0.7423  0.0287 -0.3894
   98MOL    H6233236   3.609   4.758   6.844  0.4852  0.8626 -0.9765
   98MOL    H6333237   3.347   4.597   6.625  0.1054  0.6591 -1.1699
   98MOL    H6433238   3.412   4.439   6.452  0.0129 -0.1492  1.5579
   98MOL    H6533239   3.755   4.402   6.355  0.3341 -0.6754 -0.2322
   98MOL    H6633240   3.819   4.544   6.497  0.7739 -1.3568  3.4770
   98MOL    H6733241   3.767   4.695   6.682 -0.2763 -0.6314 -0.7194
   98MOL    H6833242   3.482   4.930   6.876 -0.5351 -0.0942 -0.0688
   98MOL    H6933243   3.357   4.889   6.749  1.0434 -1.2653 -1.6562
   98MOL    C7033244   3.541   4.963   6.672 -0.1011 -0.1856 -0.0956
   98MOL    C7133245   3.586   5.108   6.713  0.5271 -0.3624 -0.0053
   98MOL    C7233246   3.491   5.202   6.749 -0.8838 -0.1550 -0.5564
   98MOL    C7333247   3.521   5.335   6.791 -0.1338  0.0083  0.3852
   98MOL    C7433248   3.658   5.368   6.803 -0.5134 -0.0372 -0.0933
   98MOL    O7533249   3.699   5.489   6.849  0.1259 -0.2673 -0.2017
   98MOL    C7633250   3.757   5.274   6.779  0.4594  0.0374  0.7502
   98MOL    C7733251   3.722   5.146   6.735 -0.4591  0.2998  0.2177
   98MOL    C7833252   3.477   4.961   6.530 -0.2976 -0.2044 -0.3314
   98MOL    H7933253   3.630   4.902   6.662 -0.1934 -0.5783  1.3175
   98MOL    H8033254   3.386   5.178   6.745 -1.0186  0.6078 -1.8280
   98MOL    H8133255   3.440   5.400   6.821  0.5251  0.6581  0.7614
   98MOL    H8233256   3.791   5.503   6.833  0.3071  0.0462  1.0935
   98MOL    H8333257   3.863   5.291   6.794  0.8060 -2.0810  0.8624
   98MOL    H8433258   3.794   5.071   6.706 -0.9953 -0.4714  0.8527
   98MOL    H8533259   3.408   5.045   6.519 -0.9717 -0.4236  2.0523
   98MOL    H8633260   3.419   4.870   6.517  1.0219 -0.6943 -3.0779
   98MOL    C8733261   3.575   4.955   6.411  1.0265 -0.9133  0.2106
   98MOL    C8833262   3.667   5.076   6.422  0.0666 -0.4443  0.5495
   98MOL    C8933263   3.615   5.207   6.395  0.0400 -0.8726  0.5420
   98MOL    C9033264   3.711   5.315   6.386 -0.1319  0.0937  0.1758
   98MOL    C9133265   3.846   5.292   6.405 -0.0827 -0.7940  0.8183
   98MOL    O9233266   3.938   5.395   6.397  0.6254 -0.3637  0.9312
   98MOL    C9333267   3.892   5.163   6.433  0.2310 -0.2075  0.7749
   98MOL    C9433268   3.804   5.058   6.446  0.8730  0.3133 -0.2860
   98MOL    C9533269   3.516   4.939   6.270  0.1467 -0.8643 -0.1913
   98MOL    H9633270   3.632   4.864   6.430 -1.3643 -2.2995  0.9696
   98MOL    H9733271   3.511   5.227   6.375  0.5379  0.3398 -0.9522
   98MOL    H9833272   3.687   5.416   6.357  0.1085 -0.3620 -1.6917
   98MOL    H9933273   3.893   5.477   6.398  2.5203  0.7407 -0.4946
   98MOL   H10033274   3.999   5.154   6.436  0.2711 -0.2814 -0.4832
   98MOL   H10133275   3.840   4.957   6.459 -1.2277 -0.3016  1.0309
   98MOL   H10233276   3.407   4.940   6.278  0.2095 -1.6860  1.0152
   98MOL   H10333277   3.530   5.014   6.193  3.1370 -1.0998  0.0936
   98MOL   C10433278   3.555   4.814   6.193  0.3275 -0.3711 -0.2365
   98MOL   C10533279   3.702   4.782   6.173 -0.5217 -0.7242 -0.9369
   98MOL   C10633280   3.755   4.651   6.158 -0.4090 -0.1928 -0.0011
   98MOL   C10733281   3.896   4.615   6.138  0.0995 -0.0864 -0.1994
   98MOL   C10833282   3.986   4.719   6.155 -0.1000 -0.2483  0.0300
   98MOL   O10933283   4.123   4.700   6.148 -0.3346  0.1266 -0.1271
   98MOL   C11033284   3.932   4.854   6.163 -0.6824 -0.0640 -0.2731
   98MOL   C11133285   3.799   4.884   6.159  0.4619  0.2554 -0.1474
   98MOL   C11233286   3.493   4.802   6.054  0.3404  0.6672  0.0354
   98MOL   H11333287   3.518   4.735   6.258 -1.1333 -1.1013 -1.8922
   98MOL   H11433288   3.692   4.565   6.140  1.4928 -1.9850  1.5689
   98MOL   H11533289   3.929   4.513   6.127 -0.1844 -0.2962  0.8675
   98MOL   H11633290   4.180   4.776   6.153  0.6423 -0.6595  0.9367
   98MOL   H11733291   3.993   4.941   6.145  0.3727 -0.5516  0.8341
   98MOL   H11833292   3.768   4.987   6.163  0.7131  0.3309 -0.1011
   98MOL   H11933293   3.567   4.816   5.976  1.7234 -0.1795  1.1747
   98MOL   H12033294   3.422   4.883   6.033 -0.3520 -0.1261 -0.7181
   98MOL   C12133295   3.414   4.665   6.031  0.3178 -0.3176 -0.3431
   98MOL   C12233296   3.289   4.667   6.116 -0.0034 -0.8889 -0.8570
   98MOL   C12333297   3.265   4.556   6.201  0.2573  0.2670 -0.2087
   98MOL   C12433298   3.142   4.545   6.263  0.0771  0.3926  1.1334
   98MOL   C12533299   3.038   4.637   6.258 -0.1967  0.6205  0.6496
   98MOL   O12633300   2.924   4.610   6.329 -0.1163  0.1044  0.3028
   98MOL   C12733301   3.065   4.752   6.180 -0.4112  0.1036  0.5532
   98MOL   C12833302   3.182   4.766   6.106  0.2347  0.4419  0.1873
   98MOL   C12933303   3.376   4.655   5.883 -1.1870 -0.3200  0.4774
   98MOL   H13033304   3.493   4.595   6.057  0.8361  0.2260 -0.4332
   98MOL   H13133305   3.344   4.483   6.207 -1.6455 -1.7036  1.4985
   98MOL   H13233306   3.124   4.459   6.325 -1.0644 -0.1578  0.0462
   98MOL   H13333307   2.860   4.669   6.293  0.4366  0.4982 -0.0460
   98MOL   H13433308   2.996   4.835   6.177  0.0237  0.5830  2.9514
   98MOL   H13533309   3.184   4.847   6.034 -0.7040 -1.0956 -1.6178
   98MOL   H13633310   3.456   4.686   5.816 -2.7839 -1.1250 -1.8707
   98MOL   H13733311   3.296   4.724   5.855  0.4755  2.0590  1.5029
   98MOL   C13833312   3.337   4.506   5.839 -0.4043 -0.0096 -0.5552
   98MOL   C13933313   3.451   4.412   5.843  0.9816  0.5611 -0.1987
   98MOL   C14033314   3.579   4.439   5.787  0.1099 -0.0287 -0.0352
   98MOL   C14133315   3.683   4.344   5.796 -0.3647  0.5363  0.4056
   98MOL   C14233316   3.653   4.222   5.857 -0.0534  0.2924  0.2942
   98MOL   O14333317   3.759   4.140   5.871  0.5077 -0.3432  0.3054
   98MOL   C14433318   3.525   4.193   5.909  0.7660  0.2762  0.3336
   98MOL   C14533319   3.426   4.289   5.913 -0.2314  0.4333 -0.2999
   98MOL   C14633320   3.264   4.497   5.701  0.1189  0.2612  0.2756
   98MOL   H14733321   3.263   4.472   5.911 -0.4531  0.7567 -0.2444
   98MOL   H14833322   3.597   4.539   5.751 -0.6761 -0.2640 -1.1055
   98MOL   H14933323   3.783   4.366   5.762 -0.9406 -0.5502 -2.1133
   98MOL   H15033324   3.829   4.171   5.815 -0.7816  0.1227 -1.0907
   98MOL   H15133325   3.500   4.097   5.952  0.8661  0.8099  1.6167
   98MOL   H15233326   3.327   4.257   5.940 -0.8571 -0.0755 -3.0004
   98MOL   H15333327   3.160   4.531   5.706 -0.4913 -1.7054  1.5957
   98MOL   H15433328   3.253   4.390   5.683 -2.5188  0.6745 -0.7104
   98MOL   C15533329   3.339   4.566   5.586  0.5568  0.4835 -0.2345
   98MOL   C15633330   3.298   4.706   5.569 -0.1420 -0.3789 -0.0926
   98MOL   C15733331   3.388   4.818   5.571 -0.0226  1.0541  0.3038
   98MOL   C15833332   3.342   4.940   5.533  0.0633  0.6209  0.0176
   98MOL   C15933333   3.207   4.974   5.514  0.0610 -0.4428 -0.3169
   98MOL   O16033334   3.180   5.097   5.481 -0.3877  0.2941 -0.1197
   98MOL   C16133335   3.117   4.869   5.530 -0.3166 -0.4174  0.1621
   98MOL   C16233336   3.160   4.731   5.556  0.6640  0.4000  0.5074
   98MOL   C16333337   3.315   4.482   5.459 -0.3951 -0.3280 -0.6634
   98MOL   H16433338   3.447   4.574   5.597  0.5794 -0.3321  0.1377
   98MOL   H16533339   3.495   4.810   5.589 -0.0631  1.4960  0.7489
   98MOL   H16633340   3.415   5.020   5.527  0.6518  0.2373  1.9201
   98MOL   H16733341   3.254   5.146   5.449 -0.3940 -0.0566 -0.6761
   98MOL   H16833342   3.015   4.895   5.505 -0.5133 -2.0521 -0.8324
   98MOL   H16933343   3.089   4.653   5.576  1.0981  0.4334  2.2318
   98MOL   H17033344   3.209   4.476   5.434 -1.1455  0.8997  2.0447
   98MOL   H17133345   3.347   4.381   5.487  1.4124  0.0491 -1.3437
   98MOL   C17233346   3.405   4.512   5.334 -0.2293 -0.2221 -0.6540
   98MOL   C17333347   3.333   4.503   5.200 -0.0022  0.3111 -0.5806
   98MOL   C17433348   3.279   4.380   5.157  0.5253  0.2451 -0.6213
   98MOL   C17533349   3.215   4.368   5.031  0.0621 -0.2264 -1.1219
   98MOL   C17633350   3.202   4.484   4.955  0.2122  0.1683  0.3689
   98MOL   O17733351   3.131   4.474   4.840 -0.7097 -0.5078 -0.6710
   98MOL   C17833352   3.247   4.608   5.001  0.0443 -0.2729 -0.0271
   98MOL   C17933353   3.314   4.618   5.123  0.2812  0.5149  0.2310
   98MOL   C18033354   3.545   4.449   5.331 -0.0182 -0.0233  0.1269
   98MOL   H18133355   3.425   4.619   5.346  1.6771 -0.7467  1.1020
   98MOL   H18233356   3.270   4.298   5.226 -0.1032  0.0867 -0.8844
   98MOL   H18333357   3.180   4.270   5.002  1.0935 -0.0116 -3.1500
   98MOL   H18433358   3.130   4.390   4.797  0.1442  0.3472 -2.3961
   98MOL   H18533359   3.228   4.700   4.948  0.5916  0.8838  1.7423
   98MOL   H18633360   3.354   4.710   5.165 -0.2897  0.2059  1.4683
   98MOL   H18733361   3.538   4.341   5.327  0.3644 -0.0645  0.4958
   98MOL   H18833362   3.597   4.469   5.425 -3.1855 -0.7485  2.1251
   98MOL   C18933363   3.629   4.501   5.212  0.5093 -0.6395 -0.5044
   98MOL   C19033364   3.641   4.653   5.201 -0.6358 -0.0162  0.0403
   98MOL   C19133365   3.688   4.729   5.314 -0.4054  0.2063 -0.7081
   98MOL   C19233366   3.694   4.873   5.311  0.5630  0.2393  0.0997
   98MOL   C19333367   3.651   4.938   5.187 -0.2741 -0.3674 -0.0908
   98MOL   O19433368   3.639   5.078   5.185 -0.2284  0.0433  0.4184
   98MOL   C19533369   3.595   4.863   5.085  0.2574 -0.5316 -0.5649
   98MOL   C19633370   3.598   4.721   5.088  0.2601  0.1367  0.5193
   98MOL   C19733371   3.771   4.441   5.211 -0.3206  0.1583  0.3780
   98MOL   H19833372   3.579   4.462   5.123  1.8122 -1.2527 -0.9902
   98MOL   H19933373   3.699   4.681   5.410 -0.4557 -0.3610 -0.9826
   98MOL   H20033374   3.733   4.926   5.396  0.2720 -2.6531  2.1126
   98MOL   H20133375   3.671   5.095   5.097 -0.1339 -2.2381 -0.0100
   98MOL   H20233376   3.537   4.908   5.005 -2.7187 -0.6106  1.4780
   98MOL   H20333377   3.557   4.664   5.006  0.7020  1.0410 -0.3394
   98MOL   H20433378   3.781   4.349   5.269  0.0304  2.0630  3.4728
   98MOL   H20533379   3.837   4.498   5.277 -2.4147  3.3997 -0.1948
   98MOL   C20633380   3.833   4.436   5.076  0.0111 -0.2583  0.0067
   98MOL   C20733381   3.767   4.357   4.965  0.5791  0.1716  0.1093
   98MOL   C20833382   3.765   4.404   4.825  0.2568  0.5565  0.5940
   98MOL   C20933383   3.714   4.320   4.723 -0.4688  0.0988  0.4002
   98MOL   C21033384   3.650   4.194   4.754  0.0974  0.6424 -0.2259
   98MOL   O21133385   3.595   4.123   4.648  1.0060 -0.4296 -0.1583
   98MOL   C21233386   3.648   4.146   4.888  0.0006  0.2286  0.4551
   98MOL   C21333387   3.699   4.231   4.993 -0.3064  0.2889 -0.0228
   98MOL   C21433388   3.986   4.395   5.081  0.3255  0.7009  0.3685
   98MOL   H21533389   3.827   4.534   5.028 -2.5570 -1.2170 -1.6953
   98MOL   H21633390   3.814   4.498   4.805  2.3703 -0.4030  1.1425
   98MOL   H21733391   3.719   4.358   4.622 -2.1230 -0.7755 -0.0356
   98MOL   H21833392   3.649   4.047   4.636 -0.3721 -1.6409  1.0808
   98MOL   H21933393   3.599   4.056   4.923  1.5174  0.2682  2.8282
   98MOL   H22033394   3.701   4.203   5.097  3.2812 -0.7326 -0.3181
   98MOL   H22133395   4.021   4.367   4.982  1.3172 -0.4208  1.0196
   98MOL   H22233396   4.003   4.308   5.145  2.8436  1.9849  1.5018
   98MOL   C22333397   4.076   4.512   5.119  0.1983  0.1102  0.3128
   98MOL   C22433398   4.053   4.639   5.050  0.1639  0.4891 -0.3983
   98MOL   C22533399   4.031   4.758   5.126 -0.1212  0.1790 -0.1417
   98MOL   C22633400   4.006   4.883   5.057 -0.4076 -0.2042 -0.1516
   98MOL   C22733401   4.001   4.890   4.912 -0.1649 -0.3742  0.4293
   98MOL   O22833402   3.974   5.011   4.851  0.1190 -0.0269 -0.1705
   98MOL   C22933403   4.033   4.771   4.846  0.5362 -0.5342 -0.0385
   98MOL   C23033404   4.051   4.650   4.914 -0.7558  0.4425 -0.2340
   98MOL   C23133405   4.228   4.475   5.105 -0.6565  0.5219  0.2956
   98MOL   H23233406   4.060   4.541   5.223 -0.1934  0.1441  0.2431
   98MOL   H23333407   4.032   4.754   5.234  2.3926  1.5244 -0.0678
   98MOL   H23433408   3.990   4.971   5.117  0.9413 -0.1101  0.0892
   98MOL   H23533409   3.967   5.005   4.757 -0.3189 -3.0867  0.0148
   98MOL   H23633410   4.044   4.766   4.739  1.2684 -0.3878  0.0323
   98MOL   H23733411   4.072   4.560   4.857  2.2641  0.1393  1.2771
   98MOL   H23833412   4.250   4.400   5.181  1.4441 -0.1923 -0.9676
   98MOL   H23933413   4.244   4.415   5.016  0.3101  1.7576 -0.3813
   98MOL   C24033414   4.338   4.585   5.109 -0.0807 -0.1963  0.5015
   98MOL   C24133415   4.348   4.668   5.242 -0.1347 -0.8095  0.3364
   98MOL   C24233416   4.327   4.804   5.239  0.4297  0.6449 -0.2977
   98MOL   C24333417   4.329   4.883   5.360 -0.2858  0.4004  0.9160
   98MOL   C24433418   4.364   4.824   5.481  0.3348 -0.5112  0.1214
   98MOL   O24533419   4.367   4.902   5.598 -0.3107 -0.3694  0.3273
   98MOL   C24633420   4.389   4.684   5.478 -0.6327 -0.0935 -0.0968
   98MOL   C24733421   4.369   4.608   5.364 -0.0832 -0.3737  0.1099
   98MOL   C24833422   4.466   4.531   5.058  0.0515 -0.0948  0.6171
   98MOL   H24933423   4.305   4.658   5.034  2.7801  0.5660 -0.0619
   98MOL   H25033424   4.295   4.846   5.145  0.4817  0.6701 -0.3037
   98MOL   H25133425   4.293   4.985   5.355 -0.5688  0.2538 -0.2177
   98MOL   H25233426   4.327   4.853   5.669  1.0342 -3.2876 -0.8443
   98MOL   H25333427   4.421   4.641   5.572  0.0863  1.3591  0.3557
   98MOL   H25433428   4.378   4.501   5.377  2.2628 -0.2892 -0.4220
   98MOL   H25533429   4.472   4.440   5.118 -0.2710 -0.5476 -0.0294
   98MOL   H25633430   4.451   4.494   4.956 -0.4587 -0.6403  0.8847
   98MOL   C25733431   4.598   4.613   5.078  0.2735  0.4692  0.4455
   98MOL   C25833432   4.723   4.527   5.090 -0.5073 -0.5711  0.4195
   98MOL   C25933433   4.717   4.419   5.186  0.0769 -0.3121  0.2400
   98MOL   C26033434   4.825   4.334   5.203 -0.6532 -0.0024  0.3527
   98MOL   C26133435   4.933   4.339   5.109 -0.5669 -0.2803  0.1053
   98MOL   O26233436   5.036   4.259   5.124  0.0807 -0.2824 -0.2732
   98MOL   C26333437   4.935   4.438   5.005  0.2607 -0.7141 -1.2237
   98MOL   C26433438   4.830   4.528   4.999 -0.4614 -0.0711 -0.1041
   98MOL   C26533439   4.599   4.727   4.978 -0.7581  0.1558  0.3835
   98MOL   H26633440   4.609   4.654   5.179  1.5477 -0.5224  0.7186
   98MOL   H26733441   4.634   4.397   5.252  0.1881 -2.1578 -0.2314
   98MOL   H26833442   4.823   4.267   5.288 -0.1679 -0.3212  0.1082
   98MOL   H26933443   5.015   4.193   5.188 -1.1340  2.3267  2.1182
   98MOL   H27033444   5.019   4.440   4.937  0.9648  2.3357 -0.3406
   98MOL   H27133445   4.845   4.607   4.927  0.6518 -2.0086 -2.0376
   98MOL   H27233446   4.499   4.732   4.937 -0.2136  2.4193 -0.7497
   98MOL   H27333447   4.662   4.706   4.892  0.9128 -1.2712  1.8942
   98MOL   C27433448   4.632   4.865   5.039  0.1238 -0.4810  0.5644
   98MOL   C27533449   4.576   4.975   4.948  0.0559  0.4533 -0.0466
   98MOL   C27633450   4.468   5.055   4.986 -0.2568  0.2542  0.3922
   98MOL   C27733451   4.391   5.127   4.898 -0.2952 -0.1209  0.1000
   98MOL   C27833452   4.430   5.139   4.766  0.3374  0.2800  0.5706
   98MOL   O27933453   4.345   5.191   4.670 -0.0556 -0.1981 -0.3258
   98MOL   C28033454   4.547   5.075   4.723 -0.6302 -0.4950 -0.0451
   98MOL   C28133455   4.619   4.989   4.812  0.2601 -0.1642  0.7299
   98MOL   C28233456   4.779   4.886   5.066 -0.4490 -0.8386 -0.2872
   98MOL   H28333457   4.591   4.875   5.140  2.3055 -1.6426  1.6174
   98MOL   H28433458   4.446   5.061   5.092  2.1891 -0.0875  0.9488
   98MOL   H28533459   4.297   5.167   4.934 -0.5796 -0.8813  0.2244
   98MOL   H28633460   4.269   5.223   4.717  1.5773  1.8606  0.9981
   98MOL   H28733461   4.576   5.098   4.621 -0.5917  0.6860  0.2184
   98MOL   H28833462   4.708   4.936   4.779  0.1058  0.6220 -0.9885
   98MOL   H28933463   4.807   4.787   5.101  0.6425  0.1296  1.6729
   98MOL   H29033464   4.835   4.904   4.975  1.2696 -2.5030  0.4019
   98MOL   C29133465   4.829   4.985   5.180  0.2611 -0.1930 -0.1668
   98MOL   C29233466   4.820   5.130   5.139  0.1961 -0.4833  0.3000
   98MOL   C29333467   4.873   5.179   5.020 -0.8312  0.2326 -0.0680
   98MOL   C29433468   4.868   5.319   4.993  0.3870 -0.1097 -0.3313
   98MOL   C29533469   4.806   5.398   5.095  0.0983  0.1756  0.0158
   98MOL   O29633470   4.799   5.535   5.079 -0.5793  0.6764 -0.2143
   98MOL   C29733471   4.773   5.349   5.222  1.0887 -0.0085  0.0112
   98MOL   C29833472   4.785   5.213   5.243  0.4818  0.7235 -0.2473
   98MOL   C29933473   4.973   4.948   5.215  0.0411  0.5562  0.3330
   98MOL   H30033474   4.768   4.970   5.269  0.3467  3.0057  0.4900
   98MOL   H30133475   4.907   5.113   4.941  1.0105 -0.4887  1.2766
   98MOL   H30233476   4.896   5.368   4.900  3.5601  0.7971  1.0144
   98MOL   H30333477   4.781   5.567   4.992 -2.4704 -1.9911 -0.8477
   98MOL   H30433478   4.736   5.419   5.295  2.6545  0.9046 -0.0278
   98MOL   H30533479   4.759   5.167   5.337  2.8594  1.0118  0.5782
   98MOL   H30633480   5.008   5.028   5.280  1.9487 -0.3183  0.4241
   98MOL   H30733481   5.049   4.954   5.136 -0.3834 -0.3246 -0.1505
   98MOL   C30833482   5.005   4.804   5.284 -0.0049  0.0168 -0.3381
   98MOL   C30933483   4.913   4.781   5.414  0.0573  0.5065  0.0494
   98MOL   C31033484   4.831   4.667   5.433  0.0917 -0.0311 -0.5117
   98MOL   C31133485   4.747   4.653   5.545  0.1476 -0.3286  0.1932
   98MOL   C31233486   4.749   4.755   5.640 -0.5575 -0.1003 -0.7049
   98MOL   O31333487   4.659   4.756   5.746 -0.4785 -0.4955  0.1198
   98MOL   C31433488   4.836   4.866   5.628 -0.3319  0.4004 -0.7146
   98MOL   C31533489   4.921   4.877   5.518 -0.3818  0.0592  0.7642
   98MOL   C31633490   5.154   4.797   5.322 -0.1280 -0.0301  0.2162
   98MOL   H31733491   4.982   4.732   5.206  0.0259  0.0716 -0.3975
   98MOL   H31833492   4.822   4.592   5.356 -3.7917 -0.1220 -0.0435
   98MOL   H31933493   4.678   4.570   5.554  1.9682 -1.9028  0.0218
   98MOL   H32033494   4.582   4.811   5.739 -0.9343 -1.3678 -2.1568
   98MOL   H32133495   4.834   4.940   5.706 -0.3473 -0.6429  0.2803
   98MOL   H32233496   4.987   4.963   5.516  0.1817 -0.3902 -0.3932
   98MOL   H32333497   5.186   4.886   5.377  1.0693 -1.5363  2.0100
   98MOL   H32433498   5.198   4.809   5.223  2.0904  0.2702  1.2256
   98MOL   C32533499   5.191   4.669   5.397 -0.2767 -0.2829  0.6580
   98MOL   C32633500   5.314   4.694   5.479  0.3052 -0.2524  0.0054
   98MOL   C32733501   5.309   4.703   5.617 -0.5023  0.2031  0.2946
   98MOL   C32833502   5.424   4.730   5.690  0.3278  0.5439  0.5367
   98MOL   C32933503   5.544   4.759   5.619  0.0315 -0.9205  0.1057
   98MOL   O33033504   5.653   4.802   5.688 -0.2241 -0.3738 -0.1844
   98MOL   C33133505   5.553   4.744   5.480 -0.4025 -0.6500  0.2219
   98MOL   C33233506   5.433   4.709   5.412 -0.7865 -0.7856  0.0046
   98MOL   C33333507   5.193   4.552   5.297 -0.1964 -0.1486 -0.1435
   98MOL   H33433508   5.111   4.650   5.469 -1.7993  0.8967 -0.6796
   98MOL   H33533509   5.217   4.681   5.669 -0.0740  0.8849  1.3578
   98MOL   H33633510   5.423   4.725   5.797 -0.3698 -0.6060  0.4896
   98MOL   H33733511   5.643   4.872   5.750 -0.7207 -1.9836  1.6144
   98MOL   H33833512   5.646   4.758   5.428  0.3603 -1.4133  1.3693
   98MOL   H33933513   5.448   4.688   5.308 -0.6654  2.4080 -0.6822
   98MOL   H34033514   5.242   4.579   5.203 -1.1415 -1.6619 -1.1058
   98MOL   H34133515   5.088   4.537   5.274 -1.2604  2.6367  2.6685
   98MOL   H34233516   5.236   4.462   5.342 -2.8473  0.8278  4.6551
   99MOL     C133517   2.153   4.108   6.968  0.1686  0.1482  0.2818
   99MOL     C233518   2.258   4.018   6.907  0.6559  0.2845 -0.8196
   99MOL     C333519   2.252   3.879   6.928  0.4950  0.2796 -0.1511
   99MOL     C433520   2.354   3.798   6.866 -0.0037 -0.0885 -0.2300
   99MOL     C533521   2.455   3.862   6.793 -0.3535 -0.1935  0.0568
   99MOL     O633522   2.550   3.780   6.741  0.2737  0.0324  0.4802
   99MOL     C733523   2.463   4.000   6.773  0.6424 -0.1326 -0.0024
   99MOL     C833524   2.359   4.073   6.828 -0.6760 -0.1825 -0.1147
   99MOL     C933525   2.020   4.114   6.891  0.0702 -1.0152  0.2472
   99MOL    H1033526   2.133   4.072   7.069  1.4500 -1.1086  0.1043
   99MOL    H1133527   2.174   3.837   6.990  2.0388 -1.5586  0.6191
   99MOL    H1233528   2.334   3.692   6.872 -1.2276  0.0958 -0.8314
   99MOL    H1333529   2.536   3.691   6.712  0.2017  0.5239 -1.0289
   99MOL    H1433530   2.541   4.043   6.711  0.3636 -0.1301 -0.3549
   99MOL    H1533531   2.357   4.178   6.803  1.5328  0.0675  0.5859
   99MOL    H1633532   1.983   4.014   6.869 -1.5661 -0.4773  0.4719
   99MOL    H1733533   2.040   4.157   6.793 -0.0420  0.1677  0.7435
   99MOL    H1833534   2.186   4.211   6.974 -0.0169  0.3421 -1.7595
   99MOL    C1933535   1.914   4.199   6.969  0.0550 -0.7909  0.7261
   99MOL    C2033536   1.851   4.151   7.103  0.0808 -0.9076 -0.1895
   99MOL    C2133537   1.860   4.020   7.150 -1.3521  0.5611 -0.0475
   99MOL    C2233538   1.786   3.988   7.268 -0.1593  0.9771 -0.1210
   99MOL    C2333539   1.712   4.086   7.338 -0.5061  0.6521  1.0838
   99MOL    O2433540   1.647   4.049   7.451 -0.6737  0.0881 -0.6323
   99MOL    C2533541   1.708   4.216   7.293 -0.3432 -0.0217 -0.1281
   99MOL    C2633542   1.782   4.250   7.177 -0.0387  0.8363  0.6791
   99MOL    C2733543   1.806   4.259   6.872  0.3707 -0.5523  0.2883
   99MOL    H2833544   1.965   4.293   6.984 -0.0035 -0.3543 -1.6042
   99MOL    H2933545   1.927   3.949   7.104  0.6546  3.1134 -1.2119
   99MOL    H3033546   1.790   3.886   7.304  1.1416  0.5830 -1.3258
   99MOL    H3133547   1.589   4.121   7.471 -1.5735 -0.4297 -1.3500
   99MOL    H3233548   1.651   4.292   7.344 -1.5572  0.5461 -2.2339
   99MOL    H3333549   1.787   4.353   7.146  1.5868  1.2945  2.4111
   99MOL    H3433550   1.846   4.301   6.780  0.6921  1.5145  1.3432
   99MOL    H3533551   1.773   4.346   6.929 -0.1530 -1.4737  1.4172
   99MOL    C3633552   1.692   4.166   6.823  0.3321 -0.3174  0.4509
   99MOL    C3733553   1.641   4.186   6.676  0.2644  0.0516 -0.8900
   99MOL    C3833554   1.579   4.300   6.632 -0.3749  0.7322 -0.2557
   99MOL    C3933555   1.546   4.320   6.498  0.7596  0.8864  0.8078
   99MOL    C4033556   1.558   4.217   6.407  0.4302  0.0595  0.0117
   99MOL    O4133557   1.515   4.221   6.277 -0.4388  0.4114  0.2122
   99MOL    C4233558   1.613   4.096   6.450  0.1924 -0.5450 -0.1680
   99MOL    C4333559   1.661   4.083   6.581 -0.5718 -0.3246  0.0711
   99MOL    C4433560   1.565   4.167   6.912  0.3109  0.2444 -0.7908
   99MOL    H4533561   1.734   4.066   6.824  0.4364 -0.2761  0.2302
   99MOL    H4633562   1.577   4.391   6.691 -0.3020  0.0568  0.8067
   99MOL    H4733563   1.508   4.416   6.466  1.7587  1.1583  0.4335
   99MOL    H4833564   1.435   4.270   6.260  0.2071  1.2962 -0.3187
   99MOL    H4933565   1.624   4.022   6.373  1.2564 -2.0813  1.4386
   99MOL    H5033566   1.704   3.987   6.605 -1.3248 -1.3513 -2.4720
   99MOL    H5133567   1.598   4.148   7.014  2.5898 -0.2733 -1.5953
   99MOL    H5233568   1.517   4.265   6.906 -0.0817  0.3647  3.1004
   99MOL    C5333569   1.463   4.056   6.875 -0.1051  0.1777 -0.2259
   99MOL    C5433570   1.523   3.917   6.877 -0.2104 -0.2816 -0.6152
   99MOL    C5533571   1.512   3.828   6.763  0.2838 -0.3359  0.4119
   99MOL    C5633572   1.580   3.702   6.761  0.4861  0.7791 -0.6161
   99MOL    C5733573   1.642   3.662   6.883 -0.1328 -0.2916 -0.9385
   99MOL    O5833574   1.687   3.534   6.897 -0.8449  0.6370  0.5335
   99MOL    C5933575   1.652   3.746   6.995  0.1094  0.5756  0.5020
   99MOL    C6033576   1.586   3.870   6.995  0.2045  0.2419  0.4512
   99MOL    C6133577   1.331   4.060   6.956  0.7598 -0.9989  0.6373
   99MOL    H6233578   1.443   4.064   6.768  2.8862  0.0208 -0.8386
   99MOL    H6333579   1.461   3.869   6.677 -2.3597  1.3187  2.7196
   99MOL    H6433580   1.559   3.627   6.686  0.2743 -0.0203  0.2328
   99MOL    H6533581   1.672   3.499   6.983 -0.6625  0.6135  0.5559
   99MOL    H6633582   1.705   3.709   7.081  1.2181  2.5630  0.6940
   99MOL    H6733583   1.592   3.935   7.081  0.5448 -0.3164  0.8594
   99MOL    H6833584   1.308   4.163   6.981  0.0309 -0.7657 -0.9334
   99MOL    H6933585   1.346   4.015   7.054 -0.4870  1.7857  2.1583
   99MOL    C7033586   1.207   3.996   6.893 -0.0437  0.1440 -0.2305
   99MOL    C7133587   1.180   4.034   6.748 -0.3795  0.0032 -0.4092
   99MOL    C7233588   1.230   4.155   6.691  0.1686 -0.0935  0.1117
   99MOL    C7333589   1.211   4.180   6.549  0.0261 -0.6958  0.5175
   99MOL    C7433590   1.141   4.089   6.471  0.1759 -0.5368  0.4212
   99MOL    O7533591   1.113   4.117   6.342  0.1879 -0.2668 -0.0091
   99MOL    C7633592   1.065   3.984   6.538 -0.2858  0.1482  0.3831
   99MOL    C7733593   1.103   3.948   6.669 -0.3709  0.4014 -0.9313
   99MOL    C7833594   1.081   4.012   6.982  0.1197  0.4340 -0.0219
   99MOL    H7933595   1.227   3.889   6.886 -0.4005  0.0944 -0.4588
   99MOL    H8033596   1.280   4.235   6.742 -0.1661  1.8787 -2.5211
   99MOL    H8133597   1.260   4.262   6.499 -0.0293 -0.8246  0.2507
   99MOL    H8233598   1.177   4.174   6.303 -1.2712  1.0960 -0.4604
   99MOL    H8333599   0.997   3.916   6.489  0.2832 -0.1623  0.0147
   99MOL    H8433600   1.067   3.853   6.705  2.0302  0.2726  1.3222
   99MOL    H8533601   1.113   3.995   7.085  1.4278  1.5453 -0.2242
   99MOL    H8633602   1.018   3.929   6.951  1.6322 -0.3442 -1.0629
   99MOL    C8733603   1.020   4.155   6.979 -0.4646  0.4925 -1.0942
   99MOL    C8833604   0.989   4.203   7.116 -0.2932  0.3466 -0.6538
   99MOL    C8933605   0.860   4.206   7.173  0.7777 -0.3165 -0.4230
   99MOL    C9033606   0.842   4.245   7.308  1.0059  0.1933 -0.2575
   99MOL    C9133607   0.949   4.296   7.381 -0.5907 -0.5183 -0.2159
   99MOL    O9233608   0.932   4.335   7.512  0.3846  0.7791  0.2082
   99MOL    C9333609   1.082   4.286   7.326 -0.5498  0.0657 -0.4851
   99MOL    C9433610   1.099   4.250   7.190 -0.7098 -1.0601 -1.0355
   99MOL    C9533611   0.897   4.159   6.888  0.1426 -0.7800 -0.1593
   99MOL    H9633612   1.099   4.216   6.935  2.1267 -1.8481  0.1302
   99MOL    H9733613   0.775   4.157   7.126  0.4361  1.0500 -1.2799
   99MOL    H9833614   0.744   4.238   7.352  0.3308 -0.1510 -1.7807
   99MOL    H9933615   1.010   4.360   7.558  1.1637 -1.8419  0.3553
   99MOL   H10033616   1.166   4.332   7.376 -1.4933  0.3351  0.8950
   99MOL   H10133617   1.198   4.260   7.149 -0.0498  0.7791  0.8641
   99MOL   H10233618   0.920   4.102   6.799  0.0556  2.1068 -2.0910
   99MOL   H10333619   0.819   4.095   6.929 -0.1734 -0.4345 -0.2198
   99MOL   C10433620   0.839   4.300   6.851  1.0229 -0.0510 -0.0483
   99MOL   C10533621   0.697   4.288   6.798 -0.1113 -0.5322  0.1777
   99MOL   C10633622   0.685   4.248   6.660  0.6769 -0.4416 -0.5236
   99MOL   C10733623   0.552   4.256   6.612  0.1021  0.3926  0.0862
   99MOL   C10833624   0.438   4.265   6.696  0.1891  0.2173  0.0006
   99MOL   O10933625   0.313   4.251   6.655  1.0484 -0.3663 -0.1103
   99MOL   C11033626   0.459   4.306   6.832  0.6656  0.0413 -0.2562
   99MOL   C11133627   0.590   4.323   6.882  0.4405  0.4231 -0.7243
   99MOL   C11233628   0.951   4.369   6.763  0.1665  0.7617  0.3869
   99MOL   H11333629   0.837   4.362   6.941 -0.1641  2.0342 -1.4441
   99MOL   H11433630   0.770   4.210   6.606  0.6693 -0.3582 -0.5937
   99MOL   H11533631   0.528   4.233   6.509 -0.1695  1.5811 -0.1256
   99MOL   H11633632   0.254   4.235   6.727  0.2411 -2.0901 -1.1311
   99MOL   H11733633   0.365   4.329   6.880 -0.1878  0.5578 -2.1478
   99MOL   H11833634   0.606   4.350   6.985  0.6043  1.3502 -0.9942
   99MOL   H11933635   0.909   4.369   6.663 -2.4758 -0.5269  1.4453
   99MOL   H12033636   1.048   4.321   6.761  1.0306  2.0814  4.4194
   99MOL   C12133637   0.983   4.518   6.808  0.1978  0.2014 -0.0065
   99MOL   C12233638   1.134   4.544   6.822  0.8414  0.6992 -0.3172
   99MOL   C12333639   1.187   4.589   6.943 -0.8968  0.2031 -0.0781
   99MOL   C12433640   1.321   4.622   6.953 -0.4386  0.2289  0.4026
   99MOL   C12533641   1.407   4.603   6.840 -0.5104  0.0123 -0.1146
   99MOL   O12633642   1.534   4.649   6.845 -0.2508 -0.1696  0.2709
   99MOL   C12733643   1.356   4.563   6.714 -0.0856  0.5256  0.7814
   99MOL   C12833644   1.217   4.536   6.708 -0.3317 -0.3968  0.7796
   99MOL   C12933645   0.907   4.623   6.716  0.1931  0.1309 -0.3027
   99MOL   H13033646   0.942   4.536   6.907 -1.1345 -0.5123 -0.4198
   99MOL   H13133647   1.119   4.608   7.024 -1.4415  1.3370 -0.7880
   99MOL   H13233648   1.362   4.661   7.045  0.7567 -0.7388  0.3031
   99MOL   H13333649   1.556   4.675   6.933 -0.4688 -0.7118  0.4906
   99MOL   H13433650   1.420   4.568   6.627 -0.0597 -0.5743  0.7318
   99MOL   H13533651   1.180   4.498   6.614  0.2354 -1.1164  0.8405
   99MOL   H13633652   0.864   4.573   6.630 -1.3174 -0.3592  0.7154
   99MOL   H13733653   0.973   4.702   6.681  2.2632 -0.6839  1.6724
   99MOL   C13833654   0.796   4.695   6.791  0.3668  0.3016  0.1301
   99MOL   C13933655   0.676   4.744   6.704 -0.4687  0.2073 -0.6249
   99MOL   C14033656   0.558   4.667   6.701  0.4122 -0.4436  0.2709
   99MOL   C14133657   0.444   4.720   6.636 -0.7803  0.2282  0.2813
   99MOL   C14233658   0.456   4.838   6.556  0.5265  0.1712 -0.0491
   99MOL   O14333659   0.344   4.895   6.502  0.0287  0.1726  0.2637
   99MOL   C14433660   0.576   4.905   6.548  0.0807 -0.7124 -0.4540
   99MOL   C14533661   0.686   4.863   6.628  0.3915  0.0699 -0.7117
   99MOL   C14633662   0.846   4.804   6.882 -0.1013 -0.5507  0.3235
   99MOL   H14733663   0.751   4.618   6.853  0.3851  1.1265  1.1705
   99MOL   H14833664   0.554   4.574   6.756 -0.8677 -0.6910 -0.2271
   99MOL   H14933665   0.353   4.663   6.650 -0.6544 -0.0959 -0.2293
   99MOL   H15033666   0.356   4.984   6.474  0.0325 -0.5404 -2.1529
   99MOL   H15133667   0.585   4.995   6.489 -0.8228  0.4789  1.1682
   99MOL   H15233668   0.783   4.911   6.625  0.6298 -0.3108  0.5614
   99MOL   H15333669   0.904   4.871   6.819  0.0827 -0.2441  0.8148
   99MOL   H15433670   0.915   4.766   6.957  0.8806 -0.1987 -0.3945
   99MOL   C15533671   0.740   4.888   6.959  0.0848 -0.4982  0.5284
   99MOL   C15633672   0.781   5.030   6.988 -0.1900  0.5020  0.3276
   99MOL   C15733673   0.688   5.136   7.010  0.3185  0.2041  0.4649
   99MOL   C15833674   0.734   5.266   7.031  0.5803  0.0548  0.1621
   99MOL   C15933675   0.874   5.291   7.027  0.2146 -0.4170  0.4024
   99MOL   O16033676   0.920   5.419   7.038 -0.2129 -0.1276  0.4127
   99MOL   C16133677   0.967   5.189   7.006  0.6344 -0.8306  0.5756
   99MOL   C16233678   0.922   5.059   6.988  0.3366 -0.2723  0.1485
   99MOL   C16333679   0.672   4.826   7.082 -0.5726  0.2772 -0.0097
   99MOL   H16433680   0.666   4.914   6.883  0.6157  0.0181  0.1821
   99MOL   H16533681   0.581   5.118   7.006 -0.0806  2.4738 -0.0500
   99MOL   H16633682   0.672   5.353   7.045  0.5984  0.2917 -1.2043
   99MOL   H16733683   0.851   5.483   7.050  0.9069  0.9993  1.0577
   99MOL   H16833684   1.073   5.206   6.992  0.0853 -0.2180 -3.3302
   99MOL   H16933685   0.999   4.983   6.979  0.2508 -0.4660  0.9855
   99MOL   H17033686   0.624   4.734   7.049 -0.1837  1.3346 -3.7720
   99MOL   H17133687   0.594   4.894   7.117 -1.1919 -0.3860 -0.0876
   99MOL   C17233688   0.764   4.776   7.191 -0.1166 -0.2135  0.3017
   99MOL   C17333689   0.687   4.703   7.300 -0.1031 -0.0380  0.3639
   99MOL   C17433690   0.728   4.570   7.327 -0.4250 -0.4769 -0.2353
   99MOL   C17533691   0.667   4.505   7.437  0.1426 -0.0006  0.2846
   99MOL   C17633692   0.570   4.568   7.507 -0.0170 -0.2444 -0.2771
   99MOL   O17733693   0.515   4.503   7.613  0.0620 -0.3110 -0.6185
   99MOL   C17833694   0.528   4.698   7.476  0.4006 -0.8819  0.4074
   99MOL   C17933695   0.583   4.765   7.367  1.0646 -0.0799  0.4825
   99MOL   C18033696   0.839   4.893   7.254 -0.4253 -0.3221  0.2702
   99MOL   H18133697   0.840   4.709   7.153 -0.8288 -0.1939 -1.1969
   99MOL   H18233698   0.813   4.531   7.273 -0.2193  1.9963 -1.7846
   99MOL   H18333699   0.700   4.409   7.473 -0.6689 -0.5940 -0.5480
   99MOL   H18433700   0.532   4.414   7.638  0.4232 -0.7232 -2.2616
   99MOL   H18533701   0.448   4.736   7.538  0.6289  1.1615 -0.5319
   99MOL   H18633702   0.547   4.858   7.328 -0.0650 -0.6724  0.1025
   99MOL   H18733703   0.765   4.971   7.270  0.7836  0.6451  1.2426
   99MOL   H18833704   0.915   4.938   7.191 -1.3010  0.5182 -0.1875
   99MOL   C18933705   0.916   4.875   7.387  0.0913 -0.0552  0.1358
   99MOL   C19033706   1.035   4.780   7.389 -0.1498 -0.2366  0.1253
   99MOL   C19133707   1.025   4.671   7.476  0.1383  1.0696  0.7107
   99MOL   C19233708   1.134   4.580   7.483  0.2865 -0.9985 -1.1227
   99MOL   C19333709   1.254   4.606   7.412  0.4203 -0.2494  0.2717
   99MOL   O19433710   1.359   4.526   7.428 -0.0023 -0.1154  0.5108
   99MOL   C19533711   1.254   4.707   7.307 -0.5465  0.4811 -0.0503
   99MOL   C19633712   1.149   4.802   7.308  0.1331  0.0598 -0.0768
   99MOL   C19733713   0.954   5.013   7.440 -0.0737 -0.2356 -0.0439
   99MOL   H19833714   0.836   4.838   7.451 -0.1392  0.7721  0.3425
   99MOL   H19933715   0.939   4.652   7.538 -0.7191 -0.8974 -1.0245
   99MOL   H20033716   1.134   4.496   7.552 -0.8736 -0.8690 -0.9596
   99MOL   H20133717   1.440   4.568   7.404 -0.2330 -0.6386 -1.2762
   99MOL   H20233718   1.348   4.739   7.264  0.8628 -0.0090  2.6209
   99MOL   H20333719   1.144   4.885   7.239 -2.1836  0.1310  0.1646
   99MOL   H20433720   0.878   5.086   7.413  0.6510  0.2578 -0.7596
   99MOL   H20533721   1.045   5.051   7.393  0.2115  2.3093  2.4345
   99MOL   C20633722   0.953   5.004   7.595 -0.5431 -0.6818  0.5196
   99MOL   C20733723   0.814   5.004   7.658 -0.5890 -0.2308  0.5377
   99MOL   C20833724   0.753   4.882   7.692 -0.3293  0.5387 -0.1611
   99MOL   C20933725   0.619   4.885   7.728  0.4966  0.0676  0.2242
   99MOL   C21033726   0.549   5.006   7.744 -0.0004  0.0550 -0.3507
   99MOL   O21133727   0.415   5.003   7.784  0.0578  0.2706 -0.9748
   99MOL   C21233728   0.611   5.127   7.702 -0.6010 -0.8129  0.1353
   99MOL   C21333729   0.744   5.126   7.663  0.6098  0.0626  0.5760
   99MOL   C21433730   1.040   5.118   7.654  0.6365  0.3264 -0.0935
   99MOL   H21533731   0.995   4.907   7.625  1.7311 -0.2620 -1.1375
   99MOL   H21633732   0.801   4.786   7.680  0.8423  1.2267 -1.1613
   99MOL   H21733733   0.575   4.792   7.760 -3.3599  2.2551  1.6889
   99MOL   H21833734   0.386   5.079   7.833 -2.7241 -0.4680 -1.3901
   99MOL   H21933735   0.564   5.224   7.710 -0.3336 -0.6504 -0.2451
   99MOL   H22033736   0.790   5.220   7.636  2.4827 -0.9451  0.1307
   99MOL   H22133737   1.019   5.138   7.759  1.6227  4.4243 -0.5870
   99MOL   H22233738   1.015   5.212   7.604  0.9385  1.2934  1.5287
   99MOL   C22333739   1.189   5.100   7.624  0.1286  0.1963 -0.3767
   99MOL   C22433740   1.254   4.979   7.693 -0.3478 -0.2899 -0.1874
   99MOL   C22533741   1.266   4.975   7.834  0.3531  0.0505  0.4147
   99MOL   C22633742   1.324   4.868   7.904 -0.1462  0.0268  0.3116
   99MOL   C22733743   1.388   4.765   7.836 -0.5600  0.5758 -0.4896
   99MOL   O22833744   1.462   4.670   7.901  0.0851  0.4326 -0.1497
   99MOL   C22933745   1.386   4.769   7.696  0.6904 -0.1867  0.8513
   99MOL   C23033746   1.324   4.879   7.624  0.3549 -0.1843  0.6688
   99MOL   C23133747   1.257   5.227   7.647 -0.4022  0.4491 -0.4358
   99MOL   H23233748   1.200   5.090   7.516  3.9082  1.7533 -0.2116
   99MOL   H23333749   1.205   5.050   7.882 -0.4862 -0.0927 -0.4148
   99MOL   H23433750   1.328   4.874   8.012 -1.5727  3.1114  0.2279
   99MOL   H23533751   1.460   4.663   7.995 -0.2703  1.9819 -0.0423
   99MOL   H23633752   1.438   4.692   7.641 -1.6766 -1.0522 -0.2570
   99MOL   H23733753   1.340   4.877   7.517 -1.3072  0.8703  0.3901
   99MOL   H23833754   1.200   5.301   7.591 -2.0534 -1.1526 -0.9154
   99MOL   H23933755   1.244   5.254   7.752  0.2498 -0.5717 -0.0884
   99MOL   C24033756   1.411   5.231   7.602  0.2029 -0.1912  1.0023
   99MOL   C24133757   1.420   5.184   7.458  0.5367  0.5863 -0.6148
   99MOL   C24233758   1.491   5.066   7.430  0.3892 -0.1235 -0.3089
   99MOL   C24333759   1.495   5.021   7.295 -0.5876  0.1257 -0.0177
   99MOL   C24433760   1.419   5.080   7.202  0.1386 -0.0779 -0.1031
   99MOL   O24533761   1.430   5.029   7.078  0.2282  0.1057 -0.3640
   99MOL   C24633762   1.343   5.194   7.226 -0.7265 -0.2817  0.8760
   99MOL   C24733763   1.347   5.250   7.357  0.8186 -0.5697  0.3520
   99MOL   C24833764   1.447   5.373   7.611 -0.5184 -0.1858 -0.1829
   99MOL   H24933765   1.467   5.173   7.676  0.8764 -1.1174 -0.2323
   99MOL   H25033766   1.553   5.024   7.508 -0.0759 -1.4151 -0.6251
   99MOL   H25133767   1.557   4.938   7.265 -0.6938  1.0203 -2.8477
   99MOL   H25233768   1.389   5.072   7.005  0.5101 -0.1761 -0.6877
   99MOL   H25333769   1.290   5.247   7.149 -2.6570 -0.8717  1.7570
   99MOL   H25433770   1.279   5.333   7.369  1.3336 -0.2680  1.2048
   99MOL   H25533771   1.386   5.436   7.547  0.7695  0.8710 -0.3970
   99MOL   H25633772   1.418   5.422   7.704  1.7947  0.4984  0.2196
   99MOL   C25733773   1.594   5.404   7.583 -0.2651 -0.2579  0.7958
   99MOL   C25833774   1.617   5.555   7.574 -0.1293 -0.2199 -0.0042
   99MOL   C25933775   1.592   5.635   7.690  0.0327  0.6440 -0.1221
   99MOL   C26033776   1.605   5.779   7.687 -1.2390 -0.5084 -0.2435
   99MOL   C26133777   1.637   5.840   7.562 -0.0075 -0.9739 -1.0300
   99MOL   O26233778   1.638   5.974   7.557  1.0335 -0.2400 -0.0941
   99MOL   C26333779   1.666   5.762   7.453 -0.3069  0.3819 -0.5638
   99MOL   C26433780   1.661   5.620   7.460 -0.0317  0.0660 -0.0424
   99MOL   C26533781   1.690   5.331   7.680  0.2920 -0.3697 -0.0731
   99MOL   H26633782   1.623   5.364   7.485 -1.1818 -2.2255  1.2874
   99MOL   H26733783   1.569   5.591   7.786  0.9211 -1.1019 -0.6916
   99MOL   H26833784   1.594   5.826   7.784 -0.2532  2.0816 -1.3458
   99MOL   H26933785   1.605   6.017   7.634 -0.9553  2.7638 -2.5226
   99MOL   H27033786   1.705   5.807   7.363  0.6493 -0.5651 -0.6312
   99MOL   H27133787   1.698   5.555   7.382 -2.8373 -0.9752 -0.5682
   99MOL   H27233788   1.678   5.223   7.669  0.3291 -0.1954 -1.9747
   99MOL   H27333789   1.648   5.347   7.778  0.9140  0.9067 -0.0052
   99MOL   C27433790   1.844   5.350   7.675 -0.3417 -0.2242  0.7280
   99MOL   C27533791   1.903   5.321   7.534 -0.7713 -0.1387 -0.1468
   99MOL   C27633792   2.024   5.387   7.492 -0.4758 -0.3901  0.7609
   99MOL   C27733793   2.070   5.370   7.361 -0.2518 -0.2823 -0.1643
   99MOL   C27833794   2.010   5.283   7.272 -0.6172  0.4977  0.0777
   99MOL   O27933795   2.077   5.252   7.151 -0.6240 -0.0693 -0.0013
   99MOL   C28033796   1.897   5.207   7.310  0.3402  0.2228  0.0174
   99MOL   C28133797   1.842   5.236   7.439  0.6989 -0.7327 -0.9816
   99MOL   C28233798   1.929   5.304   7.793  1.0145 -0.0087  0.1855
   99MOL   H28333799   1.859   5.456   7.694  1.2703 -0.4144  0.5938
   99MOL   H28433800   2.075   5.459   7.553 -0.9865  0.3273  0.3445
   99MOL   H28533801   2.157   5.420   7.321  0.1963 -1.3632 -0.5663
   99MOL   H28633802   2.163   5.283   7.128  0.4391 -1.3903  1.9712
   99MOL   H28733803   1.858   5.139   7.236 -2.0702  1.4024  0.1744
   99MOL   H28833804   1.744   5.196   7.460  0.2761  0.8566  0.2048
   99MOL   H28933805   2.014   5.371   7.806 -0.0284  1.8851 -2.1902
   99MOL   H29033806   1.869   5.320   7.882 -1.3287  0.9950 -1.5087
   99MOL   C29133807   1.997   5.164   7.787  0.7367 -0.1576 -0.0467
   99MOL   C29233808   1.891   5.053   7.761 -0.1697  0.5194  0.0955
   99MOL   C29333809   1.783   5.035   7.849  0.2611  0.7530  0.2216
   99MOL   C29433810   1.719   4.907   7.844  0.3221 -0.1272  0.0383
   99MOL   C29533811   1.752   4.812   7.745 -0.0187 -0.4132  0.0999
   99MOL   O29633812   1.684   4.692   7.737 -0.3445  0.2198  0.4542
   99MOL   C29733813   1.853   4.840   7.648  0.8732 -0.0721 -0.2527
   99MOL   C29833814   1.927   4.957   7.663  0.0875 -0.4638 -0.0576
   99MOL   C29933815   2.072   5.135   7.921 -0.3280 -0.7421 -0.3028
   99MOL   H30033816   2.069   5.171   7.706  0.1121  3.0219 -0.3822
   99MOL   H30133817   1.758   5.110   7.923 -0.6218  0.2492  0.4388
   99MOL   H30233818   1.634   4.886   7.908  0.0059  2.9468  0.6922
   99MOL   H30333819   1.614   4.678   7.800 -0.9741  2.5010  0.2888
   99MOL   H30433820   1.868   4.761   7.576 -1.4697  0.9247 -1.8690
   99MOL   H30533821   2.028   4.968   7.626  0.4261 -0.4112  0.8773
   99MOL   H30633822   2.074   5.026   7.935 -1.5043 -0.2285  5.1119
   99MOL   H30733823   2.009   5.170   8.003  0.8088  1.0163 -0.1705
   99MOL   C30833824   2.222   5.174   7.934 -0.1828  0.1799  0.5805
   99MOL   C30933825   2.308   5.130   7.813  0.4489 -0.2296  0.1842
   99MOL   C31033826   2.369   5.217   7.727  0.3864 -0.2401  0.3383
   99MOL   C31133827   2.441   5.168   7.621  0.5377 -0.4986  0.1803
   99MOL   C31233828   2.450   5.027   7.602  0.2471  0.3347  0.0909
   99MOL   O31333829   2.511   4.968   7.491  0.0016  0.6427  0.5158
   99MOL   C31433830   2.394   4.939   7.693  0.1692 -0.4755  0.2815
   99MOL   C31533831   2.324   4.989   7.802  0.2876 -0.4067  0.1906
   99MOL   C31633832   2.293   5.120   0.025 -0.0318 -0.0177  0.2893
   99MOL   H31733833   2.231   5.283   7.938  6.2820 -0.1229  0.3287
   99MOL   H31833834   2.374   5.325   7.734  0.5673 -0.0323 -2.4836
   99MOL   H31933835   2.489   5.242   7.558  1.6331  0.9015  2.6188
   99MOL   H32033836   2.489   5.017   7.413  1.9659  2.2839  0.9635
   99MOL   H32133837   2.400   4.832   7.679  1.0456 -0.0229 -3.0968
   99MOL   H32233838   2.271   4.921   7.867 -0.7890  1.6032  1.4897
   99MOL   H32333839   2.333   5.019   0.015  0.1733  0.0862  0.0504
   99MOL   H32433840   2.206   5.114   0.091 -1.5014  2.4343 -1.3667
   99MOL   C32533841   2.403   5.208   0.091 -0.2905 -0.9081  0.6079
   99MOL   C32633842   2.525   5.220   8.026  0.4726  0.0942 -0.4168
   99MOL   C32733843   2.597   5.103   7.982  0.0587  0.2036 -0.2383
   99MOL   C32833844   2.706   5.113   7.900 -0.0663  0.0244  0.3093
   99MOL   C32933845   2.743   5.237   7.842 -0.3125 -0.2040  0.5540
   99MOL   O33033846   2.849   5.242   7.756  0.2513 -0.5403  0.2570
   99MOL   C33133847   2.669   5.355   7.879  0.0404 -0.6759  0.4515
   99MOL   C33233848   2.563   5.344   7.967 -0.5803  0.8538 -0.1402
   99MOL   C33333849   2.445   5.150   0.227  0.4806 -0.4315  0.6604
   99MOL   H33433850   2.366   5.310   0.101  0.5043 -0.2969 -2.2409
   99MOL   H33533851   2.575   5.005   8.020 -3.4808  1.6513  1.7402
   99MOL   H33633852   2.770   5.029   7.879 -0.7193  0.1089 -2.1849
   99MOL   H33733853   2.896   5.161   7.764 -1.6664 -1.6760  0.5503
   99MOL   H33833854   2.693   5.451   7.835 -0.2470 -0.3780  0.9434
   99MOL   H33933855   2.521   5.439   7.998  0.0898  1.2888 -0.5702
   99MOL   H34033856   2.363   5.119   0.292 -1.3454  1.2716 -0.7429
   99MOL   H34133857   2.506   5.223   0.280  0.1503 -2.1984  3.5340
   99MOL   H34233858   2.506   5.063   0.205 -0.0764 -0.3585 -1.3175
  100MOL     C133859   5.082   0.863   1.720 -0.5065 -1.0723  0.2463
  100MOL     C233860   5.197   0.903   1.623 -0.2047  0.1394 -0.1996
  100MOL     C333861   5.251   0.794   1.544 -0.0471  0.1233  0.4324
  100MOL     C433862   5.367   0.814   1.470  0.0025  0.5521  0.2943
  100MOL     C533863   5.430   0.940   1.459 -0.2045  0.0686 -0.2749
  100MOL     O633864   5.549   0.957   1.393 -0.3977 -0.2752 -0.7532
  100MOL     C733865   5.381   1.041   1.544 -0.0287 -0.3489  0.0475
  100MOL     C833866   5.273   1.018   1.631 -0.5265  0.5755  0.6694
  100MOL     C933867   4.978   0.979   1.732 -0.6345  0.5443 -0.5770
  100MOL    H1033868   5.034   0.769   1.695 -0.5854 -0.8840 -0.3067
  100MOL    H1133869   5.204   0.696   1.546 -1.8282  0.9458 -0.4510
  100MOL    H1233870   5.408   0.733   1.411  0.3286  2.5754 -2.3376
  100MOL    H1333871   5.598   1.032   1.423 -0.3474 -0.5252 -0.2020
  100MOL    H1433872   5.434   1.135   1.543  1.5103 -1.1696  1.3851
  100MOL    H1533873   5.246   1.095   1.701 -1.2335  0.6984  0.2670
  100MOL    H1633874   4.939   1.005   1.634  1.2950  2.3730 -0.9185
  100MOL    H1733875   5.035   1.069   1.760 -2.3239  0.7981  2.2293
  100MOL    H1833876   5.129   0.848   1.818 -0.4250  0.9184  0.5327
  100MOL    C1933877   4.871   0.937   1.837  0.0704 -0.2291 -0.6445
  100MOL    C2033878   4.775   0.828   1.785  0.0355 -0.1183 -0.1655
  100MOL    C2133879   4.717   0.835   1.658 -0.5053 -0.2992  0.1916
  100MOL    C2233880   4.623   0.738   1.615 -0.9250 -0.1279 -0.5432
  100MOL    C2333881   4.588   0.634   1.699  0.1193 -0.7599 -0.1229
  100MOL    O2433882   4.490   0.553   1.654 -0.0360 -0.1815 -0.3642
  100MOL    C2533883   4.662   0.610   1.815 -0.1025  0.3675 -0.0017
  100MOL    C2633884   4.754   0.707   1.854 -0.4932 -0.1429 -0.4331
  100MOL    C2733885   4.788   1.063   1.875  0.9016 -0.0219 -0.1689
  100MOL    H2833886   4.921   0.897   1.925 -2.0296 -0.7203  0.3570
  100MOL    H2933887   4.725   0.919   1.591 -1.6696 -0.9638 -0.8014
  100MOL    H3033888   4.565   0.755   1.525 -1.6250  1.2828  0.1587
  100MOL    H3133889   4.463   0.496   1.724  0.7720 -2.3454 -1.7766
  100MOL    H3233890   4.639   0.532   1.887  0.8723  0.5975  0.5535
  100MOL    H3333891   4.803   0.703   1.950  0.5236  3.6681 -0.7032
  100MOL    H3433892   4.691   1.024   1.906 -0.5557  4.3559  1.1694
  100MOL    H3533893   4.760   1.133   1.797 -0.0169  0.7777  0.8651
  100MOL    C3633894   4.824   1.128   2.010  0.3698 -0.7769  0.2963
  100MOL    C3733895   4.699   1.184   2.078 -0.3399  0.6315  0.3500
  100MOL    C3833896   4.608   1.273   2.010  0.9359  0.1787 -0.1608
  100MOL    C3933897   4.487   1.301   2.058 -0.4968  0.3650 -0.4764
  100MOL    C4033898   4.455   1.262   2.191 -0.2473  0.6297  0.0558
  100MOL    O4133899   4.339   1.310   2.237 -0.1496 -0.6257 -0.3988
  100MOL    C4233900   4.544   1.174   2.263 -0.4375 -0.3384 -0.8318
  100MOL    C4333901   4.667   1.144   2.209 -0.7169  0.8535  0.3625
  100MOL    C4433902   4.935   1.231   2.005  0.0016  0.6232 -0.2422
  100MOL    H4533903   4.852   1.042   2.071  0.3315 -1.2558 -0.3508
  100MOL    H4633904   4.644   1.306   1.913  2.3614 -0.6164  0.0856
  100MOL    H4733905   4.428   1.379   2.011 -0.8131  0.2443 -0.2864
  100MOL    H4833906   4.319   1.287   2.326 -0.8616  1.2523 -0.0329
  100MOL    H4933907   4.522   1.139   2.363  0.5083  0.2414 -0.4125
  100MOL    H5033908   4.732   1.076   2.262  0.3649 -0.5472 -2.6465
  100MOL    H5133909   5.011   1.189   1.940 -0.8671  1.3115 -1.7376
  100MOL    H5233910   4.909   1.330   1.968  0.4290  1.1733  0.9211
  100MOL    C5333911   5.001   1.254   2.141  0.2013  0.3345 -0.1410
  100MOL    C5433912   5.127   1.168   2.152  0.3427  0.3314 -0.5250
  100MOL    C5533913   5.136   1.068   2.247 -0.7424  0.9388 -0.2790
  100MOL    C5633914   5.252   0.991   2.252 -0.2233  0.4297  0.1525
  100MOL    C5733915   5.361   1.010   2.158  0.3053  0.5158  0.2531
  100MOL    O5833916   5.475   0.929   2.160  0.3585  0.1002  0.4998
  100MOL    C5933917   5.343   1.109   2.057 -0.0118 -0.1540  0.0955
  100MOL    C6033918   5.235   1.200   2.065 -0.3492  0.3990 -0.3675
  100MOL    C6133919   5.024   1.401   2.183  0.2532  0.5845  0.5044
  100MOL    H6233920   4.921   1.222   2.208 -0.7775  3.4064  0.2280
  100MOL    H6333921   5.054   1.053   2.316  0.2794  1.8978  1.1883
  100MOL    H6433922   5.271   0.920   2.331 -0.3972  0.8202  0.5517
  100MOL    H6533923   5.524   0.941   2.080 -0.9003  0.7279 -0.1838
  100MOL    H6633924   5.419   1.134   1.984  0.1429  0.2877  0.4038
  100MOL    H6733925   5.240   1.288   2.004  0.4870  0.1942 -0.5944
  100MOL    H6833926   4.948   1.477   2.166 -0.3194  0.2546  1.5020
  100MOL    H6933927   5.101   1.425   2.110  0.6668 -2.0183  0.0168
  100MOL    C7033928   5.064   1.425   2.331 -0.2412  0.1468 -0.2951
  100MOL    C7133929   4.965   1.366   2.436 -0.1362 -0.3783 -0.6405
  100MOL    C7233930   5.025   1.309   2.548  0.3858 -0.8727 -0.0152
  100MOL    C7333931   4.950   1.259   2.654 -0.0870 -0.4159  0.5788
  100MOL    C7433932   4.812   1.254   2.644 -0.0555  0.1262 -0.5220
  100MOL    O7533933   4.740   1.197   2.752  0.2957 -0.3915  0.2899
  100MOL    C7633934   4.748   1.308   2.531 -0.3635  0.3504  0.5367
  100MOL    C7733935   4.823   1.373   2.426 -0.2642 -0.4892  0.3165
  100MOL    C7833936   5.101   1.570   2.375  0.5175 -0.3211 -0.3306
  100MOL    H7933937   5.147   1.356   2.345 -0.6461 -0.6295 -1.6244
  100MOL    H8033938   5.132   1.315   2.558  0.3562  1.3524 -0.6551
  100MOL    H8133939   4.996   1.221   2.744  0.2937 -0.5784  0.3192
  100MOL    H8233940   4.649   1.219   2.762  0.6210 -0.0290  2.7870
  100MOL    H8333941   4.642   1.296   2.518 -0.2218  0.8547 -1.2368
  100MOL    H8433942   4.775   1.411   2.338 -1.0882  0.2196  1.0659
  100MOL    H8533943   5.104   1.572   2.484  0.4280 -1.5280 -0.2935
  100MOL    H8633944   5.027   1.645   2.346  0.5485 -0.8716 -1.9056
  100MOL    C8733945   5.244   1.605   2.324 -0.4945 -0.0646  0.2859
  100MOL    C8833946   5.354   1.498   2.348 -0.1378  0.7834 -0.4714
  100MOL    C8933947   5.411   1.446   2.232 -0.2235 -1.1712  0.6866
  100MOL    C9033948   5.536   1.371   2.238 -0.1798 -0.2916  0.0229
  100MOL    C9133949   5.591   1.345   2.363  0.2411 -0.1170 -0.2054
  100MOL    O9233950   5.699   1.265   2.383 -0.4378  0.0107 -0.0023
  100MOL    C9333951   5.528   1.391   2.478  0.0214 -0.2804 -0.7624
  100MOL    C9433952   5.407   1.466   2.475 -0.1730  0.6821  0.0737
  100MOL    C9533953   5.283   1.748   2.365 -0.2499  0.2791 -0.6145
  100MOL    H9633954   5.220   1.615   2.218  1.1242  1.9445  0.0811
  100MOL    H9733955   5.374   1.466   2.133  0.2835  0.9656  0.9115
  100MOL    H9833956   5.573   1.336   2.143 -1.6999 -3.3367  0.4825
  100MOL    H9933957   5.774   1.282   2.327 -1.5427 -0.9443 -1.8417
  100MOL   H10033958   5.566   1.360   2.574 -1.3502  4.1167  1.3424
  100MOL   H10133959   5.358   1.491   2.568  2.4070 -0.2519  1.7443
  100MOL   H10233960   5.212   1.819   2.324 -0.3033  0.7218  0.2206
  100MOL   H10333961   5.294   1.749   2.474 -0.8068 -1.0922 -0.5345
  100MOL   C10433962   5.427   1.789   2.316  0.0726  0.1417 -0.0168
  100MOL   C10533963   5.475   1.899   2.408  0.3666 -0.4569 -0.1652
  100MOL   C10633964   5.393   2.014   2.428  0.1393 -0.6691  0.0676
  100MOL   C10733965   5.431   2.110   2.524  0.4711 -0.2727 -0.0964
  100MOL   C10833966   5.553   2.108   2.586  0.2539  0.1343  0.5145
  100MOL   O10933967   5.579   2.209   2.676 -0.2615 -0.9534  0.1091
  100MOL   C11033968   5.646   2.002   2.552  0.0335  0.1565  0.0386
  100MOL   C11133969   5.604   1.900   2.470  0.4210 -0.0022 -0.0294
  100MOL   C11233970   5.425   1.816   2.161 -0.5861  0.7910  0.3269
  100MOL   H11333971   5.491   1.705   2.343 -0.0551 -0.0259 -0.2302
  100MOL   H11433972   5.290   2.024   2.394 -0.4006  2.5958  2.4743
  100MOL   H11533973   5.370   2.197   2.547 -0.0022 -0.3120 -1.2021
  100MOL   H11633974   5.655   2.184   2.726  0.7955  1.4001 -0.2328
  100MOL   H11733975   5.740   1.984   2.602 -0.7707 -0.0433  1.5375
  100MOL   H11833976   5.671   1.816   2.462  0.6430  0.2892 -1.3461
  100MOL   H11933977   5.392   1.912   2.123 -1.0884 -0.0504 -1.3991
  100MOL   H12033978   5.337   1.760   2.129  0.4146 -1.3832  1.2833
  100MOL   C12133979   5.555   1.759   2.093 -0.2321 -0.3099  0.5316
  100MOL   C12233980   5.530   1.716   1.947  0.2747  0.3626  0.1831
  100MOL   C12333981   5.514   1.804   1.837  0.1890 -0.2589 -0.5035
  100MOL   C12433982   5.479   1.760   1.710 -0.6604  0.0748 -0.2307
  100MOL   C12533983   5.466   1.615   1.689 -0.8275 -0.0575  0.3085
  100MOL   O12633984   5.428   1.555   1.573 -0.1822 -0.0884  0.0221
  100MOL   C12733985   5.502   1.527   1.792 -0.1092  0.5058 -0.4147
  100MOL   C12833986   5.536   1.579   1.917 -0.0464  1.1856 -0.1316
  100MOL   C12933987   5.669   1.861   2.097 -0.3079 -0.5089  0.8263
  100MOL   H13033988   5.583   1.671   2.150 -0.0202 -2.1031 -2.2508
  100MOL   H13133989   5.516   1.912   1.842 -2.3597 -0.1716 -0.6204
  100MOL   H13233990   5.466   1.823   1.623 -3.5995 -0.3055 -0.1033
  100MOL   H13333991   5.392   1.612   1.507  2.5727  0.1185 -1.3639
  100MOL   H13433992   5.498   1.419   1.791 -1.9179  0.5498 -1.6853
  100MOL   H13533993   5.554   1.514   2.002 -1.0799 -0.0176 -0.8206
  100MOL   H13633994   5.682   1.891   2.201  0.9688  2.4507 -0.1539
  100MOL   H13733995   5.638   1.952   2.047 -0.4412 -1.4933 -0.9330
  100MOL   C13833996   5.800   1.817   2.034  0.1712 -0.4084  0.0967
  100MOL   C13933997   5.834   1.680   2.092 -0.5165 -0.5870  0.4201
  100MOL   C14033998   5.866   1.576   1.997  0.0244  0.1353  0.3775
  100MOL   C14133999   5.910   1.447   2.054  0.1394 -0.6774  0.1656
  100MOL   C14234000   5.921   1.430   2.193  0.2356 -0.7660 -0.7552
  100MOL   O14334001   5.956   1.310   2.242  0.5581  0.0737 -0.0301
  100MOL   C14434002   5.891   1.531   2.284  0.8457 -0.1697  0.2235
  100MOL   C14534003   5.856   1.659   2.234  0.6871 -0.1060  0.1868
  100MOL   C14634004   5.916   1.915   2.069 -0.6208  0.0494 -0.2327
  100MOL   H14734005   5.792   1.815   1.925  0.7850 -1.3323  0.0651
  100MOL   H14834006   5.863   1.590   1.890 -0.1133  0.8084  0.4687
  100MOL   H14934007   5.941   1.369   1.986 -0.3515 -0.9061  0.1991
  100MOL   H15034008   6.043   1.284   2.219  0.1541 -1.8813  0.5314
  100MOL   H15134009   5.894   1.515   2.391  0.9240  0.5045  0.3260
  100MOL   H15234010   5.839   1.741   2.302 -0.2696 -0.3169  0.2060
  100MOL   H15334011   6.006   1.869   2.028  0.8896  2.2226  0.5405
  100MOL   H15434012   5.927   1.917   2.177  0.5422  0.9046 -0.3574
  100MOL   C15534013   5.915   2.054   2.015  0.2968  0.2924 -0.7365
  100MOL   C15634014   5.830   2.065   1.889 -0.2633  0.2738  0.3785
  100MOL   C15734015   5.721   2.153   1.894 -0.5386  0.8050 -0.2788
  100MOL   C15834016   5.655   2.187   1.778  0.7204 -0.0301 -0.6355
  100MOL   C15934017   5.682   2.119   1.659  0.3830 -0.2121 -0.4720
  100MOL   O16034018   5.617   2.155   1.547  0.5032 -0.6325 -0.2711
  100MOL   C16134019   5.782   2.023   1.661 -0.3439 -0.0147 -0.6440
  100MOL   C16234020   5.862   1.995   1.774  0.6831 -0.3647  0.0433
  100MOL   C16334021   6.056   2.115   1.995  0.6806  0.1657  1.0080
  100MOL   H16434022   5.868   2.114   2.094 -1.3489 -1.7043 -0.1448
  100MOL   H16534023   5.681   2.205   1.980 -5.0841 -2.2144 -0.3830
  100MOL   H16634024   5.584   2.269   1.774  0.5798 -0.1018  0.2802
  100MOL   H16734025   5.548   2.216   1.568  0.3432 -0.3688 -1.5282
  100MOL   H16834026   5.801   1.976   1.566 -1.0657  0.9921 -1.3078
  100MOL   H16934027   5.948   1.932   1.755  1.6949  0.2324  2.3459
  100MOL   H17034028   6.063   2.219   1.963 -3.3320  0.5645  1.1013
  100MOL   H17134029   6.096   2.053   1.915 -1.3634  0.4017 -0.2427
  100MOL   C17234030   6.158   2.112   2.118  0.5007  0.1373  0.1303
  100MOL   C17334031   6.132   2.231   2.210  1.2725  0.1691 -0.3322
  100MOL   C17434032   6.172   2.361   2.174 -0.1938  0.3749 -0.4092
  100MOL   C17534033   6.150   2.465   2.265 -0.0686 -0.1912  0.4756
  100MOL   C17634034   6.082   2.440   2.381 -0.4134  0.4958 -0.7784
  100MOL   O17734035   6.062   2.530   2.475  0.2182 -0.2584  0.6249
  100MOL   C17834036   6.040   2.310   2.416 -0.1556 -0.6836 -0.2429
  100MOL   C17934037   6.065   2.203   2.331  0.1671  0.0413  0.4871
  100MOL   C18034038   6.296   2.117   2.057 -0.6503  0.4793  0.4933
  100MOL   H18134039   6.163   2.022   2.179  1.5001 -0.6081 -1.0292
  100MOL   H18234040   6.222   2.382   2.080 -2.2295 -0.0770 -1.6117
  100MOL   H18334041   6.195   2.560   2.242 -0.1040 -0.2154  0.3084
  100MOL   H18434042   6.131   2.526   2.540  1.4025  2.3380 -0.3927
  100MOL   H18534043   5.994   2.276   2.508  1.9282 -0.9147  0.7402
  100MOL   H18634044   6.028   2.106   2.360  2.4734 -0.7618  0.8614
  100MOL   H18734045   6.365   2.121   2.142 -0.6508  0.8593  0.4779
  100MOL   H18834046   6.316   2.214   2.013 -0.9758  0.3655  0.0895
  100MOL   C18934047   6.355   1.998   1.977 -0.1175  0.7372 -0.2844
  100MOL   C19034048   6.493   2.021   1.930  0.5833  0.3616 -1.0673
  100MOL   C19134049   6.611   2.026   2.009  0.2980 -0.3867 -0.1934
  100MOL   C19234050   6.735   2.043   1.945 -0.8570  0.1609 -0.1887
  100MOL   C19334051   6.755   2.052   1.805  0.1729  0.4713  0.4264
  100MOL   O19434052   6.875   2.063   1.747  0.0890 -0.0274 -0.2696
  100MOL   C19534053   6.632   2.057   1.729  0.4057 -0.1596  0.0224
  100MOL   C19634054   6.509   2.053   1.799 -0.0030 -0.7635  0.1323
  100MOL   C19734055   6.343   1.862   2.048 -0.0727 -0.1337  0.3374
  100MOL   H19834056   6.300   1.983   1.884  0.5190 -0.9016 -0.4089
  100MOL   H19934057   6.604   1.998   2.114  2.3808 -1.2687 -0.2570
  100MOL   H20034058   6.828   2.046   2.000 -0.2315  1.5183 -1.2972
  100MOL   H20134059   6.856   2.067   1.655 -1.5320 -1.2086 -0.0129
  100MOL   H20234060   6.636   2.064   1.621  0.5623 -0.5714  0.0016
  100MOL   H20334061   6.418   2.075   1.744 -1.7916  0.9715  3.6315
  100MOL   H20434062   6.238   1.834   2.053  0.4841 -2.2294  0.7469
  100MOL   H20534063   6.376   1.872   2.151  1.7363 -3.0905  0.1103
  100MOL   C20634064   6.421   1.738   1.984  0.0432 -0.2867  0.4680
  100MOL   C20734065   6.366   1.687   1.857  0.0949  0.2935 -0.4361
  100MOL   C20834066   6.242   1.619   1.857  0.6095 -0.0227  0.1275
  100MOL   C20934067   6.202   1.551   1.741  0.0075  0.2396 -0.2206
  100MOL   C21034068   6.274   1.562   1.623  0.1453  0.0612 -0.5298
  100MOL   O21134069   6.234   1.496   1.512  0.0646  0.9085  0.1254
  100MOL   C21234070   6.394   1.638   1.620  0.4233  0.2999  0.4882
  100MOL   C21334071   6.443   1.693   1.738 -0.9292  0.3040 -0.3746
  100MOL   C21434072   6.428   1.620   2.084 -0.1213 -0.0003 -0.5127
  100MOL   H21534073   6.523   1.764   1.955  0.2265  0.4795  1.7715
  100MOL   H21634074   6.181   1.612   1.945  0.3440  0.0987 -0.0435
  100MOL   H21734075   6.110   1.495   1.741  1.2775 -1.9197  0.6960
  100MOL   H21834076   6.140   1.494   1.512  0.0875 -0.8688  1.0350
  100MOL   H21934077   6.453   1.631   1.530 -0.1446 -0.3539  0.1661
  100MOL   H22034078   6.540   1.741   1.733 -1.0764  0.8599  1.8071
  100MOL   H22134079   6.467   1.530   2.036  1.8266  0.7637 -0.3759
  100MOL   H22234080   6.326   1.597   2.116  0.3105 -1.4226 -0.1390
  100MOL   C22334081   6.519   1.645   2.208  0.9831  0.5502 -0.1568
  100MOL   C22434082   6.641   1.549   2.219  0.4531  0.7337  0.7654
  100MOL   C22534083   6.622   1.417   2.258 -0.3475  0.0038 -0.0988
  100MOL   C22634084   6.733   1.329   2.274  0.2485  0.3332 -0.2469
  100MOL   C22734085   6.858   1.378   2.238  0.2220  0.5472 -0.0111
  100MOL   O22834086   6.957   1.286   2.244  0.0610 -0.4195  0.2963
  100MOL   C22934087   6.888   1.502   2.180 -0.0306 -0.4501 -0.2227
  100MOL   C23034088   6.775   1.591   2.173 -1.0536  0.7757 -0.3602
  100MOL   C23134089   6.435   1.672   2.340 -0.6526 -0.5419 -0.2833
  100MOL   H23234090   6.570   1.740   2.192 -0.1185  1.4171  1.2448
  100MOL   H23334091   6.523   1.390   2.292 -0.6181  1.7057  0.5041
  100MOL   H23434092   6.712   1.227   2.304 -1.8513  0.4256 -1.2642
  100MOL   H23534093   7.046   1.319   2.240 -0.2515  0.7275  2.4655
  100MOL   H23634094   6.985   1.528   2.141 -0.1184 -1.0338 -0.8343
  100MOL   H23734095   6.789   1.682   2.117  0.6909 -0.8700 -2.7114
  100MOL   H23834096   6.336   1.703   2.307  0.4395  3.1570 -0.3724
  100MOL   H23934097   6.427   1.583   2.403  0.9507 -0.8645 -0.5157
  100MOL   C24034098   6.477   1.797   2.419  0.3187  0.1429  0.7574
  100MOL   C24134099   6.367   1.852   2.510 -0.0796 -0.0816  0.5559
  100MOL   C24234100   6.320   1.983   2.490  0.2913 -0.7571 -0.2803
  100MOL   C24334101   6.228   2.040   2.581  0.8201 -0.7436 -0.6189
  100MOL   C24434102   6.176   1.959   2.685  0.1708 -0.2009  0.2439
  100MOL   O24534103   6.087   2.005   2.771 -0.3201 -0.4169 -0.3205
  100MOL   C24634104   6.209   1.826   2.696 -0.4040 -0.4424  0.5262
  100MOL   C24734105   6.309   1.772   2.607 -0.7112 -0.8458 -0.3949
  100MOL   C24834106   6.613   1.777   2.486 -0.7317 -0.6504  0.0331
  100MOL   H24934107   6.499   1.872   2.343 -0.2588  0.6603  1.0976
  100MOL   H25034108   6.350   2.050   2.410  1.9070  1.5302  2.1660
  100MOL   H25134109   6.187   2.140   2.572  0.3061 -1.0662 -1.9720
  100MOL   H25234110   6.035   1.935   2.808 -0.2686 -0.4672 -0.3430
  100MOL   H25334111   6.169   1.760   2.772 -1.4052 -0.0055  0.3853
  100MOL   H25434112   6.348   1.673   2.624  0.0572 -0.4613  0.0967
  100MOL   H25534113   6.598   1.706   2.567 -1.3810  0.1196  0.5879
  100MOL   H25634114   6.679   1.728   2.414 -0.2580 -1.1076  0.7762
  100MOL   C25734115   6.686   1.900   2.534 -0.0008 -0.7090  0.2939
  100MOL   C25834116   6.816   1.870   2.607 -0.1323 -0.7751 -0.6734
  100MOL   C25934117   6.832   1.909   2.743  0.0020 -0.0474  0.4000
  100MOL   C26034118   6.954   1.897   2.810 -0.2040  0.3419 -0.2666
  100MOL   C26134119   7.053   1.837   2.744  0.1099 -0.2655  0.0413
  100MOL   O26234120   7.179   1.853   2.790 -0.1290  0.0952 -0.2521
  100MOL   C26334121   7.042   1.792   2.615 -0.4181 -0.8106  0.3902
  100MOL   C26434122   6.923   1.808   2.541 -0.1610  0.2750 -0.8806
  100MOL   C26534123   6.720   1.998   2.419  0.7582 -0.0749 -0.0140
  100MOL   H26634124   6.622   1.934   2.615  0.3458  1.2961 -0.2383
  100MOL   H26734125   6.749   1.954   2.796  0.1843  0.3241  0.3779
  100MOL   H26834126   6.958   1.938   2.910  2.0425 -0.2566 -0.0736
  100MOL   H26934127   7.193   1.888   2.877 -0.3587 -1.4449  0.4361
  100MOL   H27034128   7.128   1.754   2.562 -0.6953  0.4902 -1.0415
  100MOL   H27134129   6.916   1.784   2.437  0.0031  0.8031 -1.0159
  100MOL   H27234130   6.628   2.022   2.366  0.0476  2.0355  2.0847
  100MOL   H27334131   6.777   1.947   2.342  0.3389  0.2303 -0.5272
  100MOL   C27434132   6.769   2.140   2.461 -0.3091  0.3667 -0.3677
  100MOL   C27534133   6.654   2.236   2.502 -1.6517  0.0634 -0.2023
  100MOL   C27634134   6.633   2.261   2.634 -0.1525 -0.5150  0.0075
  100MOL   C27734135   6.537   2.347   2.678  0.1619 -0.3772  0.0206
  100MOL   C27834136   6.442   2.407   2.588  0.0346  0.0532 -0.2082
  100MOL   O27934137   6.339   2.483   2.627 -0.5907  0.2561 -0.2960
  100MOL   C28034138   6.456   2.375   2.452 -0.1847  0.4742  0.6234
  100MOL   C28134139   6.555   2.278   2.411 -0.6136 -0.4706 -0.3868
  100MOL   C28234140   6.859   2.206   2.355 -0.0501  0.9918 -0.1501
  100MOL   H28334141   6.837   2.119   2.544 -0.4770 -0.1490 -0.3592
  100MOL   H28434142   6.696   2.221   2.712 -0.2394 -2.7445 -1.0529
  100MOL   H28534143   6.525   2.366   2.783  0.3668 -1.0744  0.1714
  100MOL   H28634144   6.320   2.462   2.717 -2.5925 -2.5872 -1.3329
  100MOL   H28734145   6.375   2.417   2.395 -1.1446 -0.9042  0.9622
  100MOL   H28834146   6.552   2.251   2.307 -0.2148  0.5877 -0.6805
  100MOL   H28934147   6.915   2.127   2.305 -2.4853 -1.6913  1.2235
  100MOL   H29034148   6.802   2.259   2.279 -1.3625  0.7038  0.6132
  100MOL   C29134149   6.956   2.310   2.417 -0.2772 -0.8864  0.3512
  100MOL   C29234150   7.003   2.401   2.305  0.2572  0.0975 -0.3892
  100MOL   C29334151   7.070   2.348   2.195 -0.3536 -0.5251 -0.0752
  100MOL   C29434152   7.126   2.424   2.091 -0.6832 -0.8180  0.8784
  100MOL   C29534153   7.103   2.564   2.101  0.0213  0.0406 -0.0270
  100MOL   O29634154   7.153   2.641   1.999 -0.1124 -0.3069  0.0615
  100MOL   C29734155   7.037   2.622   2.209 -0.0778  0.4593  0.2074
  100MOL   C29834156   6.983   2.540   2.310  0.1152  0.0612  0.2550
  100MOL   C29934157   7.080   2.244   2.485 -0.3222 -0.6455  0.1786
  100MOL   H30034158   6.908   2.373   2.491  2.1878 -0.1871  1.4226
  100MOL   H30134159   7.077   2.240   2.194 -1.1202 -0.5997  1.7624
  100MOL   H30234160   7.166   2.398   1.994  1.4982  1.1740  1.1970
  100MOL   H30334161   7.228   2.695   2.021  0.5162 -0.6734 -1.1686
  100MOL   H30434162   7.026   2.729   2.215 -1.0763  0.3761  0.0082
  100MOL   H30534163   6.941   2.583   2.400  1.6218  0.3572  0.8227
  100MOL   H30634164   7.167   2.233   2.419  0.6697 -0.6079  1.4645
  100MOL   H30734165   7.055   2.143   2.517  0.2222 -0.0829  2.4317
  100MOL   C30834166   7.143   2.316   2.611  0.0453  0.1680  0.0310
  100MOL   C30934167   7.047   2.314   2.734 -0.3469  0.1865 -0.8628
  100MOL   C31034168   7.065   2.209   2.832  0.0840 -0.1402 -0.3404
  100MOL   C31134169   6.988   2.205   2.955  0.2967 -0.7543 -0.2497
  100MOL   C31234170   6.889   2.302   2.978 -0.6309 -0.4584  0.0767
  100MOL   O31334171   6.831   2.302   3.105  0.3397 -0.2847 -0.2790
  100MOL   C31434172   6.858   2.388   2.869  0.3555  0.4772  0.1612
  100MOL   C31534173   6.936   2.399   2.755 -0.0563  0.4240 -0.6078
  100MOL   C31634174   7.173   2.467   2.588  0.2033  0.0613  0.2476
  100MOL   H31734175   7.230   2.258   2.640 -1.2141 -2.2154 -0.8129
  100MOL   H31834176   7.151   2.143   2.827 -0.1085 -0.4168  0.0274
  100MOL   H31934177   7.004   2.137   3.038 -1.2847  0.4099  1.0292
  100MOL   H32034178   6.768   2.373   3.108 -1.0076 -1.5140  1.4266
  100MOL   H32134179   6.779   2.461   2.871 -0.2210  0.0108 -3.3971
  100MOL   H32234180   6.900   2.473   2.685  1.5941  1.2064 -0.6624
  100MOL   H32334181   7.086   2.508   2.537  0.5129  1.4435  0.8298
  100MOL   H32434182   7.249   2.461   2.510  0.6478 -0.8812  0.7399
  100MOL   C32534183   7.225   2.558   2.708 -0.0349  0.1014 -0.3916
  100MOL   C32634184   7.115   2.640   2.766 -0.9889 -0.4177 -0.2361
  100MOL   C32734185   7.106   2.651   2.902 -0.3217 -0.0371  0.1318
  100MOL   C32834186   7.001   2.722   2.966  0.5314 -0.9445  0.4259
  100MOL   C32934187   6.919   2.812   2.892 -0.0917  0.2394  0.3543
  100MOL   O33034188   6.840   2.907   2.955  0.0237 -0.1664  0.2389
  100MOL   C33134189   6.944   2.815   2.749  0.0636 -0.4870  0.0249
  100MOL   C33234190   7.034   2.727   2.688  0.5409 -0.0979 -0.1981
  100MOL   C33334191   7.345   2.634   2.668  0.3420  0.2920  0.1564
  100MOL   H33434192   7.277   2.488   2.774 -0.6395  0.5307  0.5564
  100MOL   H33534193   7.170   2.588   2.963  0.3201 -0.5201 -1.0377
  100MOL   H33634194   7.003   2.728   3.073 -1.9378  2.8926  0.3831
  100MOL   H33734195   6.807   2.970   2.893  0.9192 -0.3911 -0.4839
  100MOL   H33834196   6.901   2.885   2.679 -0.8050 -1.3763 -0.3530
  100MOL   H33934197   7.059   2.741   2.584 -0.5951  1.2990 -0.3022
  100MOL   H34034198   7.437   2.577   2.653 -0.5199 -0.8563 -0.8942
  100MOL   H34134199   7.366   2.690   2.759 -0.9765  0.3814  0.4081
  100MOL   H34234200   7.329   2.711   2.593 -2.2983 -0.2887  0.0931
  101MOL     C134201   5.392   1.273   3.841 -0.2934  0.0090  0.2919
  101MOL     C234202   5.448   1.178   3.732  0.8167 -0.5450 -0.2649
  101MOL     C334203   5.432   1.034   3.731  0.9446 -0.9109 -0.9171
  101MOL     C434204   5.497   0.962   3.631  0.5784  0.9623 -1.1790
  101MOL     C534205   5.577   1.024   3.532 -0.1263  0.3959  0.3126
  101MOL     O634206   5.632   0.954   3.432 -0.3702 -0.3910  0.2258
  101MOL     C734207   5.593   1.163   3.534  0.0705 -1.0176  0.2698
  101MOL     C834208   5.537   1.240   3.638  0.0044 -0.0563 -0.5676
  101MOL     C934209   5.321   1.399   3.786 -0.1923  0.3170 -0.9694
  101MOL    H1034210   5.324   1.218   3.905  0.8114 -0.1676  1.3379
  101MOL    H1134211   5.372   0.989   3.808 -0.2094 -1.3743 -2.0743
  101MOL    H1234212   5.488   0.854   3.627  1.1991  0.7777  1.6203
  101MOL    H1334213   5.648   1.001   3.352  1.7545  1.2986  1.5786
  101MOL    H1434214   5.648   1.218   3.459 -0.4541 -1.8218 -0.7034
  101MOL    H1534215   5.549   1.347   3.638  1.5149 -0.2058  0.0074
  101MOL    H1634216   5.294   1.378   3.682 -1.5824 -1.2727 -0.2986
  101MOL    H1734217   5.391   1.480   3.767  1.1555 -0.8626 -1.1834
  101MOL    H1834218   5.481   1.300   3.898  0.9398  0.0714 -1.5788
  101MOL    C1934219   5.191   1.432   3.855  0.3413  0.3518  0.0845
  101MOL    C2034220   5.091   1.316   3.869 -0.0036  1.1800 -0.2033
  101MOL    C2134221   5.067   1.270   3.998  1.0386 -1.1661 -0.3865
  101MOL    C2234222   4.960   1.181   4.026 -0.7733  0.0072  0.2838
  101MOL    C2334223   4.877   1.127   3.917 -0.2038 -0.3958 -0.6884
  101MOL    O2434224   4.760   1.052   3.935 -0.4791  0.4024 -0.1436
  101MOL    C2534225   4.918   1.163   3.786 -0.1820 -0.0239  0.5209
  101MOL    C2634226   5.015   1.258   3.759 -0.3013 -0.8784  0.0361
  101MOL    C2734227   5.133   1.549   3.776 -0.5940  0.5870 -0.7397
  101MOL    H2834228   5.219   1.468   3.954 -2.4995  1.6814  0.4478
  101MOL    H2934229   5.119   1.316   4.081  1.0151 -2.3478  0.2930
  101MOL    H3034230   4.939   1.152   4.128 -0.0718 -3.3481 -0.4631
  101MOL    H3134231   4.739   1.058   4.027  0.2209 -0.1379  0.0560
  101MOL    H3234232   4.854   1.127   3.707 -0.4716  1.7311 -0.0580
  101MOL    H3334233   5.032   1.293   3.658 -0.9387 -0.3654  0.1041
  101MOL    H3434234   5.067   1.507   3.700  1.9886 -0.2831 -2.5485
  101MOL    H3534235   5.208   1.607   3.721  1.7109  0.4515  2.1423
  101MOL    C3634236   5.063   1.654   3.866  0.6025 -0.0334 -0.6654
  101MOL    C3734237   4.944   1.608   3.956  0.0220  0.3245  0.3055
  101MOL    C3834238   4.933   1.644   4.098  0.0192  0.6789 -0.5826
  101MOL    C3934239   4.831   1.586   4.181 -0.2237 -0.0535  0.2382
  101MOL    C4034240   4.739   1.493   4.119  0.0585 -0.0675 -0.6327
  101MOL    O4134241   4.641   1.431   4.189 -0.5540  0.1969  0.0137
  101MOL    C4234242   4.743   1.460   3.983  0.2036 -0.5849 -0.6658
  101MOL    C4334243   4.848   1.514   3.901  0.1659  0.2873  0.5705
  101MOL    C4434244   5.016   1.776   3.773  0.3822  0.2217  0.4026
  101MOL    H4534245   5.140   1.696   3.931  0.5693 -0.7527 -0.1506
  101MOL    H4634246   5.010   1.708   4.138 -0.9522  1.2152  0.4457
  101MOL    H4734247   4.818   1.604   4.287 -0.3477 -1.2227  0.4281
  101MOL    H4834248   4.612   1.493   4.254 -1.4277 -1.0661  0.8538
  101MOL    H4934249   4.688   1.372   3.953 -0.2060 -0.7874  0.6325
  101MOL    H5034250   4.846   1.479   3.799  1.8715  3.0368 -0.4696
  101MOL    H5134251   5.094   1.815   3.708  1.1340 -1.1691  0.4384
  101MOL    H5234252   4.934   1.731   3.717  0.6967  1.5236 -1.1220
  101MOL    C5334253   4.954   1.895   3.853  0.1957 -0.4804  0.5495
  101MOL    C5434254   5.047   1.945   3.955 -0.1365 -0.0818  0.4080
  101MOL    C5534255   4.999   1.965   4.085 -0.7011 -0.0560  1.3469
  101MOL    C5634256   5.080   2.026   4.189 -0.5650  0.7454  0.2640
  101MOL    C5734257   5.219   2.058   4.155 -0.5853 -0.1415  0.3411
  101MOL    O5834258   5.307   2.086   4.253 -0.3635 -0.4188  0.3586
  101MOL    C5934259   5.264   2.038   4.023 -0.3189 -0.4465  0.4631
  101MOL    C6034260   5.180   1.987   3.924  0.3491 -0.1286 -0.0478
  101MOL    C6134261   4.909   2.020   3.771 -0.5055 -0.2441 -0.5100
  101MOL    H6234262   4.866   1.848   3.897 -2.0626 -0.2161 -3.3947
  101MOL    H6334263   4.901   1.933   4.118 -0.6534 -2.7258 -0.9184
  101MOL    H6434264   5.037   2.035   4.288 -0.5246 -1.4118  0.4911
  101MOL    H6534265   5.314   2.008   4.306  2.1411  0.7542  1.8837
  101MOL    H6634266   5.361   2.069   3.988  0.1702 -0.8392  1.4353
  101MOL    H6734267   5.223   1.975   3.826  0.4453 -2.7152  0.2770
  101MOL    H6834268   4.896   1.986   3.668  1.3074  0.7773 -1.0964
  101MOL    H6934269   4.979   2.103   3.768 -0.6184 -0.1049  0.6175
  101MOL    C7034270   4.766   2.073   3.805 -0.6630 -0.7810  0.2823
  101MOL    C7134271   4.692   2.141   3.687  0.2868  0.0165  0.1635
  101MOL    C7234272   4.762   2.196   3.577 -0.7411 -0.0715  0.1829
  101MOL    C7334273   4.700   2.260   3.468 -0.4220  0.2455 -0.7042
  101MOL    C7434274   4.560   2.261   3.464 -0.1908  0.0906  1.0672
  101MOL    O7534275   4.502   2.301   3.346  0.4222 -0.5406 -0.0995
  101MOL    C7634276   4.487   2.200   3.569  0.1774  0.2354 -0.2316
  101MOL    C7734277   4.550   2.137   3.683 -0.3541 -0.6070 -0.1079
  101MOL    C7834278   4.762   2.164   3.930  0.1102 -0.7891 -0.0432
  101MOL    H7934279   4.711   1.980   3.821 -1.2774 -0.4350  0.2041
  101MOL    H8034280   4.869   2.192   3.586 -0.6743  0.2868 -0.4261
  101MOL    H8134281   4.759   2.303   3.389 -0.2662  1.4130  0.0312
  101MOL    H8234282   4.560   2.347   3.287 -0.9722 -0.7239 -1.6535
  101MOL    H8334283   4.380   2.196   3.571  0.0330  2.2591 -2.1141
  101MOL    H8434284   4.491   2.093   3.762 -0.8580  0.8964  0.3751
  101MOL    H8534285   4.836   2.126   4.001  0.3512  0.6367  0.4842
  101MOL    H8634286   4.661   2.155   3.971 -0.4784  1.4060 -0.9773
  101MOL    C8734287   4.778   2.320   3.918 -0.2684  0.2954  0.3649
  101MOL    C8834288   4.920   2.351   3.868  0.5345  0.0041  0.5530
  101MOL    C8934289   4.932   2.422   3.750 -0.7484 -1.0638 -0.3820
  101MOL    C9034290   5.060   2.459   3.701  0.8614 -0.4552  0.0361
  101MOL    C9134291   5.173   2.408   3.762  0.6334  0.4561 -0.1621
  101MOL    O9234292   5.296   2.423   3.701 -0.1063  0.2209 -0.5494
  101MOL    C9334293   5.156   2.345   3.885  0.0616 -0.2897 -0.2489
  101MOL    C9434294   5.028   2.322   3.942  0.1693 -0.6640  0.9845
  101MOL    C9534295   4.753   2.403   4.044 -0.4875 -0.1618 -0.2571
  101MOL    H9634296   4.712   2.350   3.837  0.2373 -1.4306 -0.7247
  101MOL    H9734297   4.843   2.449   3.696 -1.3562  0.8179  1.5048
  101MOL    H9834298   5.066   2.511   3.606  0.6376  0.0159  0.2800
  101MOL    H9934299   5.316   2.498   3.648 -0.5525  0.5733 -0.2228
  101MOL   H10034300   5.240   2.303   3.938  1.2844  0.5754 -1.4675
  101MOL   H10134301   5.015   2.274   4.038 -2.2453  0.4471  1.2589
  101MOL   H10234302   4.831   2.367   4.112 -1.0432 -2.7091 -0.9075
  101MOL   H10334303   4.786   2.505   4.024 -2.8235  0.4587 -1.0402
  101MOL   C10434304   4.617   2.394   4.119 -0.4990 -0.6165 -0.2874
  101MOL   C10534305   4.500   2.412   4.013  0.0404  0.2410 -0.5570
  101MOL   C10634306   4.403   2.315   3.978 -0.0343  0.1859  0.2708
  101MOL   C10734307   4.315   2.339   3.871 -0.8720  0.0693  1.0254
  101MOL   C10834308   4.320   2.457   3.792 -0.1702 -0.2767  0.3313
  101MOL   O10934309   4.238   2.478   3.683 -0.4981 -0.7135 -0.2254
  101MOL   C11034310   4.422   2.550   3.823  0.2214  0.2275 -0.3916
  101MOL   C11134311   4.516   2.526   3.928 -0.0556  0.8932 -0.7731
  101MOL   C11234312   4.618   2.504   4.220  0.5674 -0.2784  0.0583
  101MOL   H11334313   4.619   2.296   4.167 -0.0342 -0.1011  0.7444
  101MOL   H11434314   4.385   2.220   4.026 -0.2734 -0.3005 -0.7775
  101MOL   H11534315   4.238   2.267   3.848 -1.0236  0.0914  1.4601
  101MOL   H11634316   4.264   2.553   3.632  2.4890  0.9449  3.5303
  101MOL   H11734317   4.444   2.636   3.762  1.5916  1.8726  2.3329
  101MOL   H11834318   4.600   2.592   3.943  0.2654  0.8838 -2.4900
  101MOL   H11934319   4.644   2.600   4.176 -0.7777  0.1283  0.1257
  101MOL   H12034320   4.704   2.485   4.284 -0.9129 -1.5248  1.7164
  101MOL   C12134321   4.497   2.517   4.325 -0.7925  0.0228  0.0245
  101MOL   C12234322   4.542   2.519   4.467  0.0794 -0.3381  0.4597
  101MOL   C12334323   4.489   2.427   4.560 -0.5802  0.4609 -0.8885
  101MOL   C12434324   4.535   2.427   4.696 -0.1088 -0.2353 -0.2783
  101MOL   C12534325   4.618   2.533   4.745 -0.2542  1.0726  0.2172
  101MOL   O12634326   4.664   2.537   4.876 -0.0901 -0.2084 -0.1783
  101MOL   C12734327   4.675   2.620   4.650 -0.3690 -0.4634  0.1028
  101MOL   C12834328   4.637   2.616   4.513 -0.1144 -0.1745 -0.6228
  101MOL   C12934329   4.418   2.651   4.299 -0.7099 -0.2729  0.3136
  101MOL   H13034330   4.419   2.442   4.310 -2.3752  1.8916 -1.3237
  101MOL   H13134331   4.421   2.349   4.528 -0.0965 -0.3811  0.1016
  101MOL   H13234332   4.497   2.346   4.756 -0.7431 -0.5498 -1.1016
  101MOL   H13334333   4.604   2.475   4.915 -1.3127  0.4901 -0.9068
  101MOL   H13434334   4.746   2.696   4.681 -1.2474  1.6055 -2.7251
  101MOL   H13534335   4.674   2.690   4.443  2.6992 -0.7776  0.1988
  101MOL   H13634336   4.413   2.675   4.193  0.0110 -0.0295  0.3326
  101MOL   H13734337   4.478   2.733   4.338 -0.2371 -1.4259  2.0830
  101MOL   C13834338   4.278   2.659   4.367  0.6002  0.3301 -0.0772
  101MOL   C13934339   4.185   2.540   4.335 -0.1392 -0.3673 -0.3800
  101MOL   C14034340   4.141   2.512   4.207 -0.5321  0.4022 -0.0038
  101MOL   C14134341   4.062   2.395   4.178  0.2926  0.4068  0.4781
  101MOL   C14234342   4.021   2.310   4.284  0.1514  0.2555 -0.4540
  101MOL   O14334343   3.945   2.200   4.266  0.0801  0.3935 -0.4537
  101MOL   C14434344   4.064   2.346   4.416  0.4845 -0.0767  0.1052
  101MOL   C14534345   4.139   2.462   4.445  0.1106  0.8003 -0.0192
  101MOL   C14634346   4.211   2.795   4.332 -0.1470  0.1791  0.6807
  101MOL   H14734347   4.309   2.660   4.472 -0.0812 -1.1561  0.1523
  101MOL   H14834348   4.172   2.582   4.131  2.4675  0.4301  1.1773
  101MOL   H14934349   4.042   2.381   4.073  1.6791 -0.4826  0.3310
  101MOL   H15034350   3.971   2.130   4.324  0.2619  1.3201  0.5958
  101MOL   H15134351   4.034   2.284   4.499 -2.2581 -0.1074 -0.8363
  101MOL   H15234352   4.172   2.487   4.545  0.1279  2.6568 -0.4717
  101MOL   H15334353   4.108   2.778   4.364 -0.8482  0.7071 -1.2386
  101MOL   H15434354   4.201   2.807   4.224  1.0949  1.0462  0.6609
  101MOL   C15534355   4.274   2.917   4.411 -0.4449  0.7964  0.1515
  101MOL   C15634356   4.281   2.903   4.564  0.6093 -0.3483 -0.0810
  101MOL   C15734357   4.172   2.929   4.648  0.5578 -0.4153 -0.8106
  101MOL   C15834358   4.182   2.915   4.787 -0.2647  0.3873  0.1738
  101MOL   C15934359   4.309   2.868   4.845 -0.0271  0.5630  0.3612
  101MOL   O16034360   4.325   2.847   4.979 -0.0186  0.0037  0.2141
  101MOL   C16134361   4.422   2.857   4.761  0.6797  0.7514  0.2222
  101MOL   C16234362   4.397   2.863   4.625 -0.6335  0.0007  0.8544
  101MOL   C16334363   4.209   3.043   4.362  0.0041 -0.0925  0.1343
  101MOL   H16434364   4.380   2.923   4.383 -0.9718  2.4918 -1.5363
  101MOL   H16534365   4.074   2.959   4.612  0.4308  0.1695  0.0001
  101MOL   H16634366   4.090   2.904   4.844  0.0749  0.0613  0.6611
  101MOL   H16734367   4.409   2.880   5.006  0.5135 -0.7513 -0.4856
  101MOL   H16834368   4.515   2.820   4.801  0.2956  0.2576  0.6567
  101MOL   H16934369   4.481   2.846   4.559 -2.0012  0.8291 -1.1254
  101MOL   H17034370   4.257   3.130   4.408 -0.8740  0.5312 -0.1053
  101MOL   H17134371   4.107   3.037   4.401 -0.3056  1.8081 -0.2977
  101MOL   C17234372   4.220   3.088   4.217 -0.0152 -0.7298  0.0092
  101MOL   C17334373   4.367   3.119   4.172  0.2328  1.0099 -0.0351
  101MOL   C17434374   4.431   3.232   4.225  0.0890 -0.4822  0.1081
  101MOL   C17534375   4.570   3.259   4.203  1.5100 -0.1420 -0.3330
  101MOL   C17634376   4.636   3.175   4.110  0.0199  0.0426  0.8818
  101MOL   O17734377   4.762   3.196   4.065  0.5363 -0.1995  0.5285
  101MOL   C17834378   4.564   3.065   4.053 -0.3454  0.1421 -0.5339
  101MOL   C17934379   4.436   3.036   4.087  0.0006 -0.1752 -0.0993
  101MOL   C18034380   4.127   3.216   4.191 -0.1970  0.1659 -0.1763
  101MOL   H18134381   4.182   3.007   4.155  1.5061 -2.1416  0.8513
  101MOL   H18234382   4.375   3.292   4.295  1.6498 -0.1405  1.0916
  101MOL   H18334383   4.612   3.350   4.242  1.1536 -0.2175  0.2283
  101MOL   H18434384   4.792   3.283   4.087 -0.2583  0.0192  0.7635
  101MOL   H18534385   4.614   3.016   3.971 -2.1458 -2.1336 -0.3147
  101MOL   H18634386   4.398   2.939   4.058  0.5444  0.0323 -1.5352
  101MOL   H18734387   4.169   3.290   4.258 -0.9567 -0.3483  0.8896
  101MOL   H18834388   4.029   3.190   4.231  0.6336 -2.1916  0.4069
  101MOL   C18934389   4.122   3.276   4.052  0.0334  0.3453  0.2196
  101MOL   C19034390   4.088   3.173   3.955 -0.8839 -0.6869  0.0425
  101MOL   C19134391   3.969   3.104   3.946  0.7223 -1.0523 -0.3493
  101MOL   C19234392   3.934   3.008   3.848 -0.0344 -0.1564  0.1682
  101MOL   C19334393   4.036   2.969   3.761 -0.3074  0.3688  0.4588
  101MOL   O19434394   4.015   2.876   3.665 -0.5414  0.0315  0.2402
  101MOL   C19534395   4.166   3.023   3.768  1.3575 -0.5110  0.5729
  101MOL   C19634396   4.185   3.131   3.863  0.0274  0.1607  0.2005
  101MOL   C19734397   4.027   3.392   4.052  0.8395 -0.0942 -0.3656
  101MOL   H19834398   4.215   3.312   4.008 -0.8314  3.2642  0.6727
  101MOL   H19934399   3.888   3.136   4.009  0.9508  0.0551 -0.6058
  101MOL   H20034400   3.832   2.974   3.848 -0.4350  1.0100  0.4499
  101MOL   H20134401   3.928   2.840   3.675 -0.9546  0.6563 -1.0227
  101MOL   H20234402   4.247   2.992   3.703  0.3061  0.5627 -1.2928
  101MOL   H20334403   4.284   3.170   3.879 -0.1910  0.0405  2.0173
  101MOL   H20434404   3.956   3.374   4.134  1.7518  0.2682  0.5183
  101MOL   H20534405   3.972   3.400   3.958 -0.7882  0.6856  0.6236
  101MOL   C20634406   4.083   3.538   4.062 -0.0039  0.6677 -0.4083
  101MOL   C20734407   4.182   3.557   4.171  0.0215 -0.1662  0.1425
  101MOL   C20834408   4.142   3.536   4.304  0.0938 -0.0397 -0.4651
  101MOL   C20934409   4.243   3.538   4.405 -0.6004  0.3015  0.0820
  101MOL   C21034410   4.377   3.556   4.370 -0.8796 -0.2387 -0.1574
  101MOL   O21134411   4.479   3.543   4.464  0.2646 -0.0864  0.4753
  101MOL   C21234412   4.415   3.579   4.237  0.5037 -1.1922 -0.1424
  101MOL   C21334413   4.311   3.590   4.137  0.4155  0.4779 -0.4046
  101MOL   C21434414   3.957   3.635   4.065  0.2499  0.4127 -0.3903
  101MOL   H21534415   4.146   3.548   3.974  2.9353  0.5871  1.6136
  101MOL   H21634416   4.043   3.513   4.341  0.1984 -0.3340 -0.3697
  101MOL   H21734417   4.214   3.522   4.508 -0.9417  1.5985  0.1964
  101MOL   H21834418   4.456   3.484   4.534  0.2020 -0.0580  0.4798
  101MOL   H21934419   4.517   3.580   4.203  0.4090 -0.9268 -0.4250
  101MOL   H22034420   4.334   3.613   4.034  2.5996  4.3160  0.8381
  101MOL   H22134421   3.899   3.650   4.156  0.0382 -1.3816 -0.2233
  101MOL   H22234422   3.872   3.600   4.007 -0.5092  0.4139  0.7170
  101MOL   C22334423   3.983   3.773   3.999 -0.7791 -0.1112  0.2557
  101MOL   C22434424   4.048   3.881   4.094  0.3186 -0.1561  0.2243
  101MOL   C22534425   4.177   3.929   4.074 -0.4357 -0.2830  0.4114
  101MOL   C22634426   4.238   4.007   4.172 -1.0561 -0.8440 -0.1384
  101MOL   C22734427   4.162   4.068   4.269 -0.0249 -0.2042 -0.1202
  101MOL   O22834428   4.219   4.162   4.348  0.5612 -0.2398  0.3613
  101MOL   C22934429   4.034   4.024   4.292  0.4924 -0.0779 -0.2037
  101MOL   C23034430   3.977   3.931   4.203  0.4875  0.6576  0.4432
  101MOL   C23134431   3.856   3.838   3.934  0.4558  0.4426 -0.2430
  101MOL   H23234432   4.060   3.762   3.923 -0.7591  0.9646  0.1045
  101MOL   H23334433   4.239   3.900   3.990 -0.4193 -0.4738  0.4901
  101MOL   H23434434   4.343   4.032   4.176 -1.0347 -1.0092  0.3416
  101MOL   H23534435   4.168   4.170   4.427 -1.2943  2.1853 -1.0152
  101MOL   H23634436   3.965   4.068   4.362  1.4602  1.5521 -0.2525
  101MOL   H23734437   3.877   3.904   4.236 -0.1071  2.2943  0.0130
  101MOL   H23834438   3.803   3.763   3.876  1.5075 -0.3269 -0.2290
  101MOL   H23934439   3.803   3.875   4.022  0.6973  0.1342  0.0326
  101MOL   C24034440   3.886   3.961   3.847  0.5544 -0.2371  0.4407
  101MOL   C24134441   3.986   3.929   3.726 -0.0567 -0.8049 -0.3092
  101MOL   C24234442   4.102   4.005   3.714 -0.1084 -0.0623  0.1739
  101MOL   C24334443   4.199   3.972   3.618 -0.1799  0.6945  0.3631
  101MOL   C24434444   4.175   3.868   3.525 -0.5321 -0.7579  0.3371
  101MOL   O24534445   4.272   3.839   3.431  0.0738  0.3869 -0.5532
  101MOL   C24634446   4.053   3.799   3.528 -0.3253 -0.3493  0.0149
  101MOL   C24734447   3.961   3.833   3.626 -0.2720 -0.6111 -0.0097
  101MOL   C24834448   3.751   4.010   3.785  0.0442  0.1243 -0.6229
  101MOL   H24934449   3.929   4.041   3.908 -1.4500  0.6256  0.7506
  101MOL   H25034450   4.117   4.091   3.779 -1.0167  0.3977 -0.2149
  101MOL   H25134451   4.285   4.037   3.604  0.2271 -0.2269 -1.5833
  101MOL   H25234452   4.244   3.771   3.371 -1.6365  2.2983 -2.0096
  101MOL   H25334453   4.032   3.733   3.446  0.0558  1.7926 -1.8589
  101MOL   H25434454   3.868   3.778   3.631 -1.1822  0.9793  1.1382
  101MOL   H25534455   3.692   3.924   3.753 -1.7711  0.9386  0.3977
  101MOL   H25634456   3.698   4.036   3.877  2.1701 -0.6500  0.8382
  101MOL   C25734457   3.752   4.119   3.676 -0.3284  0.0208  0.2594
  101MOL   C25834458   3.604   4.145   3.640 -0.0148  0.1073 -0.5280
  101MOL   C25934459   3.558   4.117   3.512  0.0117  0.3637 -0.4579
  101MOL   C26034460   3.420   4.126   3.481 -0.1498 -0.2275 -0.0222
  101MOL   C26134461   3.333   4.160   3.588 -0.4486  0.1584  0.7439
  101MOL   O26234462   3.197   4.150   3.562 -0.1378  0.9273 -0.2028
  101MOL   C26334463   3.375   4.200   3.713  0.4089 -0.1376 -0.4268
  101MOL   C26434464   3.515   4.193   3.738 -0.7149  0.6016  0.1646
  101MOL   C26534465   3.827   4.249   3.716  0.1710 -0.0204  0.1753
  101MOL   H26634466   3.801   4.076   3.588 -2.9303 -1.8446 -0.3419
  101MOL   H26734467   3.636   4.098   3.439  0.4635  2.6981 -0.6052
  101MOL   H26834468   3.386   4.103   3.381  0.5508  1.0565 -0.5745
  101MOL   H26934469   3.174   4.155   3.471 -1.1595  1.3631  0.0757
  101MOL   H27034470   3.307   4.243   3.785 -1.1289 -1.3538 -1.1343
  101MOL   H27134471   3.550   4.229   3.834 -1.2712  4.3617 -0.9456
  101MOL   H27234472   3.933   4.233   3.733 -0.4152 -2.7420  1.4799
  101MOL   H27334473   3.772   4.293   3.799 -4.1654  1.2695 -3.1771
  101MOL   C27434474   3.834   4.346   3.608  0.6669  0.3807 -0.1731
  101MOL   C27534475   3.950   4.318   3.513  0.2943 -0.0946 -0.1615
  101MOL   C27634476   3.917   4.274   3.380  0.0876  0.5142  0.5248
  101MOL   C27734477   4.019   4.251   3.287  0.8397 -0.4053  0.0724
  101MOL   C27834478   4.153   4.267   3.328  0.7344  0.6738 -0.1623
  101MOL   O27934479   4.255   4.233   3.251  0.6958 -0.0280 -0.0330
  101MOL   C28034480   4.189   4.312   3.454  0.1119 -1.0986 -0.5995
  101MOL   C28134481   4.084   4.333   3.544 -0.7975  0.5219 -0.0923
  101MOL   C28234482   3.839   4.491   3.668 -0.8838 -0.3739  0.2101
  101MOL   H28334483   3.749   4.340   3.541  1.2794 -1.5065 -0.8120
  101MOL   H28434484   3.814   4.252   3.357  0.0491 -0.8553  1.9068
  101MOL   H28534485   3.991   4.225   3.186 -0.8875 -0.1988  0.4935
  101MOL   H28634486   4.235   4.186   3.172  1.0345 -0.9928  0.4459
  101MOL   H28734487   4.292   4.338   3.474 -0.1022 -0.0209 -0.9132
  101MOL   H28834488   4.109   4.370   3.642  0.2526 -0.7898  0.1509
  101MOL   H28934489   3.926   4.505   3.733 -1.4116 -0.8242  1.0204
  101MOL   H29034490   3.866   4.563   3.590 -1.6856 -0.8240 -0.4824
  101MOL   C29134491   3.714   4.559   3.738 -0.4235  0.3210 -0.2929
  101MOL   C29234492   3.597   4.590   3.645 -0.0437 -0.1955  0.0377
  101MOL   C29334493   3.619   4.661   3.520  0.6729 -0.0190  0.1758
  101MOL   C29434494   3.515   4.681   3.427 -0.0260 -0.6195  0.5212
  101MOL   C29534495   3.387   4.632   3.464 -0.1150  0.4449 -0.1388
  101MOL   O29634496   3.285   4.633   3.379 -0.0686  0.3607 -0.1203
  101MOL   C29734497   3.369   4.563   3.581 -0.1762  0.4729 -0.3940
  101MOL   C29834498   3.469   4.543   3.674 -0.6948 -0.6845 -0.6219
  101MOL   C29934499   3.750   4.677   3.831 -0.3465 -0.2135 -0.2622
  101MOL   H30034500   3.671   4.483   3.803 -0.3188  0.7346  0.2651
  101MOL   H30134501   3.718   4.695   3.494  0.4576 -0.1598 -0.8325
  101MOL   H30234502   3.537   4.741   3.340 -1.1883 -0.0687  0.6028
  101MOL   H30334503   3.303   4.666   3.293 -0.6937 -3.0464 -1.6229
  101MOL   H30434504   3.269   4.530   3.604 -0.4015  0.7741 -0.9464
  101MOL   H30534505   3.438   4.498   3.768 -0.4733  0.3707 -0.0332
  101MOL   H30634506   3.655   4.712   3.871  0.0197 -1.5156  1.7772
  101MOL   H30734507   3.792   4.757   3.770  2.3061 -0.1331  1.5978
  101MOL   C30834508   3.845   4.649   3.948  0.1167 -1.2257  0.2048
  101MOL   C30934509   3.790   4.537   4.036 -0.2901  0.5164 -0.0803
  101MOL   C31034510   3.684   4.568   4.126 -0.1614 -0.4923 -0.5614
  101MOL   C31134511   3.629   4.472   4.215  0.0129 -0.0299  0.3205
  101MOL   C31234512   3.692   4.343   4.210  0.8870 -0.1850 -0.1895
  101MOL   O31334513   3.645   4.250   4.294  0.0650 -0.1774  0.1495
  101MOL   C31434514   3.794   4.309   4.122 -0.1492 -0.7659 -0.3682
  101MOL   C31534515   3.854   4.408   4.045  0.2696 -0.3306  0.3791
  101MOL   C31634516   3.870   4.785   4.019  0.3791 -0.1841 -0.0817
  101MOL   H31734517   3.942   4.615   3.913  1.0080  1.4976 -0.1029
  101MOL   H31834518   3.638   4.666   4.126 -1.1675 -0.9370  0.9001
  101MOL   H31934519   3.549   4.501   4.282 -0.0538  2.3669 -0.7267
  101MOL   H32034520   3.570   4.290   4.335  1.0589  3.1045 -1.1058
  101MOL   H32134521   3.836   4.209   4.122  0.6245 -0.4426 -0.6564
  101MOL   H32234522   3.940   4.380   3.985 -0.0524  0.3566 -0.4175
  101MOL   H32334523   3.781   4.797   4.080  0.5281 -0.4283  0.1857
  101MOL   H32434524   3.877   4.863   3.943  0.4364  1.9562  2.0394
  101MOL   C32534525   4.001   4.785   4.102  0.0023 -0.0383 -0.0184
  101MOL   C32634526   3.985   4.860   4.232  0.0073  0.2148  0.3495
  101MOL   C32734527   3.988   5.000   4.234 -0.7262  0.1686  0.3501
  101MOL   C32834528   3.964   5.061   4.355  0.5028  0.3384 -0.1855
  101MOL   C32934529   3.959   4.987   4.475  0.1023  0.2222  0.5781
  101MOL   O33034530   3.978   5.055   4.593 -0.5981  0.1160 -0.3554
  101MOL   C33134531   3.954   4.842   4.471 -0.1011 -0.1173 -0.5812
  101MOL   C33234532   3.963   4.787   4.350 -0.1226 -0.0955  0.4346
  101MOL   C33334533   4.122   4.841   4.022  0.5596  0.1659 -0.1817
  101MOL   H33434534   4.025   4.684   4.135 -1.2862 -0.2977  0.1748
  101MOL   H33534535   3.997   5.062   4.145 -0.7256 -1.3401 -0.7195
  101MOL   H33634536   3.959   5.169   4.359  0.3263  0.2844  1.2992
  101MOL   H33734537   4.002   5.143   4.568 -0.4886 -0.0307 -0.7788
  101MOL   H33834538   3.942   4.784   4.561 -0.2772  0.2960 -0.3342
  101MOL   H33934539   3.955   4.679   4.338  1.3294 -0.0503 -1.1180
  101MOL   H34034540   4.218   4.809   4.061  1.1952  2.1976  0.0057
  101MOL   H34134541   4.123   4.950   4.013 -0.9953  0.3898  1.8795
  101MOL   H34234542   4.110   4.795   3.923 -0.9040 -0.1349  0.1267
  102MOL     C134543   2.248   2.231   7.131  0.3457  0.3141  0.1067
  102MOL     C234544   2.255   2.264   6.988 -0.8478  0.4431 -0.5061
  102MOL     C334545   2.362   2.219   6.912 -0.9199 -0.3936  0.1615
  102MOL     C434546   2.380   2.260   6.779 -0.0277  0.7004 -0.3598
  102MOL     C534547   2.298   2.361   6.730 -0.5491 -0.0974  0.1514
  102MOL     O634548   2.331   2.405   6.602  0.1385  0.1453 -0.9825
  102MOL     C734549   2.190   2.412   6.807  0.5887  0.3279  0.2156
  102MOL     C834550   2.170   2.363   6.935 -1.0434  0.2139 -0.4128
  102MOL     C934551   2.284   2.089   7.169  0.5320 -0.1259 -0.6834
  102MOL    H1034552   2.297   2.309   7.190 -0.8215 -0.5282  2.2468
  102MOL    H1134553   2.434   2.153   6.958  0.3365 -1.0436 -2.6677
  102MOL    H1234554   2.458   2.212   6.722  0.9477 -0.2319  1.7046
  102MOL    H1334555   2.384   2.346   6.551 -0.7212 -1.2846 -0.2527
  102MOL    H1434556   2.124   2.482   6.759  2.4701  2.9124  1.2529
  102MOL    H1534557   2.096   2.410   6.998 -1.3965  0.8161 -1.2759
  102MOL    H1634558   2.386   2.052   7.182 -0.3861 -1.4214  3.6605
  102MOL    H1734559   2.228   2.020   7.105 -0.1324 -0.1708 -0.0631
  102MOL    H1834560   2.144   2.246   7.159  0.3008  1.1339 -0.4828
  102MOL    C1934561   2.216   2.064   7.307 -0.2417 -0.1165 -0.0596
  102MOL    C2034562   2.289   2.142   7.416  0.6484  0.2426 -0.0286
  102MOL    C2134563   2.419   2.121   7.461  0.0134 -0.0256  0.3419
  102MOL    C2234564   2.485   2.206   7.545  0.0152 -0.4373  0.3867
  102MOL    C2334565   2.413   2.325   7.590  0.1400 -0.8248 -0.4754
  102MOL    O2434566   2.483   2.419   7.666  0.0100  0.8074  0.2924
  102MOL    C2534567   2.277   2.338   7.556  0.1714 -0.0477  0.6851
  102MOL    C2634568   2.215   2.248   7.476 -0.3039 -0.3365 -0.1062
  102MOL    C2734569   2.202   1.911   7.339 -0.0460 -0.9613  0.8270
  102MOL    H2834570   2.117   2.107   7.294 -0.3089  0.1821  1.3893
  102MOL    H2934571   2.478   2.046   7.411  1.6420  2.3629 -1.4723
  102MOL    H3034572   2.586   2.184   7.578  0.6011 -0.7608 -1.5216
  102MOL    H3134573   2.575   2.410   7.647 -0.1291 -0.0121  0.0030
  102MOL    H3234574   2.225   2.424   7.596  0.5725  1.1205 -1.2436
  102MOL    H3334575   2.110   2.262   7.455 -0.5645 -0.4296  1.1317
  102MOL    H3434576   2.166   1.897   7.441 -1.8048 -0.7971  0.2401
  102MOL    H3534577   2.305   1.875   7.345  0.8446  1.3491 -0.0161
  102MOL    C3634578   2.129   1.819   7.233 -0.0206  0.4598  0.1496
  102MOL    C3734579   2.009   1.874   7.164 -0.5469  0.0393 -0.1270
  102MOL    C3834580   1.893   1.908   7.238  0.2050 -0.6963 -0.2933
  102MOL    C3934581   1.780   1.965   7.182  0.2432 -0.7573  0.5922
  102MOL    C4034582   1.767   1.978   7.041 -0.0494 -0.7110 -0.2202
  102MOL    O4134583   1.659   2.034   6.984  0.3124  0.3659  0.3409
  102MOL    C4234584   1.880   1.938   6.961  0.0984  0.5671 -0.2561
  102MOL    C4334585   2.002   1.889   7.022 -0.1990  0.9851  0.0283
  102MOL    C4434586   2.093   1.681   7.295  0.2597 -0.2350 -0.7398
  102MOL    H4534587   2.200   1.796   7.154  0.1377 -2.0158  0.9599
  102MOL    H4634588   1.900   1.894   7.345  1.9735 -2.9683 -0.6615
  102MOL    H4734589   1.693   1.988   7.241  0.6877  2.8030 -0.0607
  102MOL    H4834590   1.640   2.033   6.891 -1.8293  0.6569  0.7522
  102MOL    H4934591   1.878   1.944   6.854 -0.3387 -2.5343 -0.4593
  102MOL    H5034592   2.084   1.852   6.962 -1.3182 -1.8569  0.2063
  102MOL    H5134593   2.034   1.686   7.386 -1.8041 -0.6177 -2.0013
  102MOL    H5234594   2.024   1.618   7.238 -0.3513  0.0831 -0.3489
  102MOL    C5334595   2.218   1.588   7.320  0.2827 -0.0826  0.1080
  102MOL    C5434596   2.216   1.536   7.459 -0.1445 -0.3718  0.3165
  102MOL    C5534597   2.330   1.543   7.534 -0.3143  0.7373 -0.5450
  102MOL    C5634598   2.348   1.474   7.658  0.2228  0.2955  0.0983
  102MOL    C5734599   2.233   1.410   7.709 -0.3401  0.6760 -0.4475
  102MOL    O5834600   2.244   1.353   7.830  0.3041  0.1626 -0.3546
  102MOL    C5934601   2.120   1.391   7.629 -0.5209  0.0074 -0.0914
  102MOL    C6034602   2.109   1.465   7.507  0.1223  0.1662  0.0172
  102MOL    C6134603   2.241   1.474   7.219  0.0917 -0.3044 -0.8493
  102MOL    H6234604   2.310   1.644   7.303  0.8630 -1.1398 -0.2291
  102MOL    H6334605   2.409   1.600   7.487 -0.3432  3.1260  2.1465
  102MOL    H6434606   2.441   1.484   7.713  0.0122 -0.6689  0.6256
  102MOL    H6534607   2.323   1.384   7.871 -0.8540  1.6398  0.7969
  102MOL    H6634608   2.042   1.320   7.654 -0.2782 -0.6253 -1.1216
  102MOL    H6734609   2.029   1.445   7.438  1.1409 -2.9757 -0.3098
  102MOL    H6834610   2.212   1.522   7.125 -0.9355  0.9956  0.1244
  102MOL    H6934611   2.156   1.408   7.237 -2.1046  2.3301 -1.2826
  102MOL    C7034612   2.380   1.410   7.231 -0.2658 -0.4341  0.4390
  102MOL    C7134613   2.490   1.515   7.194  0.0654 -0.4901  0.5264
  102MOL    C7234614   2.492   1.590   7.070 -1.1110 -0.1142 -0.5736
  102MOL    C7334615   2.603   1.668   7.033 -0.5669 -0.1810  0.6079
  102MOL    C7434616   2.722   1.661   7.112  0.5826  0.5070 -0.7452
  102MOL    O7534617   2.842   1.723   7.083  0.2386 -0.4607  0.0936
  102MOL    C7634618   2.712   1.595   7.234  0.5374  0.2161 -0.0472
  102MOL    C7734619   2.599   1.523   7.278  0.3107  0.4229  0.0979
  102MOL    C7834620   2.396   1.282   7.150 -0.1349 -0.2521  0.3517
  102MOL    H7934621   2.397   1.389   7.336 -2.2361 -1.4061  0.5823
  102MOL    H8034622   2.414   1.593   6.994  0.2059  0.3387 -1.9328
  102MOL    H8134623   2.600   1.734   6.949 -1.9331  1.4643  1.9222
  102MOL    H8234624   2.831   1.788   7.016  0.3711  2.2378  2.5851
  102MOL    H8334625   2.801   1.591   7.295  1.7215 -1.2409 -1.8276
  102MOL    H8434626   2.595   1.470   7.372 -2.1557  0.4624  0.0406
  102MOL    H8534627   2.340   1.295   7.057  0.2503 -1.7982 -0.1129
  102MOL    H8634628   2.322   1.220   7.200 -1.1622 -2.3839 -3.5935
  102MOL    C8734629   2.531   1.220   7.141  0.7533  0.2142  0.5339
  102MOL    C8834630   2.620   1.271   7.034  0.5379  0.3588  0.8641
  102MOL    C8934631   2.581   1.277   6.897 -0.4670 -0.3238  0.1150
  102MOL    C9034632   2.667   1.325   6.798  0.0082  0.0345 -0.4471
  102MOL    C9134633   2.795   1.375   6.831  0.3176 -0.0349  0.8306
  102MOL    O9234634   2.861   1.443   6.734 -0.1877 -0.3259  0.0531
  102MOL    C9334635   2.835   1.355   6.966 -0.4754 -0.0578  0.6670
  102MOL    C9434636   2.748   1.316   7.066  0.3440  0.3135 -0.2813
  102MOL    C9534637   2.514   1.072   7.124  0.0272  0.2856 -0.6283
  102MOL    H9634638   2.590   1.231   7.232  0.2505 -1.1845  1.0341
  102MOL    H9734639   2.481   1.247   6.867 -0.4924 -1.5299  1.3236
  102MOL    H9834640   2.641   1.298   6.697 -0.6565 -0.3242 -0.1797
  102MOL    H9934641   2.920   1.499   6.783 -2.4853  0.1479  2.4080
  102MOL   H10034642   2.935   1.382   6.996  0.0139  0.1762 -1.1034
  102MOL   H10134643   2.788   1.328   7.166 -1.2639 -0.1216  0.4358
  102MOL   H10234644   2.480   1.043   7.024 -4.4242 -0.6771  1.0905
  102MOL   H10334645   2.622   1.052   7.123 -0.4222 -2.3588  0.3786
  102MOL   C10434646   2.447   0.988   7.239  0.4493 -0.0227  1.0492
  102MOL   C10534647   2.499   1.041   7.371  0.4702  0.8381  0.2037
  102MOL   C10634648   2.634   1.030   7.399  0.0404 -0.6300  0.1259
  102MOL   C10734649   2.683   1.061   7.527  0.1614  0.3270  0.2039
  102MOL   C10834650   2.598   1.116   7.623  0.0354  0.2430 -0.4466
  102MOL   O10934651   2.641   1.145   7.748  0.5000 -0.1450 -0.3550
  102MOL   C11034652   2.461   1.130   7.595  0.2281 -0.3871  0.5245
  102MOL   C11134653   2.410   1.093   7.465 -0.3099 -0.5070  0.2047
  102MOL   C11234654   2.477   0.833   7.230 -0.0165 -0.2951  0.6015
  102MOL   H11334655   2.339   0.997   7.223  0.5942 -2.4534 -1.6932
  102MOL   H11434656   2.703   0.985   7.329  0.0397  0.1208 -0.3583
  102MOL   H11534657   2.786   1.053   7.558  0.1853 -0.4463 -0.0662
  102MOL   H11634658   2.734   1.142   7.760  0.2549 -2.0028  1.4238
  102MOL   H11734659   2.397   1.168   7.673  1.3236  1.4602  0.5616
  102MOL   H11834660   2.308   1.114   7.437 -0.2319 -1.7436 -1.0258
  102MOL   H11934661   2.583   0.833   7.257  0.1492 -1.0782 -0.0282
  102MOL   H12034662   2.477   0.790   7.129  1.0074 -1.6161  1.1439
  102MOL   C12134663   2.414   0.740   7.340 -0.4589  0.1695 -0.5612
  102MOL   C12234664   2.266   0.724   7.312 -0.8121 -0.4475  0.5208
  102MOL   C12334665   2.230   0.650   7.201  0.2468 -0.7324 -0.4896
  102MOL   C12434666   2.092   0.635   7.174  0.7673 -0.4126 -0.0820
  102MOL   C12534667   1.996   0.704   7.247 -0.7237  0.3942  0.4305
  102MOL   O12634668   1.862   0.706   7.210 -0.2663  0.5322  0.1640
  102MOL   C12734669   2.036   0.771   7.359 -0.4296 -0.4127  0.3083
  102MOL   C12834670   2.166   0.774   7.399  0.4742  0.6466 -0.0947
  102MOL   C12934671   2.491   0.604   7.360 -0.0248  0.2618 -0.8045
  102MOL   H13034672   2.430   0.790   7.436  1.3520 -1.0882 -0.1802
  102MOL   H13134673   2.304   0.603   7.139  0.1321  0.5394 -1.6236
  102MOL   H13234674   2.073   0.558   7.100  0.6349 -0.3433 -0.1188
  102MOL   H13334675   1.813   0.746   7.280  0.3008 -0.3461  1.0734
  102MOL   H13434676   1.964   0.819   7.425 -0.4734 -1.5055  1.0614
  102MOL   H13534677   2.195   0.821   7.491  2.5651  2.4635 -1.6170
  102MOL   H13634678   2.490   0.533   7.278 -2.1782 -2.3782  1.3824
  102MOL   H13734679   2.424   0.554   7.430  0.8829  0.9802  0.5962
  102MOL   C13834680   2.630   0.621   7.439  0.7070  0.2026 -0.6122
  102MOL   C13934681   2.744   0.672   7.356 -0.1839 -0.1038  0.4529
  102MOL   C14034682   2.754   0.656   7.217  0.7663  0.0303 -0.6979
  102MOL   C14134683   2.842   0.733   7.140  0.0091 -0.0035 -0.4628
  102MOL   C14234684   2.937   0.812   7.213  0.4101  0.1063 -0.4575
  102MOL   O14334685   3.025   0.883   7.144 -0.1467 -0.3899 -0.0867
  102MOL   C14434686   2.945   0.812   7.351  0.2205 -0.1711 -0.6313
  102MOL   C14534687   2.842   0.747   7.427  0.4132 -0.2052 -0.0971
  102MOL   C14634688   2.664   0.497   7.525  1.0123 -0.4960 -0.3125
  102MOL   H14734689   2.614   0.697   7.515  4.8570  0.7451 -0.1888
  102MOL   H14834690   2.680   0.596   7.167 -0.4592  1.6222 -0.8241
  102MOL   H14934691   2.841   0.723   7.033  0.5980 -3.0027 -0.2248
  102MOL   H15034692   3.055   0.866   7.056  1.6132  0.1330  0.3725
  102MOL   H15134693   3.014   0.874   7.407  1.8529 -3.3390  1.0538
  102MOL   H15234694   2.839   0.772   7.532 -1.0382 -2.0813  0.3418
  102MOL   H15334695   2.755   0.523   7.577  0.8721 -0.5871 -0.0236
  102MOL   H15434696   2.702   0.416   7.463  0.3265 -0.7981 -0.3498
  102MOL   C15534697   2.556   0.474   7.633  0.2604 -0.0568  0.8891
  102MOL   C15634698   2.617   0.462   7.773  1.0948  0.6149  0.4320
  102MOL   C15734699   2.571   0.544   7.881 -0.0630 -0.1396  0.0748
  102MOL   C15834700   2.619   0.531   8.012  0.4633 -0.7977 -0.2150
  102MOL   C15934701   2.725   0.447   8.036  0.1725 -0.6099 -0.6617
  102MOL   O16034702   2.769   0.424   0.125  0.3698 -0.1217  0.2921
  102MOL   C16134703   2.778   0.368   7.928 -0.1338 -0.3215 -0.4036
  102MOL   C16234704   2.726   0.377   7.795 -0.6313  0.1360  0.5161
  102MOL   C16334705   2.472   0.354   7.601 -0.2504  0.1401  0.5447
  102MOL   H16434706   2.497   0.566   7.633  1.3003  0.6430 -0.9739
  102MOL   H16534707   2.493   0.616   7.862  0.3892  0.4025  0.2769
  102MOL   H16634708   2.578   0.603   0.044  0.6708  0.2986 -1.2043
  102MOL   H16734709   2.708   0.449   0.194 -0.2506 -2.8851  0.7996
  102MOL   H16834710   2.864   0.306   7.950  0.2400  0.2873 -0.1360
  102MOL   H16934711   2.761   0.321   7.709  0.0131  1.2295  0.0563
  102MOL   H17034712   2.529   0.261   7.608  0.7380  0.8739  2.6293
  102MOL   H17134713   2.449   0.359   7.494 -1.9338 -0.0532  0.8895
  102MOL   C17234714   2.341   0.353   7.674  0.0735 -0.7452 -0.4583
  102MOL   C17334715   2.282   0.220   7.701 -0.0879 -0.1177 -0.3095
  102MOL   C17434716   2.266   0.167   7.831  1.0655  0.2665  0.6163
  102MOL   C17534717   2.212   0.034   7.861 -0.0075  0.3106  0.1219
  102MOL   C17634718   2.168   7.996   7.750 -0.5125  0.0059 -0.6154
  102MOL   O17734719   2.107   7.879   7.767  0.0073 -0.0823 -0.1366
  102MOL   C17834720   2.182   0.009   7.618 -0.0338 -0.3667 -0.6575
  102MOL   C17934721   2.239   0.137   7.590  0.0831  0.1500 -0.0632
  102MOL   C18034722   2.237   0.453   7.610 -0.3836  0.3200  0.1765
  102MOL   H18134723   2.360   0.403   7.769 -1.3030  0.7675 -0.9504
  102MOL   H18234724   2.312   0.227   7.908  1.2113  2.6766 -1.2925
  102MOL   H18334725   2.204   0.007   7.965  1.6682  0.6856  0.3549
  102MOL   H18434726   2.049   7.863   7.694 -1.4345  0.6471  0.8349
  102MOL   H18534727   2.161   7.982   7.534 -0.5377 -2.1653  0.8223
  102MOL   H18634728   2.230   0.179   7.491  1.8777 -0.1059 -0.3541
  102MOL   H18734729   2.233   0.449   7.501  0.1274  1.5912  0.1039
  102MOL   H18834730   2.269   0.555   7.632  1.0789 -0.1244  0.1637
  102MOL   C18934731   2.095   0.435   7.659 -0.1021  0.4531 -0.1781
  102MOL   C19034732   2.088   0.457   7.818  0.3491 -0.5058  0.3181
  102MOL   C19134733   2.137   0.571   7.885 -0.1657 -0.3778  0.3711
  102MOL   C19234734   2.150   0.563   8.025 -0.1636 -0.1961  0.2117
  102MOL   C19334735   2.103   0.461   0.071  0.7149  0.2513  0.1259
  102MOL   O19434736   2.122   0.474   0.207 -0.4262  0.2393 -0.8331
  102MOL   C19534737   2.032   0.359   0.005 -0.3129 -0.3478 -0.1952
  102MOL   C19634738   2.025   0.361   7.899 -0.1716  0.5048  0.3219
  102MOL   C19734739   1.996   0.514   7.580  0.0841 -0.2269 -0.1776
  102MOL   H19834740   2.066   0.332   7.638 -1.0094  0.5938  0.3315
  102MOL   H19934741   2.156   0.659   7.825  0.5943  0.2613  1.5334
  102MOL   H20034742   2.199   0.651   0.025  1.7141 -0.7664 -0.8364
  102MOL   H20134743   2.158   0.559   0.227 -2.6212  1.3254 -1.4163
  102MOL   H20234744   1.975   0.279   0.050 -1.0143 -0.4858 -1.2971
  102MOL   H20334745   1.987   0.278   7.841 -1.1904  0.6418  0.8019
  102MOL   H20434746   1.993   0.490   7.474 -0.5242  1.1840 -0.4819
  102MOL   H20534747   2.031   0.616   7.586  1.0218 -0.4775 -1.2948
  102MOL   C20634748   1.842   0.520   7.636 -0.2926 -0.4417 -0.2840
  102MOL   C20734749   1.777   0.383   7.680  0.9266  0.3280  0.1976
  102MOL   C20834750   1.730   0.355   7.810  0.4381  0.2203  0.0856
  102MOL   C20934751   1.677   0.230   7.842  0.3836  0.7185  0.3500
  102MOL   C21034752   1.674   0.122   7.755 -0.1040 -0.3743  0.2648
  102MOL   O21134753   1.632   8.037   7.786 -0.0747 -0.5221 -0.1520
  102MOL   C21234754   1.724   0.143   7.625 -0.0685 -0.0247 -0.0866
  102MOL   C21334755   1.770   0.269   7.589  0.4250 -0.3050 -0.3858
  102MOL   C21434756   1.754   0.588   7.525 -0.2047 -0.0252  0.2435
  102MOL   H21534757   1.837   0.589   7.720 -0.3744 -0.9772  0.1548
  102MOL   H21634758   1.741   0.426   7.890  0.0670  0.6045 -0.2018
  102MOL   H21734759   1.655   0.212   7.946  1.2464 -1.4434  0.1751
  102MOL   H21834760   1.652   7.967   7.726 -0.0201 -2.6982  2.3296
  102MOL   H21934761   1.710   0.066   7.550  0.8151  0.8269 -1.1354
  102MOL   H22034762   1.801   0.283   7.487  0.0115  1.7412 -0.2515
  102MOL   H22134763   1.750   0.523   7.438 -3.5946  0.0610  0.2850
  102MOL   H22234764   1.809   0.681   7.511 -2.4338  1.0213 -1.9740
  102MOL   C22334765   1.608   0.624   7.557 -1.1255 -0.2095 -0.7865
  102MOL   C22434766   1.565   0.708   7.435  0.1088 -0.3452  0.2288
  102MOL   C22534767   1.605   0.843   7.416 -0.2073  0.2211 -0.1945
  102MOL   C22634768   1.523   0.927   7.336 -0.4018 -0.0418  0.3079
  102MOL   C22734769   1.428   0.866   7.248  0.4832  0.0256  0.3710
  102MOL   O22834770   1.365   0.941   7.154  0.4728  0.1696  0.4912
  102MOL   C22934771   1.418   0.725   7.245  0.5636  0.3151 -1.2937
  102MOL   C23034772   1.480   0.642   7.343 -0.0420  0.4924  0.0427
  102MOL   C23134773   1.593   0.689   7.698  0.0737 -0.1210 -0.3469
  102MOL   H23234774   1.545   0.536   7.555 -2.7843  0.9626 -2.4330
  102MOL   H23334775   1.687   0.886   7.472  0.1310  0.7667 -1.1026
  102MOL   H23434776   1.540   1.034   7.337  2.3480 -0.4100  2.7928
  102MOL   H23534777   1.303   0.904   7.093 -0.0031  0.1644  0.9768
  102MOL   H23634778   1.355   0.674   7.174 -1.2862  1.3960 -0.4609
  102MOL   H23734779   1.466   0.536   7.330 -0.8736  0.7182 -0.9763
  102MOL   H23834780   1.601   0.605   7.766  1.4259 -0.6238 -1.1191
  102MOL   H23934781   1.682   0.746   7.723  0.7655 -1.6467  0.7006
  102MOL   C24034782   1.472   0.780   7.729 -0.4044  0.2519  0.1503
  102MOL   C24134783   1.346   0.720   7.666 -0.4111 -0.2754 -0.0222
  102MOL   C24234784   1.283   0.787   7.563  0.4861  0.1226 -0.5056
  102MOL   C24334785   1.174   0.718   7.496 -0.6569  0.6893  0.5674
  102MOL   C24434786   1.141   0.591   7.531 -0.1981 -0.0720  0.1239
  102MOL   O24534787   1.040   0.522   7.466  1.0221 -0.3536  0.1396
  102MOL   C24634788   1.207   0.520   7.637 -0.0568  0.1603  0.2934
  102MOL   C24734789   1.311   0.587   7.707  0.4074  0.0980 -0.0978
  102MOL   C24834790   1.451   0.800   7.875 -0.0590 -0.0192  0.6062
  102MOL   H24934791   1.485   0.879   7.686 -0.3103  0.2433  0.1583
  102MOL   H25034792   1.311   0.887   7.532  1.2139  0.4676  1.2101
  102MOL   H25134793   1.129   0.767   7.410 -0.0903 -0.6171 -0.4819
  102MOL   H25234794   1.025   0.434   7.498  0.5168 -0.7565 -1.1430
  102MOL   H25334795   1.189   0.414   7.650  0.7414 -0.2058 -1.3652
  102MOL   H25434796   1.370   0.534   7.780 -1.1868 -0.6761  0.6647
  102MOL   H25534797   1.366   0.867   7.879 -1.2923 -1.3264 -2.3185
  102MOL   H25634798   1.429   0.711   7.935  3.5980 -0.7011  1.1023
  102MOL   C25734799   1.572   0.862   7.957 -0.5000 -0.1691 -0.4956
  102MOL   C25834800   1.519   0.981   8.037  0.2844  0.4213 -0.1830
  102MOL   C25934801   1.440   0.963   0.114  0.6953 -0.1959 -0.0401
  102MOL   C26034802   1.391   1.068   0.194 -0.7539  0.0658  0.5496
  102MOL   C26134803   1.424   1.201   0.149  1.4526 -0.1079  0.5883
  102MOL   O26234804   1.378   1.309   0.220  0.4397  0.1810  0.0063
  102MOL   C26334805   1.487   1.225   0.027 -0.6553 -0.8410 -0.3106
  102MOL   C26434806   1.537   1.112   7.995 -0.6916 -0.3781  0.0245
  102MOL   C26534807   1.651   0.763   0.011 -0.2277 -0.4704  1.1050
  102MOL   H26634808   1.637   0.906   7.882 -0.1417 -0.1042 -0.1474
  102MOL   H26734809   1.421   0.859   0.135 -0.8672 -0.2224 -1.4518
  102MOL   H26834810   1.329   1.054   0.281 -1.3710 -0.9033 -0.0313
  102MOL   H26934811   1.379   1.391   0.172  3.5639 -0.3724 -0.9536
  102MOL   H27034812   1.501   1.319   8.014  3.0068 -1.9728 -1.5517
  102MOL   H27134813   1.597   1.140   7.910  0.4312 -1.9302  0.2920
  102MOL   H27234814   1.675   0.669   7.999 -0.4285  0.1686 -0.2353
  102MOL   H27334815   1.582   0.725   0.086 -3.0052  3.4386  0.6674
  102MOL   C27434816   1.780   0.822   0.069  0.1823 -0.5212 -0.2962
  102MOL   C27534817   1.863   0.893   7.998  0.0671 -0.3751 -0.3099
  102MOL   C27634818   1.884   0.831   7.876 -0.1115  0.7091 -0.2648
  102MOL   C27734819   1.959   0.893   7.778  0.6951 -0.0319 -0.4638
  102MOL   C27834820   2.022   1.023   7.807  0.4161  0.2376  0.5533
  102MOL   O27934821   2.104   1.089   7.719 -0.3461 -0.0193 -0.1535
  102MOL   C28034822   2.012   1.076   7.940 -0.5938  0.0469 -0.1898
  102MOL   C28134823   1.925   1.020   8.033  0.8764 -0.1996  0.4836
  102MOL   C28234824   1.877   0.718   0.132  0.4841  0.3195  0.1477
  102MOL   H28334825   1.754   0.888   0.152  0.5108 -1.3295  0.4702
  102MOL   H28434826   1.846   0.735   7.846  1.6397  0.2749 -1.1984
  102MOL   H28534827   1.971   0.840   7.684 -1.9098  2.2801 -2.1967
  102MOL   H28634828   2.166   1.150   7.754 -2.8698  0.9103  2.9371
  102MOL   H28734829   2.064   1.166   7.969 -0.4276  0.7046 -2.3671
  102MOL   H28834830   1.915   1.064   0.094 -0.6551  2.2064 -0.6787
  102MOL   H28934831   1.879   0.623   0.079 -1.3210  1.2724 -1.6973
  102MOL   H29034832   1.984   0.741   0.130  0.5797  0.1536  2.3157
  102MOL   C29134833   1.870   0.698   0.287  0.5142 -0.3544 -0.2554
  102MOL   C29234834   1.733   0.641   0.331 -0.9870 -0.4174  0.4514
  102MOL   C29334835   1.693   0.526   0.262  0.3327  0.6601  0.4351
  102MOL   C29434836   1.569   0.463   0.298 -0.2905 -0.1999  0.3511
  102MOL   C29534837   1.486   0.517   0.402  0.2805 -0.2941 -0.0279
  102MOL   O29634838   1.373   0.450   0.439  0.2776 -0.2366  0.4332
  102MOL   C29734839   1.526   0.640   0.457  0.1721 -0.1263 -0.6472
  102MOL   C29834840   1.654   0.701   0.432  0.7288 -1.0351  0.2313
  102MOL   C29934841   1.914   0.832   0.360  0.5525  0.1642 -0.7776
  102MOL   H30034842   1.951   0.631   0.317 -0.4918 -1.3505  0.2891
  102MOL   H30134843   1.752   0.483   0.183  2.4096  1.9195  1.2585
  102MOL   H30234844   1.541   0.372   0.248 -2.1912 -0.3381  1.6165
  102MOL   H30334845   1.400   0.366   0.472  1.0372 -0.2939 -0.3146
  102MOL   H30434846   1.471   0.683   0.539  0.5971  0.2240 -0.5443
  102MOL   H30534847   1.695   0.787   0.483 -0.5175 -0.9776  1.1520
  102MOL   H30634848   1.916   0.807   0.466  0.2173  0.0560 -0.7941
  102MOL   H30734849   1.839   0.911   0.354 -0.6616 -0.7187  2.0367
  102MOL   C30834850   2.050   0.896   0.334  0.5985  0.0516 -0.2213
  102MOL   C30934851   2.177   0.813   0.330 -0.2234 -0.1787  0.3955
  102MOL   C31034852   2.215   0.720   0.429  0.9353 -0.2252 -0.3696
  102MOL   C31134853   2.333   0.644   0.424 -0.0934 -0.4158  0.0722
  102MOL   C31234854   2.423   0.662   0.321 -0.2357 -0.0171  0.1680
  102MOL   O31334855   2.545   0.603   0.322  0.2375 -0.0089 -0.3274
  102MOL   C31434856   2.396   0.755   0.220  0.7430 -0.3459  0.6701
  102MOL   C31534857   2.274   0.825   0.225 -0.1179  0.8428  0.0215
  102MOL   C31634858   2.069   1.033   0.404  0.1805  0.4384  0.1415
  102MOL   H31734859   2.045   0.921   0.228 -1.8508  2.3647  0.3965
  102MOL   H31834860   2.146   0.684   0.504  0.3511  0.0430 -0.7721
  102MOL   H31934861   2.357   0.574   0.503  1.6149 -2.2922 -2.0346
  102MOL   H32034862   2.570   0.569   0.407  1.2164  4.0020  1.1098
  102MOL   H32134863   2.462   0.777   0.137  0.4570  1.2156  0.8514
  102MOL   H32234864   2.261   0.899   0.147 -2.2376  0.8996  0.3957
  102MOL   H32334865   2.071   1.005   0.509 -0.3308  1.3960  0.4076
  102MOL   H32434866   1.983   1.098   0.389 -0.0009  0.0317 -0.6114
  102MOL   C32534867   2.184   1.124   0.379  0.5966  0.8230 -0.1440
  102MOL   C32634868   2.188   1.231   0.481  0.6465 -0.2150  0.0112
  102MOL   C32734869   2.260   1.204   0.596 -0.3176 -0.1675  0.8792
  102MOL   C32834870   2.266   1.301   0.698  0.0816  0.3076  0.1866
  102MOL   C32934871   2.206   1.430   0.677 -0.8272 -0.7179  0.2552
  102MOL   O33034872   2.229   1.532   0.762 -0.0846  0.5877  0.5475
  102MOL   C33134873   2.130   1.455   0.564 -0.1606  0.0702 -0.3303
  102MOL   C33234874   2.122   1.352   0.469 -0.9796 -0.6376  0.2670
  102MOL   C33334875   2.184   1.191   0.241 -0.0147  0.1085  0.5900
  102MOL   H33434876   2.280   1.072   0.382 -1.3129 -3.0734 -2.2920
  102MOL   H33534877   2.323   1.117   0.601 -1.4132 -0.9575  1.0439
  102MOL   H33634878   2.332   1.298   0.783  1.9848 -0.0248 -1.2816
  102MOL   H33734879   2.306   1.515   0.813 -0.4535 -1.2613  0.5457
  102MOL   H33834880   2.091   1.552   0.538 -0.2440  0.4255  1.0461
  102MOL   H33934881   2.059   1.368   0.383 -0.9150  0.3549  0.4033
  102MOL   H34034882   2.102   1.258   0.215  0.4219  1.3466  2.3792
  102MOL   H34134883   2.189   1.120   0.157 -0.6544 -0.0422  0.6743
  102MOL   H34234884   2.272   1.252   0.226  1.0451 -1.3190  0.8838
  103MOL     C134885   4.591   7.364   6.971 -0.2816  0.2340 -0.4608
  103MOL     C234886   4.522   7.337   7.099 -0.4465 -0.3210 -0.0312
  103MOL     C334887   4.562   7.225   7.182  0.2249 -0.0690 -0.3544
  103MOL     C434888   4.486   7.196   7.299 -0.2874  0.1557 -0.0932
  103MOL     C534889   4.375   7.277   7.328 -0.1082  0.0166  0.1044
  103MOL     O634890   4.296   7.243   7.431 -0.3580 -0.3690 -0.1923
  103MOL     C734891   4.338   7.386   7.246  0.0966 -0.0129  0.5090
  103MOL     C834892   4.414   7.424   7.139  0.1501 -0.4103 -0.2614
  103MOL     C934893   4.672   7.491   6.973  0.0930  0.6347 -0.2925
  103MOL    H1034894   4.652   7.277   6.948  0.0731  0.5975 -0.8987
  103MOL    H1134895   4.645   7.159   7.162 -1.5000 -2.0158 -1.3237
  103MOL    H1234896   4.514   7.121   7.372  2.0337  1.7218  0.6798
  103MOL    H1334897   4.317   7.166   7.482 -0.8054  0.4014  1.1885
  103MOL    H1434898   4.250   7.447   7.261 -0.4476  0.0670 -2.7195
  103MOL    H1534899   4.382   7.503   7.074 -2.2076 -0.8196  0.3510
  103MOL    H1634900   4.601   7.572   6.987  0.4124  0.9670 -0.5942
  103MOL    H1734901   4.708   7.526   6.876  1.6350  0.2712  0.1355
  103MOL    H1834902   4.514   7.374   6.895 -1.2083 -0.1594  0.4199
  103MOL    C1934903   4.785   7.487   7.084  0.3760  0.3484  0.2441
  103MOL    C2034904   4.868   7.620   7.093  0.0349 -0.1407  0.0282
  103MOL    C2134905   4.910   7.682   6.977  0.2868  0.2832 -0.4126
  103MOL    C2234906   4.977   7.804   6.975  0.7555  0.8445 -0.2422
  103MOL    C2334907   5.012   7.862   7.097 -0.4539  0.5329 -0.7522
  103MOL    O2434908   5.093   7.970   7.106 -0.3839 -0.3029 -0.0875
  103MOL    C2534909   4.967   7.801   7.215  0.6632 -0.1967 -0.3803
  103MOL    C2634910   4.886   7.684   7.217  0.2948 -1.1276 -0.1130
  103MOL    C2734911   4.878   7.362   7.058 -0.5849 -0.4118 -0.1788
  103MOL    H2834912   4.734   7.475   7.180 -1.6661  1.1695 -0.7136
  103MOL    H2934913   4.889   7.640   6.880 -1.0464  1.4192 -0.6239
  103MOL    H3034914   5.004   7.850   6.881  2.0650  1.0233  0.2002
  103MOL    H3134915   5.144   7.979   7.184 -0.5819  1.4387 -0.1387
  103MOL    H3234916   4.980   7.843   7.314  0.0852 -0.7996 -0.0456
  103MOL    H3334917   4.853   7.642   7.311 -1.3247 -0.2006 -0.2494
  103MOL    H3434918   4.941   7.386   6.972  1.1591  0.5045  1.3154
  103MOL    H3534919   4.826   7.268   7.040 -1.4003 -0.1503  0.7535
  103MOL    C3634920   4.983   7.344   7.173  0.3005  0.2540  0.0462
  103MOL    C3734921   5.086   7.241   7.120 -0.5397  0.2684 -0.1543
  103MOL    C3834922   5.048   7.108   7.085 -0.0530 -0.7324  0.6041
  103MOL    C3934923   5.138   7.015   7.040  0.4520 -0.1657 -0.2933
  103MOL    C4034924   5.274   7.049   7.028  0.2248 -0.0017  0.4625
  103MOL    O4134925   5.364   6.967   6.968  0.3007  0.1717  0.2737
  103MOL    C4234926   5.317   7.178   7.070  0.4969 -0.1351  0.7974
  103MOL    C4334927   5.220   7.267   7.119  0.2316 -0.5498  0.6295
  103MOL    C4434928   4.923   7.287   7.304 -0.3969  0.0241  0.3520
  103MOL    H4534929   5.029   7.441   7.191  0.9632  0.2726 -1.7405
  103MOL    H4634930   4.944   7.079   7.088 -0.2124 -0.2767 -0.1481
  103MOL    H4734931   5.097   6.922   7.004 -1.6926  0.5667  0.2285
  103MOL    H4834932   5.334   6.898   6.911  0.9628 -1.2769  1.6283
  103MOL    H4934933   5.419   7.212   7.068  0.9332 -1.1116  3.8642
  103MOL    H5034934   5.249   7.364   7.157 -2.2144  0.4379  0.0620
  103MOL    H5134935   4.833   7.339   7.337  1.2742  1.1503  3.2892
  103MOL    H5234936   4.879   7.189   7.285  0.6689 -0.9201  2.6202
  103MOL    C5334937   5.020   7.271   7.424  0.3036  0.6289  0.2107
  103MOL    C5434938   5.073   7.410   7.469  0.4436  0.5370  0.7624
  103MOL    C5534939   5.210   7.437   7.481 -0.4183 -0.4333 -0.1244
  103MOL    C5634940   5.256   7.561   7.512  0.1521  0.0026  0.0060
  103MOL    C5734941   5.165   7.660   7.563 -0.4831 -0.7756  0.2446
  103MOL    O5834942   5.214   7.781   7.619  0.4193 -0.0588  0.0290
  103MOL    C5934943   5.030   7.642   7.555  0.0346 -0.2169  0.3422
  103MOL    C6034944   4.985   7.515   7.504  0.4242 -0.3002  0.2402
  103MOL    C6134945   4.963   7.178   7.538 -0.2285  0.1543  0.0791
  103MOL    H6234946   5.109   7.220   7.387  1.1264  0.9951  1.6274
  103MOL    H6334947   5.291   7.376   7.443  0.6058  0.4747  0.5956
  103MOL    H6434948   5.363   7.576   7.515  0.2499 -0.5966 -0.3653
  103MOL    H6534949   5.151   7.836   7.663 -2.1101 -0.9533 -2.3206
  103MOL    H6634950   4.962   7.711   7.603 -1.1498 -1.3994  0.4056
  103MOL    H6734951   4.882   7.483   7.509  0.0600  0.8805  0.3631
  103MOL    H6834952   4.933   7.081   7.498 -1.3361  0.2035  0.7841
  103MOL    H6934953   4.871   7.223   7.575  0.1293 -0.2672  1.5289
  103MOL    C7034954   5.059   7.161   7.663 -0.5414 -0.5843 -0.8248
  103MOL    C7134955   5.197   7.093   7.629  0.1780  0.5303  0.0438
  103MOL    C7234956   5.209   6.999   7.523  0.1611 -0.3645 -0.1060
  103MOL    C7334957   5.325   6.933   7.486  0.7168 -0.1484  0.5679
  103MOL    C7434958   5.426   6.942   7.575 -0.0394 -0.3468  0.3031
  103MOL    O7534959   5.545   6.873   7.551 -0.0203  0.3260 -0.0752
  103MOL    C7634960   5.416   7.026   7.690 -0.3001 -0.7652 -0.3168
  103MOL    C7734961   5.305   7.102   7.714  0.3091 -0.0414 -0.3879
  103MOL    C7834962   4.994   7.104   7.791  0.0110 -0.1485 -0.1347
  103MOL    H7934963   5.081   7.266   7.685  2.0322 -1.0415 -1.0072
  103MOL    H8034964   5.129   7.001   7.451 -1.0967 -2.0773  1.1903
  103MOL    H8134965   5.327   6.864   7.403 -1.8846  3.6290 -2.8950
  103MOL    H8234966   5.599   6.876   7.628 -0.5172 -1.9418  0.3737
  103MOL    H8334967   5.496   7.051   7.758  0.2683  0.9863 -1.5850
  103MOL    H8434968   5.295   7.166   7.800  0.0731  2.5723 -2.3234
  103MOL    H8534969   5.070   7.084   7.867  1.3907  1.9265 -0.9428
  103MOL    H8634970   4.956   7.003   7.774  1.6070 -1.0743  1.5532
  103MOL    C8734971   4.886   7.187   7.865 -0.2339 -0.2915 -0.0672
  103MOL    C8834972   4.927   7.335   7.883 -0.2958 -0.5742  0.3552
  103MOL    C8934973   5.052   7.369   7.941  0.3862 -0.1062 -0.0426
  103MOL    C9034974   5.095   7.505   7.941  0.8204  0.2264 -0.6520
  103MOL    C9134975   5.006   7.603   7.897  0.4096  0.6289  0.8887
  103MOL    O9234976   5.039   7.735   7.933 -0.5530 -0.0410  0.5727
  103MOL    C9334977   4.885   7.570   7.830 -0.3138 -0.0319  0.0581
  103MOL    C9434978   4.842   7.437   7.829  0.2514 -0.0363  0.8048
  103MOL    C9534979   4.842   7.119   7.999 -0.2852  0.0468 -1.0345
  103MOL    H9634980   4.807   7.187   7.790 -0.4123  0.8114  0.1176
  103MOL    H9734981   5.117   7.290   7.977  1.4940  1.1904  0.8215
  103MOL    H9834982   5.191   7.528   7.985  1.2195  1.7268 -2.2662
  103MOL    H9934983   5.095   7.753   8.006  0.0237 -1.7035  0.5647
  103MOL   H10034984   4.829   7.651   7.785 -2.6068 -1.4324  0.2830
  103MOL   H10134985   4.749   7.417   7.778  1.9109 -1.2342 -1.8512
  103MOL   H10234986   4.923   7.084   0.025 -0.4933 -5.1032 -3.3331
  103MOL   H10334987   4.779   7.191   0.014 -1.3093 -0.8092 -1.0744
  103MOL   C10434988   4.745   7.003   7.991  0.3818 -0.4607 -0.2832
  103MOL   C10534989   4.639   7.008   7.885 -0.4858  0.0559 -0.0015
  103MOL   C10634990   4.557   7.121   7.871 -0.1609  0.1769  0.2444
  103MOL   C10734991   4.461   7.132   7.772 -0.2152  0.0926 -0.1301
  103MOL   C10834992   4.442   7.029   7.686 -0.2533  0.3336  0.0745
  103MOL   O10934993   4.347   7.038   7.592  0.8271  0.5334 -0.1402
  103MOL   C11034994   4.527   6.918   7.691 -0.0276 -0.4551 -0.2798
  103MOL   C11134995   4.622   6.902   7.789 -0.0683  0.3592 -0.4519
  103MOL   C11234996   4.687   6.972   0.100 -0.4241  0.2824  0.0737
  103MOL   H11334997   4.810   6.919   7.964 -0.1710 -0.7618 -0.6913
  103MOL   H11434998   4.573   7.201   7.942 -0.1896  1.3758 -1.0796
  103MOL   H11534999   4.392   7.215   7.778  0.7277  0.9361 -0.8891
  103MOL   H11635000   4.318   6.949   7.576  1.5341  0.1551  0.6586
  103MOL   H11735001   4.513   6.836   7.621 -2.5594  0.1858 -0.5651
  103MOL   H11835002   4.687   6.816   7.796 -0.5222  0.0392 -0.1780
  103MOL   H11935003   4.591   7.023   0.111 -1.6614 -1.8560 -0.6633
  103MOL   H12035004   4.754   7.010   0.178  0.5229  0.4282 -0.7917
  103MOL   C12135005   4.651   6.822   0.113 -0.2108 -0.4871  0.1283
  103MOL   C12235006   4.670   6.770   0.256  0.1229 -0.1055  0.2513
  103MOL   C12335007   4.769   6.670   0.291 -1.0613  0.4664 -0.1630
  103MOL   C12435008   4.787   6.626   0.421 -0.3100  0.5587 -0.1511
  103MOL   C12535009   4.700   6.677   0.522  0.0077 -0.1067  0.4623
  103MOL   O12635010   4.705   6.624   0.639  0.3733 -0.0596 -0.1402
  103MOL   C12735011   4.605   6.774   0.494 -0.1067  0.5845  0.0554
  103MOL   C12835012   4.587   6.821   0.356  0.3501  0.2933 -0.0147
  103MOL   C12935013   4.504   6.790   0.076  0.8283 -0.8200 -0.1103
  103MOL   H13035014   4.712   6.770   0.039 -1.3622 -2.1043  0.2937
  103MOL   H13135015   4.813   6.614   0.210 -3.5770 -1.2333 -0.4048
  103MOL   H13235016   4.860   6.551   0.446  0.3452  0.6938 -1.6541
  103MOL   H13335017   4.661   6.684   0.698 -0.0033 -0.1916 -0.2861
  103MOL   H13435018   4.531   6.803   0.566 -2.0064 -1.8168 -0.8857
  103MOL   H13535019   4.506   6.884   0.324  0.9550  0.4252 -1.2891
  103MOL   H13635020   4.482   6.845   8.023 -1.1365 -1.1195  0.1685
  103MOL   H13735021   4.429   6.836   0.140  0.1706 -3.4191  1.0511
  103MOL   C13835022   4.464   6.636   0.059  0.0127  0.2266  0.2923
  103MOL   C13935023   4.474   6.582   7.952 -0.0405 -0.5035  0.3410
  103MOL   C14035024   4.543   6.462   7.936 -1.1067  0.6603 -0.2136
  103MOL   C14135025   4.548   6.396   7.812 -0.3054  1.1110 -0.2196
  103MOL   C14235026   4.475   6.448   7.705  0.1678 -0.6288 -0.1701
  103MOL   O14335027   4.482   6.389   7.580 -0.4399  0.2620 -0.2500
  103MOL   C14435028   4.399   6.568   7.717  0.5022 -0.8706  0.4513
  103MOL   C14535029   4.406   6.639   7.840  0.2317 -0.2291 -0.0430
  103MOL   C14635030   4.333   6.608   0.139  0.8351  0.0127  0.2919
  103MOL   H14735031   4.547   6.586   0.109  0.7541  1.8998  0.7835
  103MOL   H14835032   4.590   6.407   8.016 -2.0896 -1.3371 -0.9842
  103MOL   H14935033   4.597   6.303   7.789 -2.6663 -0.0270 -0.8834
  103MOL   H15035034   4.560   6.336   7.578  0.5221  1.1224  5.6773
  103MOL   H15135035   4.334   6.608   7.641  0.1908  1.6137  1.9644
  103MOL   H15235036   4.351   6.731   7.855  0.4319  0.0227 -0.8667
  103MOL   H15335037   4.267   6.672   0.081  2.4530  1.6861  0.2467
  103MOL   H15435038   4.329   6.648   0.241 -1.8169  2.2539 -0.6186
  103MOL   C15535039   4.276   6.458   0.133  0.2130 -0.4036 -0.6923
  103MOL   C15635040   4.147   6.455   0.055  0.6988 -0.6940 -0.5893
  103MOL   C15735041   4.131   6.427   7.954  0.7145  0.0042  0.1512
  103MOL   C15835042   4.012   6.420   7.882 -0.2059  0.2255 -0.0146
  103MOL   C15935043   3.897   6.429   7.957 -0.4904  0.2936 -0.5402
  103MOL   O16035044   3.776   6.425   7.893 -0.4381 -0.0941 -0.5944
  103MOL   C16135045   3.901   6.459   0.055  0.0737  0.5126  0.2154
  103MOL   C16235046   4.023   6.479   0.119 -0.1293 -0.0382  0.1207
  103MOL   C16335047   4.281   6.368   0.262 -0.1131 -0.2751 -0.3285
  103MOL   H16435048   4.339   6.407   0.059  2.5597  1.5681 -0.0985
  103MOL   H16535049   4.216   6.438   7.890 -0.9556  0.3257 -2.0744
  103MOL   H16635050   4.013   6.423   7.774  0.4282  1.6696  0.0138
  103MOL   H16735051   3.777   6.460   7.805 -2.8735 -1.8303 -1.3637
  103MOL   H16835052   3.810   6.478   0.111 -0.2710 -1.7599  0.4838
  103MOL   H16935053   4.019   6.500   0.225 -1.1873 -2.0932  0.5116
  103MOL   H17035054   4.211   6.402   0.339  1.0137  1.4837 -0.0489
  103MOL   H17135055   4.375   6.361   0.316  0.1701  1.1009 -0.6372
  103MOL   C17235056   4.250   6.211   0.227 -0.6256 -0.2776  0.6335
  103MOL   C17335057   4.231   6.128   0.362  0.1830 -0.1000  0.3588
  103MOL   C17435058   4.105   6.140   0.427 -1.0001 -0.0671  0.2558
  103MOL   C17535059   4.066   6.048   0.523 -0.2685  0.6532 -0.6707
  103MOL   C17635060   4.161   5.948   0.564 -0.5624  0.2575 -0.7832
  103MOL   O17735061   4.128   5.851   0.654 -0.7017 -0.0434  0.3288
  103MOL   C17835062   4.294   5.946   0.512  0.2367  0.3651 -0.3506
  103MOL   C17935063   4.321   6.033   0.405 -0.3884  0.2190 -0.3978
  103MOL   C18035064   4.349   6.134   0.124 -0.0779  0.0119 -0.2276
  103MOL   H18135065   4.158   6.209   0.169  0.4531  1.7729 -1.2154
  103MOL   H18235066   4.035   6.213   0.389 -0.4358 -0.5370 -1.7785
  103MOL   H18335067   3.966   6.066   0.561  0.1318  0.5266  0.4453
  103MOL   H18435068   4.200   5.818   0.706 -0.1132 -0.8301 -0.9786
  103MOL   H18535069   4.368   5.872   0.540 -0.6744 -0.6377 -0.5633
  103MOL   H18635070   4.414   6.030   0.350 -0.8671  0.8548 -1.2550
  103MOL   H18735071   4.454   6.130   0.154 -0.6287 -1.5135  1.5820
  103MOL   H18835072   4.356   6.189   0.030 -0.6138 -0.1639 -0.3671
  103MOL   C18935073   4.313   5.991   0.092  0.3590  0.3449 -0.1109
  103MOL   C19035074   4.200   5.979   8.030 -0.6887  0.2964 -0.4589
  103MOL   C19135075   4.239   6.009   7.896 -0.8051  1.3545 -0.9513
  103MOL   C19235076   4.136   6.025   7.796 -0.0902 -0.4389 -0.5966
  103MOL   C19335077   4.003   6.023   7.840 -0.6934 -0.0148 -0.4639
  103MOL   O19435078   3.908   6.058   7.746 -0.2224  0.1442  0.3139
  103MOL   C19535079   3.965   5.985   7.967  0.3667 -0.0877  0.4017
  103MOL   C19635080   4.063   5.972   0.028  0.1349 -0.1827 -0.1143
  103MOL   C19735081   4.439   5.903   0.050  0.1956 -0.1781 -0.2416
  103MOL   H19835082   4.272   5.951   0.184 -0.6194  2.1513  0.2556
  103MOL   H19935083   4.342   6.025   7.869  0.4911 -2.4023  1.3114
  103MOL   H20035084   4.162   6.026   7.691  1.7487 -1.5869 -0.1719
  103MOL   H20135085   3.825   6.085   7.782 -0.4639  1.3101 -1.0677
  103MOL   H20235086   3.860   5.964   7.980  0.0778  0.8917 -0.3276
  103MOL   H20335087   4.023   5.946   0.124 -1.9398  0.4084 -0.8029
  103MOL   H20435088   4.526   5.919   0.114  0.4289  1.7210 -0.9943
  103MOL   H20535089   4.485   5.934   7.993  0.3470  0.6065  0.0853
  103MOL   C20635090   4.411   5.748   0.040 -0.4418 -0.0941 -0.0990
  103MOL   C20735091   4.370   5.689   0.174 -0.2902  0.2470  0.0553
  103MOL   C20835092   4.461   5.667   0.281  0.2200 -0.0044  0.5867
  103MOL   C20935093   4.415   5.612   0.402  0.0915 -0.2210  0.0656
  103MOL   C21035094   4.284   5.560   0.410 -0.4585 -0.7832  0.2224
  103MOL   O21135095   4.238   5.500   0.528 -0.3462  0.3202 -0.2233
  103MOL   C21235096   4.198   5.570   0.303 -0.7059 -0.2060 -0.5101
  103MOL   C21335097   4.244   5.633   0.186  0.0803 -0.0867  0.2993
  103MOL   C21435098   4.527   5.664   8.017  0.1049 -0.2015 -0.4088
  103MOL   H21535099   4.327   5.744   8.009 -0.4840  0.6381 -0.0873
  103MOL   H21635100   4.564   5.698   0.285  0.0233  0.6681  0.4060
  103MOL   H21735101   4.492   5.597   0.476 -1.5100 -1.6246  1.5000
  103MOL   H21835102   4.305   5.474   0.589 -0.7235 -1.7657 -0.6544
  103MOL   H21935103   4.096   5.541   0.321 -0.7808  0.0235 -0.5613
  103MOL   H22035104   4.164   5.645   0.114 -0.3000  0.3765  0.7949
  103MOL   H22135105   4.489   5.562   8.014 -0.0220 -0.0982 -3.6692
  103MOL   H22235106   4.615   5.670   0.044 -0.5790  0.8028  0.4296
  103MOL   C22335107   4.583   5.691   7.875 -0.9952 -0.1495  0.1716
  103MOL   C22435108   4.474   5.694   7.766 -0.2695  0.1931 -0.2087
  103MOL   C22535109   4.401   5.575   7.751  0.4434 -0.3459  0.9378
  103MOL   C22635110   4.291   5.581   7.664 -0.1574 -0.2745 -0.1919
  103MOL   C22735111   4.268   5.690   7.576  0.9180  0.4374 -0.3663
  103MOL   O22835112   4.163   5.673   7.493  0.4143  0.3044  0.8429
  103MOL   C22935113   4.353   5.799   7.579 -0.0871 -0.0870 -0.6344
  103MOL   C23035114   4.452   5.806   7.678  0.3418 -0.2651 -0.3235
  103MOL   C23135115   4.704   5.604   7.832  0.4073 -0.5326  0.6552
  103MOL   H23235116   4.628   5.790   7.870  2.5465 -1.7442 -1.6377
  103MOL   H23335117   4.411   5.487   7.813 -0.0193 -0.7538  0.4396
  103MOL   H23435118   4.228   5.493   7.660 -0.5071 -0.0300 -0.1458
  103MOL   H23535119   4.147   5.734   7.422 -0.9350 -0.6931  0.2750
  103MOL   H23635120   4.338   5.882   7.512  1.9754  0.1158 -0.8817
  103MOL   H23735121   4.520   5.890   7.684 -0.7331  0.7333 -1.6246
  103MOL   H23835122   4.711   5.519   7.900  0.4849 -0.0866  1.2091
  103MOL   H23935123   4.674   5.554   7.740  0.6779 -0.9274  0.7799
  103MOL   C24035124   4.842   5.677   7.841  0.1115 -0.0555  0.0493
  103MOL   C24135125   4.880   5.691   7.990  0.0062 -0.3089 -0.1941
  103MOL   C24235126   4.938   5.579   0.018  0.1360  0.1652 -0.4786
  103MOL   C24335127   4.976   5.586   0.159  0.3490 -0.3476  0.7454
  103MOL   C24435128   4.955   5.707   0.224 -0.0432  0.1248 -0.0610
  103MOL   O24535129   4.985   5.717   0.356 -0.1181 -0.8038  0.4796
  103MOL   C24635130   4.893   5.820   0.158 -0.3836 -0.0337 -0.3955
  103MOL   C24735131   4.856   5.808   0.023  0.2523 -0.2620 -0.1348
  103MOL   C24835132   4.959   5.618   7.754 -0.4999 -0.2872 -0.7555
  103MOL   H24935133   4.828   5.778   7.802  0.1049 -0.0368  0.1003
  103MOL   H25035134   4.955   5.489   7.999 -0.3861 -0.0492 -0.2908
  103MOL   H25135135   5.018   5.504   0.216 -0.4949  0.2241  2.2302
  103MOL   H25235136   5.062   5.667   0.376  0.5467  0.4550  1.1388
  103MOL   H25335137   4.865   5.899   0.227  0.9350  0.4068 -0.3410
  103MOL   H25435138   4.816   5.892   8.006 -1.5447 -0.6806  0.5087
  103MOL   H25535139   5.043   5.683   7.777 -0.6274 -0.0800 -0.8797
  103MOL   H25635140   4.989   5.522   7.797  0.2261  0.9660  1.6390
  103MOL   C25735141   4.928   5.592   7.604 -0.4319 -0.3274 -0.5413
  103MOL   C25835142   4.856   5.702   7.522  0.0573 -0.6487  0.1146
  103MOL   C25935143   4.733   5.671   7.459 -0.3545 -0.8131 -0.2506
  103MOL   C26035144   4.670   5.768   7.380  0.0072 -0.7321 -0.1927
  103MOL   C26135145   4.719   5.893   7.371 -0.7187 -0.2947  0.4305
  103MOL   O26235146   4.649   5.993   7.308  0.6130 -0.1362  0.6054
  103MOL   C26335147   4.842   5.932   7.431  0.2906  1.2752  0.8819
  103MOL   C26435148   4.911   5.834   7.502 -0.0085 -0.0272 -0.0443
  103MOL   C26535149   5.060   5.565   7.530 -0.4458 -0.5954  0.0264
  103MOL   H26635150   4.859   5.507   7.604 -2.6632  1.4481 -0.1811
  103MOL   H26735151   4.695   5.572   7.480  0.4080 -1.2118 -0.7629
  103MOL   H26835152   4.572   5.737   7.345  0.1860 -2.7964  1.0474
  103MOL   H26935153   4.624   5.963   7.221 -0.7549 -0.4257  1.0893
  103MOL   H27035154   4.883   6.030   7.413  1.6586  0.4498 -0.6686
  103MOL   H27135155   5.008   5.850   7.549  0.6787 -1.8569 -0.7917
  103MOL   H27235156   5.134   5.631   7.575  0.1895 -0.6951 -0.8485
  103MOL   H27335157   5.064   5.589   7.424 -1.4690  0.0095  0.1240
  103MOL   C27435158   5.104   5.420   7.542  0.7250 -0.0988 -0.0080
  103MOL   C27535159   5.249   5.408   7.581 -0.2074 -0.1110  0.1445
  103MOL   C27635160   5.358   5.474   7.516 -0.8059 -0.7401 -1.2258
  103MOL   C27735161   5.492   5.453   7.563  0.3675  0.4619 -0.5599
  103MOL   C27835162   5.512   5.370   7.678  0.0174 -0.3535  0.0800
  103MOL   O27935163   5.635   5.350   7.730 -0.5612  0.2331  0.0259
  103MOL   C28035164   5.406   5.302   7.736 -0.0502 -0.1870  0.2747
  103MOL   C28135165   5.278   5.319   7.686  0.4972  0.0750  1.1646
  103MOL   C28235166   5.073   5.326   7.421  0.4946  0.2009 -0.0715
  103MOL   H28335167   5.044   5.372   7.619  0.5922 -1.0770 -0.7037
  103MOL   H28435168   5.351   5.534   7.426  0.6377 -0.1140 -0.9415
  103MOL   H28535169   5.574   5.506   7.517 -0.6290  1.8897 -0.7158
  103MOL   H28635170   5.695   5.405   7.681 -1.0903  0.0504 -0.8315
  103MOL   H28735171   5.403   5.251   7.831 -2.2085 -2.1349 -0.7563
  103MOL   H28835172   5.197   5.269   7.737  1.4593 -0.1372  2.5063
  103MOL   H28935173   5.145   5.340   7.339 -1.1777 -1.1141 -1.8112
  103MOL   H29035174   5.086   5.221   7.444 -2.3941 -0.0390  0.5573
  103MOL   C29135175   4.932   5.326   7.354  0.4178 -0.3390 -0.0759
  103MOL   C29235176   4.817   5.287   7.442 -0.2389 -0.2869  0.0873
  103MOL   C29335177   4.834   5.208   7.560 -0.0359  0.6954  0.2892
  103MOL   C29435178   4.726   5.207   7.650  0.3447 -0.2376 -0.1064
  103MOL   C29535179   4.608   5.259   7.606 -0.3245 -0.3766  0.0723
  103MOL   O29635180   4.498   5.242   7.681 -0.7276 -0.3888  0.4442
  103MOL   C29735181   4.591   5.318   7.480  0.0903 -0.8979  0.7127
  103MOL   C29835182   4.698   5.347   7.400 -0.2638  0.3929  0.4686
  103MOL   C29935183   4.933   5.227   7.234 -0.8987 -0.2547  0.6878
  103MOL   H30035184   4.916   5.426   7.313  0.6111 -0.5680 -0.7224
  103MOL   H30135185   4.927   5.171   7.601 -0.5963 -1.2639 -0.1379
  103MOL   H30235186   4.733   5.153   7.743 -2.4531  1.8349  1.3724
  103MOL   H30335187   4.506   5.223   7.773 -0.8778 -2.2041  0.1146
  103MOL   H30435188   4.493   5.352   7.450 -0.0328 -1.6815  0.1971
  103MOL   H30535189   4.687   5.409   7.312 -2.7624 -0.6610 -0.0053
  103MOL   H30635190   4.841   5.169   7.228 -0.5627 -0.5706 -2.6770
  103MOL   H30735191   5.016   5.158   7.250  0.4028  0.6884 -1.6266
  103MOL   C30835192   4.955   5.300   7.094 -1.1170 -0.3236 -0.2429
  103MOL   C30935193   4.836   5.376   7.038 -0.4618  0.2969  0.1765
  103MOL   C31035194   4.709   5.318   7.030 -0.2299  0.4071  0.1487
  103MOL   C31135195   4.606   5.398   6.980  0.7150  0.3846 -0.1089
  103MOL   C31235196   4.624   5.527   6.938  0.2056  0.2461 -0.2988
  103MOL   O31335197   4.513   5.602   6.911  0.2827  0.6097 -0.3905
  103MOL   C31435198   4.750   5.582   6.946  0.2308 -0.1022  0.0570
  103MOL   C31535199   4.855   5.507   6.997 -0.0514  0.7656 -0.1456
  103MOL   C31635200   5.009   5.190   6.989  0.6762  0.1725 -0.2322
  103MOL   H31735201   5.044   5.361   7.113 -0.2173 -2.3533  2.3022
  103MOL   H31835202   4.698   5.214   7.058  1.3690  0.5217  1.2227
  103MOL   H31935203   4.508   5.352   6.980  0.5505  0.7384 -0.2372
  103MOL   H32035204   4.442   5.543   6.888 -1.5469  2.6477 -0.1030
  103MOL   H32135205   4.769   5.680   6.905  1.9690 -0.1299  0.7685
  103MOL   H32235206   4.958   5.536   6.989  0.3563 -1.2969 -2.8554
  103MOL   H32335207   4.946   5.104   7.007 -0.5477  1.5051  2.2304
  103MOL   H32435208   5.104   5.153   7.027 -0.0297 -1.9211 -0.4619
  103MOL   C32535209   5.025   5.237   6.841  0.6496 -0.2380  0.1299
  103MOL   C32635210   5.026   5.118   6.748 -0.4016  0.6394  0.5303
  103MOL   C32735211   5.138   5.034   6.757 -0.1422 -0.3916  0.6241
  103MOL   C32835212   5.154   4.926   6.666 -0.2043  0.2433 -0.6482
  103MOL   C32935213   5.053   4.905   6.569 -1.0839  0.5437  0.5369
  103MOL   O33035214   5.070   4.802   6.480  0.4339 -0.0998  0.6669
  103MOL   C33135215   4.943   4.985   6.562  0.8495 -0.7693  0.5827
  103MOL   C33235216   4.928   5.093   6.654 -0.0436  0.8446 -0.4981
  103MOL   C33335217   5.152   5.321   6.816 -0.0072 -0.7117 -0.0649
  103MOL   H33435218   4.932   5.290   6.817  2.1976  1.8382 -1.4709
  103MOL   H33535219   5.211   5.055   6.834  2.3495 -1.0718 -1.4496
  103MOL   H33635220   5.233   4.855   6.681  1.8954  2.1993 -2.0818
  103MOL   H33735221   4.994   4.780   6.428  0.5449 -0.2310  0.5613
  103MOL   H33835222   4.867   4.976   6.486  2.8154 -2.5175 -1.2308
  103MOL   H33935223   4.835   5.148   6.652  0.4267  1.6705  0.3563
  103MOL   H34035224   5.250   5.276   6.808  0.5227  0.5601 -0.8040
  103MOL   H34135225   5.168   5.394   6.895 -2.0872 -1.3149  0.9663
  103MOL   H34235226   5.160   5.366   6.717  0.9473  2.0737  1.2228
  104MOL     C135227   6.541   6.598   3.698 -0.6234  0.0815 -0.1832
  104MOL     C235228   6.493   6.471   3.634 -0.0365 -0.2515 -0.2424
  104MOL     C335229   6.580   6.375   3.584 -0.4345 -0.6252  0.8821
  104MOL     C435230   6.539   6.251   3.539 -0.1666  0.2263  0.2985
  104MOL     C535231   6.402   6.226   3.537 -0.7564  0.7726 -0.0273
  104MOL     O635232   6.362   6.116   3.477 -0.2387 -0.3869  0.1721
  104MOL     C735233   6.315   6.319   3.590 -0.2908  0.4544  0.4835
  104MOL     C835234   6.359   6.440   3.644  0.2239  0.1888  0.5390
  104MOL     C935235   6.525   6.606   3.850  0.1048  0.2304  0.5115
  104MOL    H1035236   6.646   6.610   3.669  0.6664 -1.8163  3.3497
  104MOL    H1135237   6.687   6.394   3.587 -0.4680  0.1118 -1.8263
  104MOL    H1235238   6.600   6.164   3.518  1.8760  1.7881 -0.3498
  104MOL    H1335239   6.428   6.099   3.410 -1.0022 -2.2637 -0.1052
  104MOL    H1435240   6.210   6.296   3.577  0.4249 -2.3440 -0.6124
  104MOL    H1535241   6.284   6.509   3.682 -0.7209 -0.5480  0.0527
  104MOL    H1635242   6.481   6.514   3.887  0.8536 -0.5002 -0.3846
  104MOL    H1735243   6.455   6.688   3.862  0.7533  0.5384  2.3749
  104MOL    H1835244   6.496   6.682   3.646 -0.4010  1.5944  2.0015
  104MOL    C1935245   6.654   6.622   3.936  0.6767  0.4493 -0.1832
  104MOL    C2035246   6.637   6.547   4.072 -0.7041 -0.2265  0.1238
  104MOL    C2135247   6.514   6.566   4.144  0.4870  0.1349  0.5178
  104MOL    C2235248   6.500   6.500   4.272 -0.1791 -0.6047  0.0668
  104MOL    C2335249   6.608   6.434   4.336  0.0340 -0.4825  0.5636
  104MOL    O2435250   6.605   6.382   4.464 -0.1079 -0.0422  0.5719
  104MOL    C2535251   6.726   6.418   4.265 -0.2532  0.2844  0.7916
  104MOL    C2635252   6.743   6.479   4.137  0.6305 -0.0017 -0.1599
  104MOL    C2735253   6.688   6.768   3.958 -0.4819  0.1343 -0.4914
  104MOL    H2835254   6.733   6.584   3.871 -0.1870  0.9749 -1.5780
  104MOL    H2935255   6.427   6.618   4.105 -0.7585 -0.4575  2.4268
  104MOL    H3035256   6.406   6.521   4.322  0.2059  0.5042  0.3350
  104MOL    H3135257   6.669   6.313   4.457 -0.0295 -0.0276  1.0747
  104MOL    H3235258   6.806   6.367   4.317 -0.6211  0.6537  1.7351
  104MOL    H3335259   6.842   6.478   4.094 -0.2320  2.4494 -2.3500
  104MOL    H3435260   6.624   6.815   4.033  0.8789 -0.1561  0.8573
  104MOL    H3535261   6.661   6.818   3.865 -1.8636 -0.0778 -0.2272
  104MOL    C3635262   6.837   6.816   3.990 -0.5443  0.1097 -0.1537
  104MOL    C3735263   6.886   6.762   4.125 -0.1777  0.0116  0.2024
  104MOL    C3835264   6.813   6.793   4.245  0.6005  0.8371  0.5995
  104MOL    C3935265   6.848   6.748   4.373 -0.7198 -0.0785  0.2496
  104MOL    C4035266   6.968   6.671   4.380 -0.3656  0.4185  0.3775
  104MOL    O4135267   7.007   6.629   4.500 -1.4004 -0.3674 -0.0639
  104MOL    C4235268   7.052   6.661   4.271 -1.0096  0.2082 -0.0578
  104MOL    C4335269   7.010   6.699   4.144 -0.0298 -0.3301  0.4764
  104MOL    C4435270   6.857   6.965   3.977 -0.4645  0.2084 -0.4133
  104MOL    H4535271   6.904   6.772   3.916 -2.0818  1.4308 -2.3751
  104MOL    H4635272   6.715   6.838   4.231  0.0415 -0.5967 -0.2578
  104MOL    H4735273   6.794   6.768   4.465 -1.3184  1.3656 -0.4125
  104MOL    H4835274   6.957   6.673   4.567 -2.0350  0.2927 -0.9568
  104MOL    H4935275   7.152   6.623   4.286 -1.0153 -0.1803 -0.9646
  104MOL    H5035276   7.076   6.675   4.063 -1.3124  1.4018 -1.1290
  104MOL    H5135277   6.797   6.996   3.891 -1.0768 -2.8753 -1.1526
  104MOL    H5235278   6.817   7.024   4.060 -0.4235  1.4893 -1.2763
  104MOL    C5335279   7.005   7.012   3.939  0.3118  0.1298 -0.9058
  104MOL    C5435280   7.062   6.952   3.808  0.2292 -0.5097  0.2238
  104MOL    C5535281   7.000   6.991   3.687 -0.0339  0.3240  1.1904
  104MOL    C5635282   7.052   6.948   3.563  0.2439  0.4571 -0.0225
  104MOL    C5735283   7.157   6.851   3.566 -0.4734  0.2733  0.6891
  104MOL    O5835284   7.202   6.794   3.453  0.6816 -0.0683  0.0471
  104MOL    C5935285   7.209   6.804   3.692 -0.6060  0.0474 -0.2051
  104MOL    C6035286   7.172   6.865   3.810  0.9260  0.1960 -0.5901
  104MOL    C6135287   7.008   7.169   3.946  0.5108  0.3498  0.2324
  104MOL    H6235288   7.064   6.976   4.024 -0.2089  3.0195  0.7490
  104MOL    H6335289   6.921   7.064   3.697 -0.6775 -0.4974  2.2287
  104MOL    H6435290   6.994   6.988   3.481  1.5740  4.9797  1.0609
  104MOL    H6535291   7.154   6.799   3.372  0.0013  1.1274  0.5143
  104MOL    H6635292   7.293   6.737   3.703  0.1807  1.1298  0.4732
  104MOL    H6735293   7.220   6.837   3.903  1.7976  3.5034  0.0263
  104MOL    H6835294   7.022   7.196   4.051  0.6747 -0.0535  0.3139
  104MOL    H6935295   6.908   7.202   3.917  0.4494 -0.5032 -0.5347
  104MOL    C7035296   7.110   7.252   3.862 -0.0365 -0.7408  0.3024
  104MOL    C7135297   7.256   7.241   3.905  0.2627  0.0100 -0.6208
  104MOL    C7235298   7.297   7.288   4.030  0.0037  0.4747  0.3276
  104MOL    C7335299   7.429   7.277   4.075  0.3860  0.7268 -0.1448
  104MOL    C7435300   7.531   7.237   3.987  0.2121  0.2575  0.4029
  104MOL    O7535301   7.664   7.231   4.009 -0.4596  0.2152  0.3768
  104MOL    C7635302   7.492   7.189   3.857 -0.0186  0.0847  0.2379
  104MOL    C7735303   7.356   7.196   3.814 -0.2159  0.0346 -0.0349
  104MOL    C7835304   7.059   7.396   3.846 -0.3299 -0.5746  0.3385
  104MOL    H7935305   7.098   7.200   3.767  1.8567 -1.0805  0.2298
  104MOL    H8035306   7.218   7.332   4.089  0.6987  2.8078 -0.4338
  104MOL    H8135307   7.451   7.328   4.168 -1.7309  3.2592 -0.9981
  104MOL    H8235308   7.689   7.302   4.066 -1.3163  0.2069  0.7571
  104MOL    H8335309   7.566   7.153   3.786  0.5793  0.3909  0.7108
  104MOL    H8435310   7.325   7.150   3.721 -2.5146  0.4012  0.5191
  104MOL    H8535311   7.087   7.455   3.934 -1.6689 -1.6326  1.4928
  104MOL    H8635312   6.951   7.407   3.846 -0.1912  0.9536  1.2611
  104MOL    C8735313   7.106   7.468   3.721 -0.2530 -0.0682 -0.9564
  104MOL    C8835314   7.182   7.599   3.755 -0.0625 -0.4219  0.2869
  104MOL    C8935315   7.316   7.583   3.801 -0.2643  0.2102  0.0432
  104MOL    C9035316   7.386   7.699   3.835  0.0618  0.4671  0.3962
  104MOL    C9135317   7.321   7.825   3.816 -0.0743 -0.3378 -0.4658
  104MOL    O9235318   7.386   7.940   3.843  0.0352 -0.2680 -0.4400
  104MOL    C9335319   7.191   7.834   3.777 -0.5716 -0.1518  0.2371
  104MOL    C9435320   7.115   7.725   3.743 -0.4807 -0.4200 -0.6622
  104MOL    C9535321   6.981   7.489   3.623  0.3214  0.1921 -0.6601
  104MOL    H9635322   7.175   7.406   3.663  0.1420  0.5684 -1.1743
  104MOL    H9735323   7.365   7.487   3.797  0.2518  0.4755 -0.0855
  104MOL    H9835324   7.490   7.706   3.862 -0.3100  0.3647  1.9176
  104MOL    H9935325   7.426   7.943   3.929 -1.9901  1.7142  0.4648
  104MOL   H10035326   7.140   7.929   3.770 -1.1075 -0.2894  2.0873
  104MOL   H10135327   7.013   7.742   3.711 -0.2228  1.7573 -0.4290
  104MOL   H10235328   6.898   7.536   3.676  0.0944  1.7074 -2.2962
  104MOL   H10335329   7.013   7.565   3.552 -1.7263 -0.0242 -1.8380
  104MOL   C10435330   6.947   7.364   3.540 -0.2553  0.0612 -0.5871
  104MOL   C10535331   7.030   7.373   3.415  0.4876  0.4655  0.5242
  104MOL   C10635332   7.141   7.285   3.405 -0.3488 -0.1497  0.0605
  104MOL   C10735333   7.225   7.300   3.296  0.5033 -0.4203  0.0931
  104MOL   C10835334   7.198   7.396   3.189 -0.2296  0.0480  0.3141
  104MOL   O10935335   7.280   7.420   3.082 -0.1429 -0.4330 -0.2794
  104MOL   C11035336   7.079   7.475   3.195 -0.4351 -0.6539 -0.0429
  104MOL   C11135337   6.999   7.463   3.312  0.0012  0.6418  0.9469
  104MOL   C11235338   6.794   7.363   3.533  0.7910  0.4208 -0.4009
  104MOL   H11335339   6.974   7.279   3.603 -2.1666 -0.9178 -1.0526
  104MOL   H11435340   7.168   7.218   3.485 -1.1917  0.2544  0.6884
  104MOL   H11535341   7.311   7.235   3.302  1.8192  1.2512 -0.2653
  104MOL   H11635342   7.355   7.364   3.073 -0.6018 -0.8897 -1.3754
  104MOL   H11735343   7.063   7.542   3.113  0.3514  0.0371  0.3709
  104MOL   H11835344   6.916   7.531   3.312  0.6654  1.4671  0.7288
  104MOL   H11935345   6.755   7.455   3.490  0.6575  1.0518  1.0318
  104MOL   H12035346   6.755   7.367   3.635 -1.9474  1.7281 -1.4345
  104MOL   C12135347   6.740   7.226   3.478  0.3860 -0.4588  0.3168
  104MOL   C12235348   6.612   7.177   3.542 -0.0581  0.2110  0.4451
  104MOL   C12335349   6.501   7.260   3.541  1.2775  0.1087 -0.1336
  104MOL   C12435350   6.384   7.215   3.601 -0.2973  0.4431 -0.1563
  104MOL   C12535351   6.377   7.091   3.659 -0.7338  0.1798  0.0552
  104MOL   O12635352   6.266   7.042   3.727  0.5145 -0.0145 -0.2070
  104MOL   C12735353   6.491   7.010   3.660 -0.1309 -0.0591 -0.0442
  104MOL   C12835354   6.613   7.051   3.598 -0.1730  0.1091 -0.0391
  104MOL   C12935355   6.714   7.243   3.327 -0.4855  0.5582  0.4050
  104MOL   H13035356   6.810   7.142   3.480 -1.7257 -2.2982 -0.2641
  104MOL   H13135357   6.513   7.361   3.505  0.2955  0.4166  0.3802
  104MOL   H13235358   6.296   7.278   3.610 -0.2433  0.3667  0.9623
  104MOL   H13335359   6.221   7.119   3.757 -2.5552 -1.1607 -1.6203
  104MOL   H13435360   6.493   6.919   3.718 -0.4568  0.7868  1.3307
  104MOL   H13535361   6.697   6.984   3.603  1.1927  1.7658 -0.2611
  104MOL   H13635362   6.801   7.287   3.278  0.3965  0.0026  1.4566
  104MOL   H13735363   6.635   7.317   3.315 -1.2108  0.1539  2.4595
  104MOL   C13835364   6.669   7.111   3.252 -0.0553 -0.1246  0.0502
  104MOL   C13935365   6.792   7.019   3.240  0.7282  0.7434 -0.0488
  104MOL   C14035366   6.913   7.054   3.179  0.8390 -0.9329 -1.0425
  104MOL   C14135367   7.014   6.955   3.161 -0.5452  0.0227  0.2317
  104MOL   C14235368   6.998   6.825   3.214 -0.1733 -0.0404  0.1566
  104MOL   O14335369   7.102   6.737   3.212  0.3345  0.0244 -0.2505
  104MOL   C14435370   6.887   6.799   3.293  0.3299  0.7736 -0.0566
  104MOL   C14535371   6.787   6.893   3.310  0.1304 -0.5453  0.3103
  104MOL   C14635372   6.604   7.152   3.117 -0.1091  0.4812 -0.0898
  104MOL   H14735373   6.592   7.065   3.314 -0.7599 -1.3907 -1.7188
  104MOL   H14835374   6.927   7.155   3.142 -2.7051 -0.1334 -0.3911
  104MOL   H14935375   7.109   6.980   3.115 -0.9621 -0.8809 -1.1466
  104MOL   H15035376   7.154   6.745   3.134  1.5793 -1.9923  0.3425
  104MOL   H15135377   6.885   6.706   3.348  1.7346  1.2387  0.8141
  104MOL   H15235378   6.695   6.878   3.364 -0.3100  2.4278  0.4974
  104MOL   H15335379   6.672   7.214   3.057  0.0841 -1.6809 -2.1790
  104MOL   H15435380   6.522   7.219   3.144 -0.0255  0.5897 -0.1024
  104MOL   C15535381   6.553   7.036   3.027  0.3881 -0.0338 -0.2450
  104MOL   C15635382   6.444   7.083   2.924  0.3985 -0.0983  0.4623
  104MOL   C15735383   6.327   7.144   2.970 -0.4872  0.2337 -0.0574
  104MOL   C15835384   6.236   7.192   2.874  0.0998  0.0911 -1.4978
  104MOL   C15935385   6.259   7.184   2.732  0.0978  0.1227 -0.3542
  104MOL   O16035386   6.178   7.232   2.637  0.3551  0.0393  0.8137
  104MOL   C16135387   6.371   7.103   2.688 -0.2557  0.3719 -0.0994
  104MOL   C16235388   6.461   7.056   2.787  0.3357  0.0649 -0.1306
  104MOL   C16335389   6.498   6.905   3.095  0.1395  0.4552 -0.4225
  104MOL   H16435390   6.638   7.009   2.965  0.7141  0.8959 -0.2151
  104MOL   H16535391   6.296   7.153   3.073 -2.1721  0.8748 -0.6055
  104MOL   H16635392   6.152   7.245   2.915  0.3240  0.7331 -1.8553
  104MOL   H16735393   6.127   7.301   2.676  0.1031 -0.0602  0.6596
  104MOL   H16835394   6.385   7.085   2.583 -0.0041 -0.2116  0.0335
  104MOL   H16935395   6.550   6.998   2.766  0.7669  0.4758  0.5832
  104MOL   H17035396   6.394   6.922   3.121 -0.3964 -0.1696 -2.1422
  104MOL   H17135397   6.551   6.879   3.187  0.1128 -0.7189 -0.7295
  104MOL   C17235398   6.501   6.782   3.003  0.0781  0.6062  0.4526
  104MOL   C17335399   6.392   6.687   3.055 -0.1828  0.3302  0.4958
  104MOL   C17435400   6.261   6.687   2.992 -0.2714 -0.8736  0.3625
  104MOL   C17535401   6.159   6.595   3.026  0.3973  0.1205  0.5679
  104MOL   C17635402   6.193   6.506   3.129  0.1297 -0.2671 -0.1566
  104MOL   O17735403   6.099   6.407   3.140 -0.4268 -0.4185 -0.6968
  104MOL   C17835404   6.313   6.514   3.205 -0.3676  0.3898  0.5500
  104MOL   C17935405   6.422   6.599   3.164  0.4323 -0.1497 -0.5411
  104MOL   C18035406   6.638   6.710   2.974  0.9696 -0.1643 -0.1200
  104MOL   H18135407   6.476   6.811   2.901 -0.9364 -1.1563  0.1616
  104MOL   H18235408   6.246   6.761   2.915  0.7553 -0.8684  0.1516
  104MOL   H18335409   6.065   6.592   2.973  0.6526 -0.2419  0.1321
  104MOL   H18435410   6.110   6.351   3.215 -0.7278 -0.8638 -0.9805
  104MOL   H18535411   6.336   6.435   3.275  0.9472 -0.9311 -1.3192
  104MOL   H18635412   6.513   6.609   3.220 -1.1103 -2.3252  2.4978
  104MOL   H18735413   6.683   6.689   3.071 -1.5690  0.5821  1.2723
  104MOL   H18835414   6.701   6.779   2.918  0.4802  1.5117  1.3492
  104MOL   C18935415   6.626   6.579   2.897 -0.0224  0.6969  0.1819
  104MOL   C19035416   6.542   6.581   2.769 -0.1705 -0.5447 -0.1824
  104MOL   C19135417   6.440   6.487   2.748 -0.0721 -0.4425  0.0078
  104MOL   C19235418   6.348   6.504   2.641 -0.9826 -0.3102  0.0818
  104MOL   C19335419   6.376   6.598   2.541 -0.0595 -0.2081  0.4801
  104MOL   O19435420   6.290   6.602   2.437 -0.1145 -0.2697  0.1406
  104MOL   C19535421   6.480   6.692   2.558 -0.1900  0.2673 -0.6602
  104MOL   C19635422   6.559   6.689   2.673 -0.5595  0.1261 -0.0638
  104MOL   C19735423   6.767   6.509   2.883 -0.2629  0.5194 -0.7564
  104MOL   H19835424   6.560   6.516   2.958 -2.6789  1.7775 -1.4810
  104MOL   H19935425   6.419   6.409   2.820 -2.1070  0.1041  0.0244
  104MOL   H20035426   6.262   6.441   2.628 -1.9518  1.3709 -2.0233
  104MOL   H20135427   6.312   6.667   2.373 -2.1837  1.2054  0.8737
  104MOL   H20235428   6.501   6.762   2.479 -2.1239  1.3213 -0.2609
  104MOL   H20335429   6.649   6.746   2.682 -0.2064 -0.3217 -0.7067
  104MOL   H20435430   6.819   6.527   2.977 -0.9719 -0.5552 -0.1457
  104MOL   H20535431   6.818   6.569   2.808  0.9764  0.3162 -0.0935
  104MOL   C20635432   6.774   6.351   2.859  0.1785 -0.2678  0.2388
  104MOL   C20735433   6.711   6.276   2.983 -0.6548 -0.3779 -0.2841
  104MOL   C20835434   6.591   6.202   2.967  0.4517  0.2141  0.9549
  104MOL   C20935435   6.526   6.137   3.069 -0.0536 -0.2030 -0.2466
  104MOL   C21035436   6.586   6.142   3.195 -0.6241  0.3806  0.3693
  104MOL   O21135437   6.541   6.060   3.289  0.3128 -0.4077 -0.3984
  104MOL   C21235438   6.707   6.206   3.216 -0.6137 -0.1098 -0.2910
  104MOL   C21335439   6.771   6.279   3.113 -0.1466 -0.4884 -0.2816
  104MOL   C21435440   6.924   6.305   2.825 -0.1868  0.0196  0.2664
  104MOL   H21535441   6.713   6.337   2.769  1.4636  0.3433 -0.7452
  104MOL   H21635442   6.539   6.180   2.874  1.1130  0.8075  0.4381
  104MOL   H21735443   6.433   6.086   3.048  0.6441 -1.7862  0.4870
  104MOL   H21835444   6.598   5.988   3.313 -0.7299 -0.7816  0.9888
  104MOL   H21935445   6.750   6.186   3.313 -0.4260 -1.9903 -0.7350
  104MOL   H22035446   6.859   6.340   3.129 -0.7331  0.9188 -2.2170
  104MOL   H22135447   6.976   6.261   2.910  2.6298  1.7232 -0.5213
  104MOL   H22235448   6.987   6.393   2.811  1.4988 -0.7236  2.7987
  104MOL   C22335449   6.926   6.212   2.709  0.9193 -0.0872 -0.4631
  104MOL   C22435450   7.029   6.107   2.724  0.1551  0.2229 -1.0534
  104MOL   C22535451   6.994   5.971   2.751 -0.5594  0.3955  0.0112
  104MOL   C22635452   7.090   5.871   2.768  0.0813  0.5956  0.0783
  104MOL   C22735453   7.223   5.903   2.748 -0.2381 -0.2233 -0.5359
  104MOL   O22835454   7.315   5.805   2.771 -0.5139  0.3385 -0.0865
  104MOL   C22935455   7.265   6.033   2.705  0.4770  0.0704 -0.1431
  104MOL   C23035456   7.169   6.132   2.687 -0.1838  0.4475  0.2424
  104MOL   C23135457   6.922   6.287   2.568 -0.0624  0.2518 -0.0440
  104MOL   H23235458   6.834   6.154   2.707  2.6325 -2.8554 -2.7278
  104MOL   H23335459   6.893   5.940   2.773 -0.2517 -0.3525  0.3810
  104MOL   H23435460   7.053   5.773   2.794 -1.6851  0.1669 -3.8046
  104MOL   H23535461   7.400   5.841   2.754 -0.8778  1.1229 -0.2916
  104MOL   H23635462   7.366   6.064   2.682  0.1157  2.1944  1.0571
  104MOL   H23735463   7.199   6.231   2.655  0.8041 -0.2617 -1.0627
  104MOL   H23835464   6.832   6.348   2.568  0.4011  0.9378 -0.8839
  104MOL   H23935465   7.006   6.354   2.586  0.7071 -1.1872  1.9993
  104MOL   C24035466   6.952   6.207   2.438 -0.3479 -0.6247  0.1571
  104MOL   C24135467   6.881   6.066   2.421 -0.1613 -0.3784 -0.1960
  104MOL   C24235468   6.752   6.033   2.468  0.1815 -0.6049 -0.3173
  104MOL   C24335469   6.694   5.907   2.465  0.4397  0.5985 -0.6639
  104MOL   C24435470   6.767   5.802   2.405 -0.0401 -0.1693  0.0111
  104MOL   O24535471   6.699   5.685   2.384  0.1530 -0.4113  0.2476
  104MOL   C24635472   6.904   5.822   2.365  0.0331 -0.4410  0.3975
  104MOL   C24735473   6.961   5.953   2.369  0.2575  0.4003 -0.4121
  104MOL   C24835474   6.904   6.302   2.324 -0.3875  0.0144 -0.1450
  104MOL   H24935475   7.060   6.194   2.434 -0.1263  1.2552 -0.7642
  104MOL   H25035476   6.692   6.112   2.512 -1.1452 -2.7349  1.8371
  104MOL   H25135477   6.591   5.890   2.491  0.2429  0.3484 -1.5642
  104MOL   H25235478   6.668   5.657   2.468  1.2255 -0.4905  0.6240
  104MOL   H25335479   6.962   5.741   2.324  0.0857 -0.6031  0.7910
  104MOL   H25435480   7.061   5.981   2.337 -0.0943  1.7003 -0.3907
  104MOL   H25535481   6.907   6.238   2.236  1.0338  1.7718 -1.4046
  104MOL   H25635482   6.801   6.330   2.348 -1.0702 -1.0266 -1.8268
  104MOL   C25735483   6.992   6.437   2.309 -0.0712  0.4445 -0.1020
  104MOL   C25835484   7.139   6.404   2.288  0.8200  0.2681 -0.0978
  104MOL   C25935485   7.183   6.315   2.188 -0.2079  0.3877  0.2622
  104MOL   C26035486   7.319   6.285   2.180  0.2216 -0.0596  0.3175
  104MOL   C26135487   7.407   6.333   2.280 -0.1334 -0.6090 -0.8643
  104MOL   O26235488   7.535   6.289   2.288 -0.5667  0.5742  0.3573
  104MOL   C26335489   7.363   6.414   2.386  0.6759 -0.6418  0.1584
  104MOL   C26435490   7.226   6.462   2.383  0.5721  0.4686 -0.1398
  104MOL   C26535491   6.926   6.519   2.193  0.2984  0.1664 -0.5366
  104MOL   H26635492   6.984   6.492   2.403 -1.1818  0.9657 -0.4928
  104MOL   H26735493   7.120   6.275   2.110 -0.1572 -0.2060  0.5205
  104MOL   H26835494   7.358   6.228   2.097  3.2826  1.0400  0.9210
  104MOL   H26935495   7.534   6.223   2.221 -2.2639  0.2182  0.7031
  104MOL   H27035496   7.419   6.450   2.471 -0.7742 -0.5788  1.1120
  104MOL   H27135497   7.195   6.518   2.470  0.2909  1.1927 -0.7069
  104MOL   H27235498   6.913   6.451   2.109  1.2945  0.6984 -1.1318
  104MOL   H27335499   7.008   6.582   2.160  0.0744  0.4320 -0.5832
  104MOL   C27435500   6.800   6.608   2.218  0.1170  0.0131  0.2522
  104MOL   C27535501   6.844   6.725   2.312 -0.6246  0.4163 -0.2042
  104MOL   C27635502   6.817   6.737   2.445  0.0475 -0.0725 -0.1610
  104MOL   C27735503   6.863   6.847   2.518 -0.2158  0.2448 -0.3124
  104MOL   C27835504   6.943   6.944   2.462  0.7036 -0.2048 -0.5211
  104MOL   O27935505   6.982   7.045   2.540 -0.1806 -0.1156 -0.5249
  104MOL   C28035506   6.979   6.934   2.328 -0.3632 -0.1922 -0.1533
  104MOL   C28135507   6.924   6.827   2.251 -0.5225  0.3279 -0.1824
  104MOL   C28235508   6.673   6.536   2.268  0.3599  0.4795  0.2009
  104MOL   H28335509   6.774   6.656   2.123  0.2894 -0.3971 -0.0023
  104MOL   H28435510   6.756   6.664   2.496  0.4678 -1.2125 -1.2374
  104MOL   H28535511   6.845   6.851   2.625 -0.2234  2.0392 -0.3710
  104MOL   H28635512   7.041   7.024   2.610  0.6388  1.4023 -0.7515
  104MOL   H28735513   7.043   7.006   2.280 -1.0318 -0.3447 -1.2886
  104MOL   H28835514   6.943   6.825   2.145 -0.5883 -0.7450 -0.1722
  104MOL   H28935515   6.689   6.497   2.369 -2.4886  0.5514  0.7016
  104MOL   H29035516   6.598   6.614   2.282  1.0941  0.8141  2.4878
  104MOL   C29135517   6.615   6.433   2.173  1.0446  0.1096 -0.1877
  104MOL   C29235518   6.601   6.483   2.035  0.2475 -1.1813 -0.0757
  104MOL   C29335519   6.664   6.415   1.929  0.1219  0.0964 -0.1300
  104MOL   C29435520   6.669   6.466   1.798  0.0893 -0.0489  0.5959
  104MOL   C29535521   6.602   6.587   1.772 -0.0045 -0.3760 -0.2055
  104MOL   O29635522   6.610   6.645   1.650  0.0244 -0.0322 -0.0037
  104MOL   C29735523   6.527   6.650   1.876 -0.2740  0.6892  0.0215
  104MOL   C29835524   6.533   6.600   2.008  0.0741 -0.2599 -0.5694
  104MOL   C29935525   6.482   6.373   2.228 -0.1369  0.1838  0.4104
  104MOL   H30035526   6.682   6.348   2.159  0.2881 -0.1823 -2.1632
  104MOL   H30135527   6.729   6.333   1.954  0.6859  0.4294 -0.4980
  104MOL   H30235528   6.731   6.410   1.729 -1.8489 -2.1942  0.5200
  104MOL   H30335529   6.664   6.585   1.599  1.2975  0.6646  0.4920
  104MOL   H30435530   6.463   6.736   1.865 -1.2941 -0.1023 -0.2510
  104MOL   H30535531   6.484   6.653   2.088 -0.1577 -0.5448 -0.5208
  104MOL   H30635532   6.394   6.436   2.215  0.7612  0.9694 -1.9830
  104MOL   H30735533   6.497   6.339   2.331 -0.1922 -1.6587 -0.1688
  104MOL   C30835534   6.447   6.240   2.157 -0.0903  0.0287 -0.2172
  104MOL   C30935535   6.296   6.206   2.200 -0.5514  0.0768  0.2729
  104MOL   C31035536   6.263   6.175   2.335 -0.5890  0.4772 -0.3363
  104MOL   C31135537   6.133   6.129   2.370 -0.2889 -0.8588 -0.0805
  104MOL   C31235538   6.041   6.104   2.275  0.9979  0.1304  0.0141
  104MOL   O31335539   5.910   6.069   2.309 -0.5393 -0.0222  1.2814
  104MOL   C31435540   6.069   6.132   2.141 -0.0551  0.1526  0.1011
  104MOL   C31535541   6.198   6.179   2.099  0.4892 -1.0128  0.3057
  104MOL   C31635542   6.540   6.117   2.188 -0.1964 -0.8198  0.3995
  104MOL   H31735543   6.458   6.248   2.049 -0.2335 -1.0950 -0.3201
  104MOL   H31835544   6.335   6.203   2.411  0.3613  1.3013 -1.5223
  104MOL   H31935545   6.125   6.103   2.474  1.0430 -1.4845 -0.1153
  104MOL   H32035546   5.849   6.046   2.241 -0.0028 -1.2854  1.1930
  104MOL   H32135547   5.991   6.125   2.067 -0.2263  1.4151  0.1595
  104MOL   H32235548   6.226   6.194   1.996  1.5446 -0.9456  0.5941
  104MOL   H32335549   6.481   6.059   2.259 -0.5515  0.1010  0.8630
  104MOL   H32435550   6.631   6.137   2.245  0.1601  0.6904 -0.6811
  104MOL   C32535551   6.575   6.015   2.073  0.0237 -0.2111 -0.7418
  104MOL   C32635552   6.692   6.057   1.991  0.1208 -0.1402 -0.0539
  104MOL   C32735553   6.672   6.098   1.860  0.1543 -0.1812  0.0218
  104MOL   C32835554   6.783   6.132   1.774  0.2406  0.9840  0.1159
  104MOL   C32935555   6.910   6.124   1.834 -0.3625 -0.1898 -0.0801
  104MOL   O33035556   7.024   6.145   1.760 -0.0777 -0.0146 -0.4025
  104MOL   C33135557   6.931   6.073   1.963 -0.5010  0.7854 -0.1299
  104MOL   C33235558   6.820   6.046   2.039 -0.7464  0.5297  0.1153
  104MOL   C33335559   6.453   5.960   1.994 -0.4663 -0.1196  0.4971
  104MOL   H33435560   6.616   5.933   2.132 -1.7774  0.4721  1.5428
  104MOL   H33535561   6.573   6.100   1.818 -0.2498 -1.7648  0.8384
  104MOL   H33635562   6.762   6.150   1.670  0.2516  0.1596 -0.0274
  104MOL   H33735563   7.071   6.065   1.744  0.1703 -0.3266  1.7228
  104MOL   H33835564   7.028   6.061   2.009 -1.3942 -1.4991  1.2578
  104MOL   H33935565   6.832   6.013   2.141 -2.6425 -1.1920 -0.1890
  104MOL   H34035566   6.394   6.039   1.948  0.9230  0.6863  0.0541
  104MOL   H34135567   6.384   5.905   2.057 -0.2557 -2.8386 -1.5446
  104MOL   H34235568   6.483   5.881   1.925  1.4332  2.0112 -1.1889
  105MOL     C135569   2.299   3.594   4.661  0.0769  0.4527 -0.1683
  105MOL     C235570   2.414   3.496   4.679  0.6332  0.5454  0.4992
  105MOL     C335571   2.418   3.368   4.612  0.3992 -0.8130 -0.4809
  105MOL     C435572   2.537   3.293   4.630 -0.2649 -0.4998  0.2163
  105MOL     C535573   2.639   3.338   4.715 -0.5515  0.2586 -0.4972
  105MOL     O635574   2.742   3.246   4.734 -0.5000  0.1622 -0.3962
  105MOL     C735575   2.627   3.456   4.781 -0.2911 -0.1538 -0.9144
  105MOL     C835576   2.514   3.531   4.764 -0.0980  0.0203  0.1000
  105MOL     C935577   2.270   3.615   4.513  0.0459 -0.1624  0.2902
  105MOL    H1035578   2.214   3.557   4.718 -0.7605  0.7475 -1.2098
  105MOL    H1135579   2.341   3.344   4.540  1.0418 -0.4591 -1.2926
  105MOL    H1235580   2.547   3.197   4.583 -1.4370 -1.4078  1.7541
  105MOL    H1335581   2.780   3.273   4.816 -1.8692 -2.6174  1.2036
  105MOL    H1435582   2.710   3.483   4.845 -0.7287 -1.5065  0.2325
  105MOL    H1535583   2.507   3.632   4.801  1.1520 -1.2872  4.1686
  105MOL    H1635584   2.238   3.520   4.471  0.8320  0.0338 -0.7805
  105MOL    H1735585   2.360   3.633   4.455  1.3456 -2.7835  1.4228
  105MOL    H1835586   2.339   3.690   4.695  0.6071  1.0306 -2.3053
  105MOL    C1935587   2.179   3.735   4.484 -0.3813 -0.2945  0.2433
  105MOL    C2035588   2.049   3.724   4.562  0.2518  0.0339  0.5392
  105MOL    C2135589   1.943   3.650   4.500 -0.8630 -0.1105  0.0871
  105MOL    C2235590   1.814   3.641   4.556  0.2726 -0.3358  0.1751
  105MOL    C2335591   1.786   3.716   4.667 -0.3504  0.4386 -0.0862
  105MOL    O2435592   1.668   3.701   4.729 -0.3042  0.4160  0.3088
  105MOL    C2535593   1.890   3.790   4.730  0.4697 -0.5120  0.5626
  105MOL    C2635594   2.018   3.789   4.677  0.4724 -0.3231  0.2106
  105MOL    C2735595   2.168   3.785   4.333 -0.3591 -0.4977  0.4644
  105MOL    H2835596   2.232   3.815   4.536 -1.5219 -0.4236  1.6482
  105MOL    H2935597   1.958   3.591   4.410 -2.9633 -0.4242 -0.0822
  105MOL    H3035598   1.737   3.587   4.502  1.4263 -2.9669  1.1039
  105MOL    H3135599   1.679   3.712   4.822 -0.0246  2.3115  0.0685
  105MOL    H3235600   1.867   3.847   4.819 -1.8348 -0.0813 -0.2860
  105MOL    H3335601   2.097   3.842   4.728  0.5955  0.7829 -1.0982
  105MOL    H3435602   2.121   3.703   4.278  2.9575 -0.7009 -2.1767
  105MOL    H3535603   2.262   3.802   4.282  0.4789  0.9687  2.4386
  105MOL    C3635604   2.083   3.909   4.307 -0.0848 -0.5607  0.5177
  105MOL    C3735605   2.009   3.908   4.171  0.7607 -0.2097 -0.3502
  105MOL    C3835606   2.075   3.939   4.046  0.2285  0.5963 -0.8325
  105MOL    C3935607   1.998   3.963   3.937  0.0837  0.4458  0.1116
  105MOL    C4035608   1.855   3.943   3.945  0.7337 -0.1125  0.0851
  105MOL    O4135609   1.779   3.974   3.837 -0.1794  0.7292  0.4363
  105MOL    C4235610   1.797   3.907   4.067 -0.1062 -0.0306  0.7119
  105MOL    C4335611   1.870   3.886   4.181 -0.0662 -0.3021  0.0681
  105MOL    C4435612   2.151   4.039   4.343 -0.7102  0.5507 -0.1302
  105MOL    H4535613   2.000   3.882   4.372 -1.1378 -0.7974 -0.9044
  105MOL    H4635614   2.182   3.959   4.044  0.9192 -2.7591 -0.6383
  105MOL    H4735615   2.042   4.006   3.848 -2.4725  0.4560 -1.2272
  105MOL    H4835616   1.688   3.946   3.834  0.0535  0.0475 -0.7616
  105MOL    H4935617   1.690   3.901   4.079  0.1268 -0.5677  2.8036
  105MOL    H5035618   1.820   3.860   4.273  0.6953 -1.0550  0.2826
  105MOL    H5135619   2.250   4.023   4.386 -0.1155  0.2941 -1.5612
  105MOL    H5235620   2.183   4.085   4.250  0.6755  0.0344  0.0730
  105MOL    C5335621   2.084   4.143   4.429  0.6530  0.0945 -0.0987
  105MOL    C5435622   2.185   4.228   4.511 -0.3689  0.2897  1.1924
  105MOL    C5535623   2.286   4.301   4.448 -0.2898  0.0567 -0.4869
  105MOL    C5635624   2.373   4.393   4.515 -0.5658 -0.2379  0.9615
  105MOL    C5735625   2.370   4.395   4.657 -0.2387 -0.3798  0.1904
  105MOL    O5835626   2.448   4.476   4.739  0.3203 -0.5365 -0.3277
  105MOL    C5935627   2.275   4.306   4.723 -0.5384 -0.4089  0.3838
  105MOL    C6035628   2.178   4.230   4.650 -0.0440 -0.2024  0.7755
  105MOL    C6135629   1.987   4.235   4.354  0.5111 -0.5204 -0.2734
  105MOL    H6235630   2.023   4.088   4.500 -0.7408  2.5901  0.6969
  105MOL    H6335631   2.305   4.288   4.342  0.1481  0.2617 -0.4352
  105MOL    H6435632   2.451   4.440   4.456 -1.1594 -0.0893  0.2812
  105MOL    H6535633   2.481   4.551   4.691  0.1194  0.3092  0.8316
  105MOL    H6635634   2.273   4.305   4.831 -0.0404  1.4970  0.4136
  105MOL    H6735635   2.114   4.162   4.705  1.8572 -2.4154  0.3500
  105MOL    H6835636   1.927   4.168   4.292 -2.2011 -0.9324  2.6300
  105MOL    H6935637   2.049   4.297   4.289  0.2513 -1.0493 -1.0270
  105MOL    C7035638   1.897   4.320   4.449 -0.2492 -0.4538  0.5494
  105MOL    C7135639   1.799   4.235   4.527  0.2856  0.4725 -0.1720
  105MOL    C7235640   1.715   4.148   4.457  0.0849 -0.0607 -0.5381
  105MOL    C7335641   1.641   4.050   4.526  0.7976  0.1544 -0.4475
  105MOL    C7435642   1.645   4.055   4.664 -0.2401 -0.4550 -0.8769
  105MOL    O7535643   1.577   3.966   4.740  0.0444  0.0443  0.1921
  105MOL    C7635644   1.713   4.155   4.735  0.1388 -0.0654  0.0679
  105MOL    C7735645   1.795   4.243   4.666  0.5066 -0.6782  0.2311
  105MOL    C7835646   1.818   4.432   4.366 -0.2447  0.6109  0.2433
  105MOL    H7935647   1.970   4.374   4.510 -0.1339 -1.6406  1.4748
  105MOL    H8035648   1.730   4.136   4.351  1.2366 -0.3749 -0.3428
  105MOL    H8135649   1.604   3.964   4.472 -0.0344  0.2701 -0.0682
  105MOL    H8235650   1.561   3.882   4.700  0.7420  0.0765 -0.1473
  105MOL    H8335651   1.710   4.155   4.843  0.4256  1.2056  0.0757
  105MOL    H8435652   1.858   4.314   4.719  2.8243 -3.1508  0.8789
  105MOL    H8535653   1.752   4.485   4.435  0.6483  0.2360  1.4078
  105MOL    H8635654   1.750   4.382   4.298 -0.4847  1.9858 -0.5558
  105MOL    C8735655   1.899   4.539   4.284  0.5750  0.2860  0.2221
  105MOL    C8835656   2.012   4.598   4.358  0.8360 -0.2468  0.5067
  105MOL    C8935657   2.005   4.628   4.494 -0.4766  0.3413  0.9011
  105MOL    C9035658   2.103   4.711   4.554  0.5074  0.1084  0.8086
  105MOL    C9135659   2.215   4.747   4.485 -0.6859  0.3374 -0.1733
  105MOL    O9235660   2.311   4.830   4.539  0.0657  0.0534 -0.1872
  105MOL    C9335661   2.228   4.704   4.353  0.3459  0.0669  0.7861
  105MOL    C9435662   2.128   4.635   4.291 -0.0726  0.0029 -0.0535
  105MOL    C9535663   1.819   4.650   4.226  0.2415  0.7364 -0.8367
  105MOL    H9635664   1.945   4.491   4.198 -0.1186  2.6762 -1.5265
  105MOL    H9735665   1.916   4.602   4.550 -0.4142  0.2903  0.9767
  105MOL    H9835666   2.075   4.748   4.652  1.6417 -0.6587  1.4350
  105MOL    H9935667   2.284   4.873   4.618 -1.0502 -0.4403 -0.2844
  105MOL   H10035668   2.314   4.731   4.294 -0.5140  2.7618  0.7401
  105MOL   H10135669   2.133   4.623   4.184 -0.0425  3.1430 -0.4492
  105MOL   H10235670   1.761   4.692   4.309 -1.4121 -2.7205 -0.1659
  105MOL   H10335671   1.888   4.724   4.186 -0.6759  1.7878 -0.4902
  105MOL   C10435672   1.722   4.607   4.113 -0.3764 -0.0079  0.1785
  105MOL   C10535673   1.812   4.560   3.993 -0.2297 -0.0965 -0.2133
  105MOL   C10635674   1.831   4.423   3.955  0.4441  0.1088 -0.0888
  105MOL   C10735675   1.925   4.393   3.851 -0.5241 -0.0247 -0.0939
  105MOL   C10835676   1.983   4.496   3.773 -0.2188 -0.3095  0.1503
  105MOL   O10935677   2.077   4.457   3.682 -0.5138 -0.3680  0.3463
  105MOL   C11035678   1.953   4.627   3.799  0.4544  0.2126  0.0494
  105MOL   C11135679   1.879   4.655   3.917  0.3107  0.6642 -0.0134
  105MOL   C11235680   1.611   4.704   4.069 -0.0604 -0.1838 -0.0862
  105MOL   H11335681   1.670   4.517   4.147 -0.5871  0.4860  1.1887
  105MOL   H11435682   1.786   4.346   4.015 -1.7730 -0.6130 -2.5574
  105MOL   H11535683   1.951   4.290   3.832 -2.4027 -0.4916 -0.2864
  105MOL   H11635684   2.082   4.363   3.684 -0.9404 -0.3934  0.2188
  105MOL   H11735685   1.994   4.709   3.742 -0.4278  0.3606 -0.3825
  105MOL   H11835686   1.865   4.761   3.936 -1.0477  0.6844 -1.0233
  105MOL   H11935687   1.557   4.674   3.979 -0.6620 -2.8773  1.1142
  105MOL   H12035688   1.655   4.799   4.038  0.5098  0.1915  1.7779
  105MOL   C12135689   1.501   4.732   4.178 -0.5912  0.0255 -0.0869
  105MOL   C12235690   1.422   4.856   4.156  0.0036  0.1719 -0.4035
  105MOL   C12335691   1.298   4.850   4.088  0.3350 -0.5057 -0.1550
  105MOL   C12435692   1.211   4.956   4.091  0.7653 -0.3369  0.5111
  105MOL   C12535693   1.235   5.068   4.169 -0.2963  0.2507  1.2069
  105MOL   O12635694   1.140   5.168   4.176  0.2113  0.3017  0.2152
  105MOL   C12735695   1.365   5.084   4.225  0.5925  0.4064  0.3288
  105MOL   C12835696   1.462   4.978   4.225  0.2405  0.5490  0.3441
  105MOL   C12935697   1.415   4.603   4.206  0.8045 -0.4082  0.1564
  105MOL   H13035698   1.557   4.741   4.271  2.4670 -3.2406 -1.4717
  105MOL   H13135699   1.273   4.762   4.032 -1.4151  0.5956 -1.1614
  105MOL   H13235700   1.119   4.974   4.038  0.0804 -1.8700  1.1296
  105MOL   H13335701   1.051   5.136   4.180  0.1471  0.5692  1.0591
  105MOL   H13435702   1.384   5.167   4.292  1.2443  0.6679 -0.1706
  105MOL   H13535703   1.550   4.990   4.286 -0.1511 -1.5687  1.3495
  105MOL   H13635704   1.475   4.515   4.227 -0.2040 -0.9629  0.7266
  105MOL   H13735705   1.359   4.577   4.116 -1.9783  0.7999  1.4784
  105MOL   C13835706   1.308   4.623   4.326 -1.3039  0.0132 -0.1141
  105MOL   C13935707   1.367   4.690   4.449 -0.6135 -0.0909 -0.3382
  105MOL   C14035708   1.485   4.632   4.509  1.0192 -0.4694 -0.3737
  105MOL   C14135709   1.540   4.701   4.621  0.6277 -0.4910 -0.1344
  105MOL   C14235710   1.490   4.821   4.671 -0.4492 -0.7903 -0.5294
  105MOL   O14335711   1.548   4.885   4.773 -0.3927 -0.2243 -0.1796
  105MOL   C14435712   1.373   4.874   4.614 -0.2727 -0.1762  0.2208
  105MOL   C14535713   1.314   4.810   4.503  0.2044  0.0543  0.6399
  105MOL   C14635714   1.241   4.491   4.373  0.2160  0.4107 -0.4553
  105MOL   H14735715   1.239   4.697   4.284 -0.1766  1.4315  0.4900
  105MOL   H14835716   1.533   4.544   4.471  0.8207 -0.9866  0.5585
  105MOL   H14935717   1.637   4.664   4.652  1.1173  0.2882 -0.7277
  105MOL   H15035718   1.635   4.851   4.786 -1.3473 -3.0865 -0.9128
  105MOL   H15135719   1.336   4.968   4.652 -1.8209  0.1907 -2.0919
  105MOL   H15235720   1.235   4.862   4.451  0.2318  0.2432  0.7874
  105MOL   H15335721   1.302   4.448   4.452  1.7561 -0.0044 -1.8455
  105MOL   H15435722   1.257   4.417   4.294  4.3131  2.2168 -1.4241
  105MOL   C15535723   1.088   4.501   4.395 -0.4550  0.2762 -0.0958
  105MOL   C15635724   1.063   4.579   4.520  0.4933 -0.0050 -1.0231
  105MOL   C15735725   1.017   4.710   4.515  0.9548  0.0897  0.0342
  105MOL   C15835726   0.999   4.792   4.628 -0.8165  0.0735  0.1290
  105MOL   C15935727   1.039   4.736   4.751 -0.3661 -0.5185  0.6001
  105MOL   O16035728   1.031   4.810   4.859 -0.3705  0.0164  0.1224
  105MOL   C16135729   1.081   4.604   4.762 -0.3008  0.4709 -0.7748
  105MOL   C16235730   1.086   4.526   4.647 -0.0381  0.1838  0.7249
  105MOL   C16335731   1.013   4.369   4.408  0.2788 -0.0752  0.1744
  105MOL   H16435732   1.044   4.561   4.315 -1.7509 -0.3980  0.0952
  105MOL   H16535733   1.005   4.761   4.421 -1.1865  2.2074  1.4141
  105MOL   H16635734   0.965   4.894   4.613  0.7688  0.8846  1.9913
  105MOL   H16735735   1.057   4.782   4.945 -1.4501 -1.3188  0.0266
  105MOL   H16835736   1.109   4.567   4.859  0.0510 -0.0243 -1.0633
  105MOL   H16935737   1.131   4.428   4.656  1.0328  0.4000 -1.9779
  105MOL   H17035738   0.914   4.391   4.447  0.3054 -0.3350  0.3946
  105MOL   H17135739   1.059   4.314   4.490 -1.4476  0.1959  1.3549
  105MOL   C17235740   0.993   4.279   4.285 -0.7698  0.5615  0.7928
  105MOL   C17335741   0.949   4.356   4.157  0.2019 -0.4218  0.2876
  105MOL   C17435742   0.817   4.398   4.146 -0.4238  0.9631  0.6940
  105MOL   C17535743   0.772   4.474   4.037 -0.9657 -0.4646  0.2632
  105MOL   C17635744   0.871   4.517   3.940 -0.1376 -0.2970  0.8205
  105MOL   O17735745   0.834   4.584   3.825 -0.1222  0.5719  0.1902
  105MOL   C17835746   1.001   4.467   3.949  1.0726  0.1703 -0.5441
  105MOL   C17935747   1.040   4.385   4.049  0.5638 -0.0795 -0.8873
  105MOL   C18035748   0.910   4.145   4.299 -0.5976 -0.3422 -0.1414
  105MOL   H18135749   1.095   4.251   4.258 -1.7604  1.4573 -4.3906
  105MOL   H18235750   0.737   4.368   4.213 -0.7288  0.9680  0.3379
  105MOL   H18335751   0.669   4.501   4.022 -0.6820  0.3066 -0.3837
  105MOL   H18435752   0.740   4.597   3.822  0.0528  1.7938 -0.9430
  105MOL   H18535753   1.071   4.488   3.869  2.0132  1.0038  0.4800
  105MOL   H18635754   1.140   4.347   4.063  0.5695  0.1181 -0.3479
  105MOL   H18735755   0.813   4.166   4.343 -0.6026 -0.4909 -0.0823
  105MOL   H18835756   0.956   4.085   4.377 -0.1520  0.1698 -0.0112
  105MOL   C18935757   0.898   4.065   4.172  0.5003 -0.2385 -0.4511
  105MOL   C19035758   1.035   4.035   4.108 -0.1687  0.4381 -0.1877
  105MOL   C19135759   1.139   3.985   4.184 -0.1570  0.1971  0.0239
  105MOL   C19235760   1.271   3.973   4.127 -0.1917  0.3748 -0.0320
  105MOL   C19335761   1.296   4.005   3.995 -0.8093 -1.1223  0.5407
  105MOL   O19435762   1.421   3.997   3.948  0.1202 -0.1262 -0.7085
  105MOL   C19535763   1.189   4.053   3.916  0.4165  0.2095  0.1120
  105MOL   C19635764   1.057   4.062   3.968  0.3296 -0.8077 -0.3647
  105MOL   C19735765   0.803   3.939   4.185  0.3073 -0.1336  0.2260
  105MOL   H19835766   0.847   4.122   4.094  0.7229 -1.0880 -1.2256
  105MOL   H19935767   1.126   3.958   4.288 -0.9210  2.5316  0.5623
  105MOL   H20035768   1.345   3.941   4.199 -0.2041 -0.3420 -0.3319
  105MOL   H20135769   1.458   4.083   3.955 -1.0132  0.4251 -1.4364
  105MOL   H20235770   1.211   4.085   3.815  0.0303 -0.1373 -0.0818
  105MOL   H20335771   0.973   4.094   3.908  2.3428  1.4890 -2.0245
  105MOL   H20435772   0.771   3.924   4.288  0.6834 -0.0666  0.3564
  105MOL   H20535773   0.869   3.859   4.151  0.6610  0.1318  0.2781
  105MOL   C20635774   0.676   3.934   4.097  0.2150  0.2507 -0.8188
  105MOL   C20735775   0.584   4.054   4.115 -0.4974  0.0194 -0.0944
  105MOL   C20835776   0.560   4.136   4.008  0.5390  0.3206 -0.3195
  105MOL   C20935777   0.465   4.241   4.014 -0.0886 -0.2914 -0.0500
  105MOL   C21035778   0.398   4.270   4.137  0.3938 -0.0150  0.0894
  105MOL   O21135779   0.312   4.373   4.144  0.3477 -0.3166  0.1697
  105MOL   C21235780   0.422   4.185   4.240  0.3413  0.2637  0.1332
  105MOL   C21335781   0.517   4.076   4.239 -0.5127 -0.0787  0.5058
  105MOL   C21435782   0.598   3.803   4.114  0.0671 -0.2377  0.4120
  105MOL   H21535783   0.709   3.931   3.994  1.5075 -0.8712 -0.3881
  105MOL   H21635784   0.601   4.114   3.911  0.1382 -0.6876 -0.2632
  105MOL   H21735785   0.446   4.301   3.925  0.8162 -1.0470 -0.7567
  105MOL   H21835786   0.246   4.375   4.211 -0.6311  0.9782 -0.7948
  105MOL   H21935787   0.373   4.206   4.334 -0.7324  1.6051 -0.7122
  105MOL   H22035788   0.539   4.022   4.330 -0.3831  1.0732  1.1710
  105MOL   H22135789   0.576   3.792   4.220  1.7571 -1.4171  0.6622
  105MOL   H22235790   0.660   3.716   4.095 -0.7654 -0.7139 -0.1354
  105MOL   C22335791   0.459   3.798   4.041 -0.2813 -0.8400  0.3463
  105MOL   C22435792   0.366   3.701   4.114 -0.7084  0.2559 -0.2869
  105MOL   C22535793   0.344   3.565   4.086  0.0629 -0.1334 -0.1205
  105MOL   C22635794   0.271   3.484   4.174 -0.1550 -0.2863  0.4556
  105MOL   C22735795   0.224   3.538   4.295 -0.5268 -0.3250 -0.1015
  105MOL   O22835796   0.139   3.460   4.369 -0.2632 -0.1165  0.4086
  105MOL   C22935797   0.237   3.671   4.318  0.0765 -0.9419  0.1780
  105MOL   C23035798   0.317   3.751   4.236  0.2210  0.3169  0.2636
  105MOL   C23135799   0.474   3.756   3.885 -0.0103 -0.1835  0.4607
  105MOL   H23235800   0.399   3.889   4.044  0.7463 -0.1817  1.5536
  105MOL   H23335801   0.388   3.507   4.006 -2.0383 -1.0197 -0.6958
  105MOL   H23435802   0.249   3.381   4.150  2.7801 -0.7515 -0.3727
  105MOL   H23535803   0.084   3.511   4.426 -0.6302 -0.1748  0.1088
  105MOL   H23635804   0.218   3.720   4.413  0.6076  1.3793 -0.8671
  105MOL   H23735805   0.350   3.852   4.255  1.2085  0.0997 -0.2477
  105MOL   H23835806   0.568   3.795   3.846  0.9364 -1.3338  1.5544
  105MOL   H23935807   0.501   3.651   3.877  0.2391 -0.0314 -0.7842
  105MOL   C24035808   0.359   3.806   3.792 -0.3557 -0.2101 -0.2885
  105MOL   C24135809   0.390   3.789   3.641  0.5884  0.1256  0.2950
  105MOL   C24235810   0.378   3.898   3.549 -0.2726  0.2984  0.0512
  105MOL   C24335811   0.426   3.872   3.418  0.3972  0.1332 -0.5755
  105MOL   C24435812   0.448   3.746   3.370  0.6040  0.0082  0.3701
  105MOL   O24535813   0.472   3.722   3.237 -0.0473  0.1555  0.2335
  105MOL   C24635814   0.454   3.636   3.459 -0.4194 -0.6655  0.7500
  105MOL   C24735815   0.425   3.662   3.595  0.0789 -0.5817 -0.0160
  105MOL   C24835816   0.217   3.750   3.831  0.7266  0.3818  0.1393
  105MOL   H24935817   0.350   3.913   3.811  0.5183 -0.0428 -0.7752
  105MOL   H25035818   0.351   3.999   3.577  2.5846  1.4660 -1.3134
  105MOL   H25135819   0.424   3.955   3.348  0.7010 -0.4532 -1.2890
  105MOL   H25235820   0.518   3.641   3.223  1.3609  0.7469  1.3313
  105MOL   H25335821   0.487   3.541   3.420  0.4019  0.6738 -1.8939
  105MOL   H25435822   0.429   3.578   3.662 -0.8852 -1.1395 -0.6526
  105MOL   H25535823   0.164   3.720   3.741  2.0699 -1.0042 -0.2110
  105MOL   H25635824   0.235   3.656   3.883  1.3785  0.2470 -0.3236
  105MOL   C25735825   0.134   3.841   3.918 -0.4657 -0.1991  0.6412
  105MOL   C25835826   0.124   3.983   3.865 -0.1137 -0.5292  0.6313
  105MOL   C25935827   0.064   4.010   3.739 -0.2705 -0.3586 -0.2177
  105MOL   C26035828   0.041   4.145   3.694  0.2009  0.2615  0.3850
  105MOL   C26135829   0.082   4.254   3.772  0.6440 -0.4428 -0.3434
  105MOL   O26235830   0.034   4.374   3.730  0.0538  0.6130  0.1764
  105MOL   C26335831   0.142   4.229   3.900 -0.1609 -0.3804 -0.4130
  105MOL   C26435832   0.162   4.095   3.946  0.5437  0.2800 -0.4635
  105MOL   C26535833   8.032   3.777   3.943  0.0818 -0.7914 -0.5982
  105MOL   H26635834   0.181   3.847   4.016  1.3464 -1.4536 -0.1417
  105MOL   H26735835   0.030   3.931   3.674 -0.7868 -0.8855  0.6800
  105MOL   H26835836   8.029   4.165   3.601 -0.3124 -0.0143  0.5954
  105MOL   H26935837   7.983   4.406   3.739  0.6095  2.4296 -0.5586
  105MOL   H27035838   0.172   4.312   3.962 -1.6002 -0.2651  0.1449
  105MOL   H27135839   0.203   4.085   4.045 -0.4670 -0.5013 -0.1185
  105MOL   H27235840   0.026   3.678   3.976  1.0263  0.1381  1.3294
  105MOL   H27335841   7.972   3.779   3.852  0.0511  1.1650 -0.5483
  105MOL   C27435842   7.947   3.841   4.048 -0.0409  0.0088  0.3330
  105MOL   C27535843   7.871   3.728   4.112  0.4446  0.4905 -0.7106
  105MOL   C27635844   7.775   3.661   4.036 -0.7419  0.3607  0.0794
  105MOL   C27735845   7.698   3.557   4.087  0.3357 -0.0190  0.5360
  105MOL   C27835846   7.717   3.512   4.217  0.3806 -0.2800  0.7300
  105MOL   O27935847   7.637   3.410   4.259  0.1049 -0.2310 -0.0948
  105MOL   C28035848   7.813   3.571   4.293 -0.4175 -0.1222  0.6937
  105MOL   C28135849   7.899   3.671   4.239  0.4215  0.6512  0.6110
  105MOL   C28235850   7.866   3.969   4.007  0.9355 -0.2034  0.2536
  105MOL   H28335851   8.024   3.864   4.122  0.8206 -0.5061 -0.3919
  105MOL   H28435852   7.746   3.696   3.939 -0.2465 -6.3133 -2.6935
  105MOL   H28535853   7.602   3.526   4.048 -0.5896  0.8325  2.1114
  105MOL   H28635854   7.661   3.364   4.338  1.8691 -0.5718 -0.8118
  105MOL   H28735855   7.825   3.543   4.396 -1.6713 -2.4870  0.2439
  105MOL   H28835856   7.979   3.712   4.298  2.0734 -2.2603  0.4798
  105MOL   H28935857   7.921   4.043   3.949  0.1693 -0.1953 -0.4773
  105MOL   H29035858   7.791   3.931   3.937 -0.0207  2.0771  0.0011
  105MOL   C29135859   7.801   4.051   4.123 -0.7068 -0.8975 -0.3864
  105MOL   C29235860   7.889   4.168   4.163 -0.3600 -0.5149 -0.0784
  105MOL   C29335861   7.861   4.302   4.115  0.0321 -0.2313  0.0719
  105MOL   C29435862   7.948   4.411   4.161  0.3360  0.2591  0.7795
  105MOL   C29535863   0.014   4.380   4.245  0.4502 -0.3573  0.6869
  105MOL   O29635864   0.088   4.482   4.301 -0.0350  0.2431  0.4039
  105MOL   C29735865   0.043   4.253   4.282 -0.2293 -0.0999  0.1456
  105MOL   C29835866   8.006   4.142   4.241  1.0692  0.7316 -0.3643
  105MOL   C29935867   7.743   3.981   4.247  0.2573  0.0771 -0.1047
  105MOL   H30035868   7.724   4.103   4.065 -0.2189  0.0063 -0.2282
  105MOL   H30135869   7.793   4.325   4.034  3.0397 -0.2304 -2.5290
  105MOL   H30235870   7.929   4.507   4.115 -1.2330 -0.2053  0.4299
  105MOL   H30335871   0.079   4.568   4.263  4.1668 -0.4210 -2.3265
  105MOL   H30435872   0.132   4.238   4.343  0.0581  0.9467 -0.0029
  105MOL   H30535873   8.027   4.041   4.270 -2.3707 -0.3238 -1.2533
  105MOL   H30635874   7.820   3.955   4.320 -0.5624  1.3672  1.2531
  105MOL   H30735875   7.677   3.898   4.223  0.4196 -1.2197  3.5656
  105MOL   C30835876   7.655   4.068   4.337 -0.4354  0.3371  0.1456
  105MOL   C30935877   7.643   3.996   4.469 -0.8609  0.0414 -0.8001
  105MOL   C31035878   7.561   3.878   4.479  0.0319 -0.1073  0.1055
  105MOL   C31135879   7.552   3.810   4.602  0.5047  0.2147  0.1104
  105MOL   C31235880   7.624   3.850   4.714 -0.1267 -0.8712 -0.6182
  105MOL   O31335881   7.619   3.784   4.831  0.5183  0.7899  0.4517
  105MOL   C31435882   7.708   3.971   4.704 -0.4309 -0.5105 -0.2207
  105MOL   C31535883   7.719   4.036   4.581  0.0893  0.1308  0.2475
  105MOL   C31635884   7.518   4.101   4.275  0.2015  0.1303 -0.0112
  105MOL   H31735885   7.695   4.166   4.361 -0.3479  0.5844 -0.9715
  105MOL   H31835886   7.489   3.859   4.401  2.6447  1.1643 -2.7467
  105MOL   H31935887   7.486   3.725   4.609 -0.2837  0.8468  0.4544
  105MOL   H32035888   7.545   3.801   4.888  1.4252  2.7302  1.0978
  105MOL   H32135889   7.771   3.998   4.788 -0.2004  1.3639 -0.9824
  105MOL   H32235890   7.797   4.110   4.567 -1.1650  1.4251 -0.0382
  105MOL   H32335891   7.476   4.004   4.249 -0.7585 -0.4379  3.4137
  105MOL   H32435892   7.521   4.163   4.185  1.2997  0.6920  0.4025
  105MOL   C32535893   7.421   4.170   4.372 -0.1913 -0.2148 -0.1787
  105MOL   C32635894   7.278   4.167   4.299 -0.2114  0.3173  0.1009
  105MOL   C32735895   7.213   4.044   4.270  0.5963 -0.3415 -0.5291
  105MOL   C32835896   7.089   4.040   4.205  0.4353 -0.1957 -0.1374
  105MOL   C32935897   7.029   4.155   4.154 -0.0173  0.3669 -0.3872
  105MOL   O33035898   6.920   4.151   4.071  0.1922 -0.3263 -0.1507
  105MOL   C33135899   7.091   4.281   4.184 -0.2529  0.1683  0.3303
  105MOL   C33235900   7.214   4.284   4.257 -0.3994 -0.0314 -0.0409
  105MOL   C33335901   7.464   4.311   4.419  0.2729  0.3712 -0.5862
  105MOL   H33435902   7.411   4.113   4.464  1.4969 -1.4585 -0.7346
  105MOL   H33535903   7.251   3.949   4.303 -1.2095 -0.9315 -0.1179
  105MOL   H33635904   7.041   3.946   4.187  0.1997  0.0806 -0.9913
  105MOL   H33735905   6.917   4.233   4.024  0.0083 -0.0970  0.2572
  105MOL   H33835906   7.057   4.375   4.144  0.8442  1.6842  2.8134
  105MOL   H33935907   7.263   4.379   4.274  1.1318 -0.4110 -2.1101
  105MOL   H34035908   7.484   4.371   4.330 -1.3905 -2.0856 -2.7257
  105MOL   H34135909   7.560   4.306   4.471 -0.0586 -1.9732 -0.1351
  105MOL   H34235910   7.397   4.368   4.483  0.9829 -0.6504  1.0951
  106MOL     C135911   2.781   7.311   1.876  1.0492  0.5158 -0.3192
  106MOL     C235912   2.643   7.292   1.936 -0.2276  0.3877 -1.1809
  106MOL     C335913   2.518   7.321   1.867  0.0069 -0.4123  0.5942
  106MOL     C435914   2.390   7.299   1.930  0.3552  0.0142  0.3049
  106MOL     C535915   2.389   7.257   2.066 -0.0311  0.4533  0.1847
  106MOL     O635916   2.276   7.232   2.141  0.1150 -0.0734 -0.0330
  106MOL     C735917   2.510   7.247   2.131 -0.0482 -0.2136  0.3829
  106MOL     C835918   2.636   7.268   2.074  0.3373  0.1125 -0.3601
  106MOL     C935919   2.810   7.456   1.836 -0.1608 -0.0598  0.7489
  106MOL    H1035920   2.865   7.278   1.938  0.2291  0.2148  0.6436
  106MOL    H1135921   2.517   7.345   1.762  2.1952  1.2824  0.9355
  106MOL    H1235922   2.296   7.299   1.877  1.3992 -0.7367 -1.5960
  106MOL    H1335923   2.204   7.198   2.091 -0.9213  0.3885  1.1044
  106MOL    H1435924   2.507   7.211   2.233  0.0629  0.1763  0.5272
  106MOL    H1535925   2.728   7.242   2.124  0.8083  1.2779 -0.5958
  106MOL    H1635926   2.714   7.490   1.796 -1.6862 -2.8138  1.9093
  106MOL    H1735927   2.887   7.466   1.759  1.3169  1.6359  2.4083
  106MOL    H1835928   2.774   7.255   1.783  1.2879  2.3304 -1.4363
  106MOL    C1935929   2.828   7.558   1.952  0.1589 -0.4971  0.6380
  106MOL    C2035930   2.823   7.711   1.904  0.4491 -0.5691  0.2768
  106MOL    C2135931   2.875   7.758   1.784 -0.1440  0.1759  0.7413
  106MOL    C2235932   2.858   7.894   1.754 -0.2833 -0.5625 -1.2513
  106MOL    C2335933   2.774   7.982   1.835 -0.6958  0.1295 -0.3620
  106MOL    O2435934   2.747   0.074   1.792  0.2486 -0.2771  0.1280
  106MOL    C2535935   2.718   7.929   1.954  0.0155  0.4936 -0.2482
  106MOL    C2635936   2.738   7.794   1.988 -0.2602  0.0155  0.1480
  106MOL    C2735937   2.953   7.540   2.026 -0.2530  0.5470  0.5153
  106MOL    H2835938   2.745   7.534   2.020 -0.9908  0.2738 -0.4795
  106MOL    H2935939   2.930   7.697   1.714  0.8369  1.5948  0.2598
  106MOL    H3035940   2.901   7.933   1.663  2.2098 -0.5355 -0.1010
  106MOL    H3135941   2.786   0.098   1.709  0.2953 -0.8462 -0.0134
  106MOL    H3235942   2.651   7.988   2.016 -1.5570  1.3773 -2.7051
  106MOL    H3335943   2.682   7.752   2.069  1.3207  0.0971  1.3134
  106MOL    H3435944   3.038   7.575   1.969  1.1856 -2.1302  0.9547
  106MOL    H3535945   2.981   7.435   2.034  2.1056  1.2378  1.5904
  106MOL    C3635946   2.956   7.593   2.170  0.3437 -0.1325  0.5061
  106MOL    C3735947   3.101   7.600   2.215  0.2023 -0.1642  0.1654
  106MOL    C3835948   3.153   7.723   2.270  0.6578 -0.0259 -0.4624
  106MOL    C3935949   3.285   7.742   2.310 -0.0476  0.8079 -0.2762
  106MOL    C4035950   3.374   7.627   2.288  0.6985 -0.0520 -0.6090
  106MOL    O4135951   3.501   7.624   2.343 -0.1226  0.8133 -0.1983
  106MOL    C4235952   3.333   7.511   2.224 -0.1077 -0.4946 -0.3989
  106MOL    C4335953   3.194   7.493   2.191  0.2064  0.0475  0.2530
  106MOL    C4435954   2.877   7.512   2.273 -0.8407 -0.9413 -0.2357
  106MOL    H4535955   2.911   7.692   2.171 -0.4591 -0.4957  2.1022
  106MOL    H4635956   3.079   7.801   2.286 -0.9899 -1.2048 -2.1769
  106MOL    H4735957   3.325   7.831   2.357  0.3934  0.8258 -0.6761
  106MOL    H4835958   3.488   7.646   2.434 -0.6582  2.2667 -0.6090
  106MOL    H4935959   3.397   7.427   2.199 -1.1047 -1.1844 -0.6689
  106MOL    H5035960   3.162   7.398   2.151  1.2421 -0.3917  0.4528
  106MOL    H5135961   2.789   7.467   2.226 -1.1244  2.0603 -2.8019
  106MOL    H5235962   2.942   7.431   2.305 -0.5511 -0.9535 -0.8497
  106MOL    C5335963   2.811   7.591   2.396 -0.1408  0.2421  0.0192
  106MOL    C5435964   2.691   7.668   2.347 -0.0587 -0.1777 -0.5858
  106MOL    C5535965   2.575   7.600   2.303  0.1882  0.7189 -0.2368
  106MOL    C5635966   2.460   7.669   2.260  0.1394 -0.0640  0.5859
  106MOL    C5735967   2.461   7.807   2.250 -0.0091 -0.1407 -0.6096
  106MOL    O5835968   2.348   7.866   2.201 -0.1596 -0.0250 -0.6785
  106MOL    C5935969   2.568   7.881   2.304 -0.0081  0.1595 -0.3443
  106MOL    C6035970   2.682   7.805   2.351  0.4971 -0.3025 -0.0113
  106MOL    C6135971   2.766   7.505   2.514  0.2599  0.7642  0.5384
  106MOL    H6235972   2.884   7.661   2.437  0.0800 -0.1512  0.2955
  106MOL    H6335973   2.554   7.494   2.304 -0.2843  0.7625 -2.6824
  106MOL    H6435974   2.377   7.607   2.230  0.1428 -0.3725  1.2064
  106MOL    H6535975   2.289   7.800   2.169 -0.7782  1.2798 -2.2834
  106MOL    H6635976   2.581   7.987   2.292  2.4217 -0.1833 -1.1088
  106MOL    H6735977   2.764   7.860   2.397 -1.3002  2.2120  0.2928
  106MOL    H6835978   2.859   7.452   2.535 -0.4699 -1.7806 -2.2468
  106MOL    H6935979   2.695   7.434   2.471  0.8128  0.2217  0.5082
  106MOL    C7035980   2.690   7.569   2.631  0.4593  0.3528 -0.0140
  106MOL    C7135981   2.771   7.678   2.694 -0.1393  0.1701  0.5637
  106MOL    C7235982   2.724   7.809   2.691 -0.3161  0.3007 -0.1823
  106MOL    C7335983   2.796   7.912   2.744  0.5193  0.1941 -0.2506
  106MOL    C7435984   2.921   7.892   2.800 -0.3840  0.3251  0.8184
  106MOL    O7535985   2.994   7.995   2.840 -0.1131 -0.6429 -0.0907
  106MOL    C7635986   2.978   7.761   2.786 -0.1308 -0.0118 -0.5602
  106MOL    C7735987   2.898   7.655   2.740  0.0300 -0.0700 -0.5026
  106MOL    C7835988   2.631   7.469   2.735  0.1602 -0.4532  0.1207
  106MOL    H7935989   2.602   7.616   2.588  1.6445  2.6316 -0.0092
  106MOL    H8035990   2.623   7.829   2.660 -0.2087  1.6093  0.2842
  106MOL    H8135991   2.744   8.007   2.735  1.5573  0.6971 -1.0858
  106MOL    H8235992   2.973   0.038   2.797  1.9617 -0.6912 -1.2796
  106MOL    H8335993   3.080   7.746   2.820  0.2479 -0.7271 -1.9726
  106MOL    H8435994   2.935   7.553   2.735 -2.0551 -0.8860  0.1523
  106MOL    H8535995   2.578   7.535   2.803  0.9673  1.6442 -1.2196
  106MOL    H8635996   2.705   7.411   2.790  0.1279  1.0019  1.7312
  106MOL    C8735997   2.523   7.361   2.684  0.2660 -0.3959  0.1713
  106MOL    C8835998   2.401   7.426   2.605  0.4657  0.3320 -0.3123
  106MOL    C8935999   2.324   7.533   2.656  0.1211 -0.2946  0.3013
  106MOL    C9036000   2.220   7.596   2.584  0.2079  1.3498  0.1452
  106MOL    C9136001   2.186   7.549   2.457 -0.3532  0.2754 -0.6813
  106MOL    O9236002   2.090   7.614   2.383  0.1707  0.5573 -0.7049
  106MOL    C9336003   2.254   7.440   2.411 -0.2731  0.4127  0.5023
  106MOL    C9436004   2.353   7.371   2.487  1.3848  0.2609 -0.3146
  106MOL    C9536005   2.485   7.271   2.798  0.0246 -0.8045  0.9325
  106MOL    H9636006   2.580   7.295   2.618  0.7363  0.6451 -0.4817
  106MOL    H9736007   2.349   7.575   2.752 -0.2179  1.3504 -0.3033
  106MOL    H9836008   2.161   7.676   2.627  1.6242  1.3280  2.1946
  106MOL    H9936009   2.055   7.696   2.414 -0.3394 -0.3981  1.3701
  106MOL   H10036010   2.229   7.409   2.311  0.7205  0.9342  0.0781
  106MOL   H10136011   2.399   7.281   2.449 -1.6844 -1.0744 -1.0040
  106MOL   H10236012   2.578   7.236   2.843  2.3035  0.4659 -2.5748
  106MOL   H10336013   2.439   7.340   2.869 -3.5042 -0.2146 -1.7707
  106MOL   C10436014   2.401   7.147   2.760  0.2646  0.7941  0.7382
  106MOL   C10536015   2.333   7.085   2.884  0.4165  0.2890 -0.1665
  106MOL   C10636016   2.193   7.124   2.907 -0.4429  0.1413  0.0724
  106MOL   C10736017   2.125   7.051   3.010 -0.0708 -0.3471 -0.2071
  106MOL   C10836018   2.182   6.940   3.078  0.6039  0.0760  0.4856
  106MOL   O10936019   2.106   6.876   3.169  0.0140 -0.2235 -0.1007
  106MOL   C11036020   2.308   6.905   3.049 -0.0936 -0.4093 -0.1484
  106MOL   C11136021   2.386   6.979   2.955  0.1424  0.4383 -0.1731
  106MOL   C11236022   2.488   7.053   2.677 -0.3393  0.7452 -0.4324
  106MOL   H11336023   2.318   7.176   2.696  1.0303 -1.2808 -1.2252
  106MOL   H11436024   2.146   7.198   2.844 -0.0122 -0.2020 -0.6591
  106MOL   H11536025   2.021   7.074   3.028  0.4105 -1.3217  4.3247
  106MOL   H11636026   2.024   6.921   3.184 -0.2802  0.1516 -2.6565
  106MOL   H11736027   2.342   6.813   3.094 -0.3612  0.4594  1.8673
  106MOL   H11836028   2.479   6.936   2.922 -1.1661 -1.5683 -1.4018
  106MOL   H11936029   2.584   7.046   2.728 -0.7989 -1.3916  0.2061
  106MOL   H12036030   2.508   7.094   2.578 -0.9882  0.4124 -0.7055
  106MOL   C12136031   2.424   6.918   2.631 -0.1491  0.1973  0.0734
  106MOL   C12236032   2.287   6.942   2.571 -0.7886 -0.8644  0.5037
  106MOL   C12336033   2.166   6.914   2.644 -0.1404 -0.4434 -0.0896
  106MOL   C12436034   2.046   6.937   2.577 -0.5317  0.4993 -0.9072
  106MOL   C12536035   2.043   6.991   2.450  0.6928  0.6012 -0.0420
  106MOL   O12636036   1.925   7.014   2.389  0.2799 -0.7983  0.1653
  106MOL   C12736037   2.159   7.020   2.383  0.0730  0.1968  0.3138
  106MOL   C12836038   2.284   6.991   2.438  0.2380  0.3558 -0.5374
  106MOL   C12936039   2.524   6.836   2.549 -0.0627  1.1168  0.6133
  106MOL   H13036040   2.407   6.848   2.712  1.2424  1.5380  1.5476
  106MOL   H13136041   2.160   6.870   2.742 -2.3972 -0.0751 -0.0285
  106MOL   H13236042   1.955   6.910   2.627  0.1513 -0.4535 -0.1664
  106MOL   H13336043   1.852   7.015   2.448 -0.4243  0.8296 -0.6779
  106MOL   H13436044   2.151   7.069   2.286 -2.1914 -1.4303 -0.3751
  106MOL   H13536045   2.379   7.012   2.392 -0.3667 -0.7673 -2.3462
  106MOL   H13636046   2.611   6.828   2.613  0.8423 -0.1964 -0.7277
  106MOL   H13736047   2.556   6.898   2.466 -2.2555  4.1535  1.9454
  106MOL   C13836048   2.491   6.687   2.505 -0.2085  0.1529 -0.2222
  106MOL   C13936049   2.458   6.598   2.619  0.4472  0.3021 -0.4203
  106MOL   C14036050   2.543   6.587   2.728 -0.5075  0.5121  0.3669
  106MOL   C14136051   2.521   6.491   2.828 -0.3274  0.7814  0.1130
  106MOL   C14236052   2.417   6.397   2.823 -0.3949 -0.1673  0.2019
  106MOL   O14336053   2.392   6.312   2.927 -0.3429 -0.2306 -1.0188
  106MOL   C14436054   2.330   6.406   2.714 -0.2895  0.1187 -0.3185
  106MOL   C14536055   2.355   6.501   2.613  0.6389  0.1625 -0.0795
  106MOL   C14636056   2.610   6.638   2.412  1.0287  0.1823 -0.8274
  106MOL   H14736057   2.397   6.701   2.453 -1.3644  0.0125  1.7656
  106MOL   H14836058   2.628   6.653   2.731  0.8786 -1.1313 -1.5065
  106MOL   H14936059   2.592   6.494   2.910  0.9038  1.3332 -0.9668
  106MOL   H15036060   2.413   6.363   3.003 -0.8881 -1.5836  0.0523
  106MOL   H15136061   2.249   6.335   2.709  2.0265 -2.6209 -0.9731
  106MOL   H15236062   2.289   6.510   2.528  1.9893 -0.5392 -1.2409
  106MOL   H15336063   2.637   6.538   2.446  0.3803 -0.1183 -1.1694
  106MOL   H15436064   2.704   6.689   2.430  1.8496 -0.7546 -2.3564
  106MOL   C15536065   2.578   6.637   2.259 -0.1183 -0.1083  1.0108
  106MOL   C15636066   2.433   6.582   2.228  0.4707 -0.2565 -0.5609
  106MOL   C15736067   2.331   6.674   2.198 -0.9469  0.7694  0.4392
  106MOL   C15836068   2.195   6.633   2.207 -0.1258 -0.7329  0.2797
  106MOL   C15936069   2.162   6.503   2.223  0.2478  0.8489  0.1660
  106MOL   O16036070   2.030   6.463   2.224 -0.1546  0.1497  0.2142
  106MOL   C16136071   2.260   6.406   2.239 -0.1581  0.2434 -0.8692
  106MOL   C16236072   2.393   6.445   2.241 -0.0262 -0.9882 -0.2673
  106MOL   C16336073   2.688   6.573   2.177 -0.4731 -0.2698  0.2730
  106MOL   H16436074   2.566   6.740   2.224 -0.0543 -0.4586 -0.0397
  106MOL   H16536075   2.351   6.779   2.182  1.7079  0.3636  0.7917
  106MOL   H16636076   2.122   6.712   2.202 -1.6360 -1.9517  2.4717
  106MOL   H16736077   1.986   6.540   2.258 -1.1207 -0.4742  0.3937
  106MOL   H16836078   2.223   6.304   2.241  1.8821 -0.4957  1.0442
  106MOL   H16936079   2.472   6.375   2.265  0.2413 -0.3808  0.6334
  106MOL   H17036080   2.700   6.473   2.219  1.4054 -0.0154  0.4048
  106MOL   H17136081   2.778   6.626   2.211 -0.9033  0.0559  0.9126
  106MOL   C17236082   2.679   6.562   2.021 -0.1408  0.5980  0.1375
  106MOL   C17336083   2.721   6.694   1.950 -0.6358  0.2151 -0.1243
  106MOL   C17436084   2.840   6.693   1.871 -0.7702 -0.0618  0.6747
  106MOL   C17536085   2.861   6.801   1.776  0.0647  0.4334  0.4239
  106MOL   C17636086   2.780   6.915   1.779  0.2277  0.0780 -0.7718
  106MOL   O17736087   2.798   7.020   1.687 -1.0154 -0.1298  0.3712
  106MOL   C17836088   2.672   6.921   1.872 -0.4829  0.2581  0.1190
  106MOL   C17936089   2.637   6.806   1.945  0.0753 -0.0794  0.6547
  106MOL   C18036090   2.566   6.485   1.950  0.4613  0.3435 -0.6656
  106MOL   H18136091   2.762   6.494   2.002 -0.5000  0.1280  0.2242
  106MOL   H18236092   2.886   6.596   1.859  0.3606  0.4100  1.1411
  106MOL   H18336093   2.951   6.783   1.719  0.3061 -0.2441  1.0115
  106MOL   H18436094   2.715   7.052   1.654  0.1195  1.5098 -0.9888
  106MOL   H18536095   2.596   6.997   1.881 -2.7126 -1.9681  1.0014
  106MOL   H18636096   2.543   6.800   1.997 -1.3439 -0.2901 -1.8526
  106MOL   H18736097   2.483   6.554   1.935 -0.7229 -0.7598  0.6912
  106MOL   H18836098   2.540   6.407   2.022 -0.4235  0.2995 -1.0225
  106MOL   C18936099   2.615   6.391   1.835  0.0760 -0.5457  0.3991
  106MOL   C19036100   2.701   6.264   1.869 -0.7685 -0.5297  0.2235
  106MOL   C19136101   2.674   6.187   1.988  0.6763 -0.3550 -0.7007
  106MOL   C19236102   2.753   6.081   2.033 -0.3390  0.1194  0.7627
  106MOL   C19336103   2.863   6.049   1.948 -0.2415 -0.1211  0.1103
  106MOL   O19436104   2.950   5.950   1.972  0.0035  0.4255 -0.2349
  106MOL   C19536105   2.894   6.121   1.830  0.0292 -0.8077 -0.0792
  106MOL   C19636106   2.810   6.228   1.792  0.1004  0.0201  0.5972
  106MOL   C19736107   2.492   6.355   1.741  0.3396  0.1448  0.4150
  106MOL   H19836108   2.683   6.456   1.778 -1.9086 -0.0773 -1.5006
  106MOL   H19936109   2.587   6.204   2.051  0.6111 -0.7299 -0.6875
  106MOL   H20036110   2.730   6.033   2.127  3.9942 -0.2893  1.7428
  106MOL   H20136111   2.892   5.886   2.011  1.0336  0.6468  1.7167
  106MOL   H20236112   2.980   6.088   1.774 -0.3193  1.2370 -1.9287
  106MOL   H20336113   2.841   6.282   1.704  0.3665 -1.5504 -0.2875
  106MOL   H20436114   2.408   6.425   1.740 -0.6817 -1.0559  1.5736
  106MOL   H20536115   2.444   6.268   1.785 -1.4422  0.5585 -0.6763
  106MOL   C20636116   2.528   6.323   1.588  0.1304  0.9416 -0.0197
  106MOL   C20736117   2.588   6.444   1.532  0.2088 -1.2698 -0.3972
  106MOL   C20836118   2.720   6.446   1.483  0.2426  0.4324 -0.3077
  106MOL   C20936119   2.784   6.559   1.421  0.4935  0.2687 -0.0821
  106MOL   C21036120   2.711   6.679   1.407 -0.0349  0.9610 -0.1366
  106MOL   O21136121   2.771   6.795   1.365  0.5529 -0.2061 -0.3958
  106MOL   C21236122   2.574   6.673   1.434  0.9392  0.3381 -1.1097
  106MOL   C21336123   2.514   6.557   1.491 -0.5147 -0.0319 -0.5825
  106MOL   C21436124   2.396   6.269   1.514  0.3634  0.4029  0.1666
  106MOL   H21536125   2.597   6.238   1.583  2.8617  2.9490  2.2581
  106MOL   H21636126   2.789   6.371   1.518 -0.9334  0.8397  3.0606
  106MOL   H21736127   2.887   6.555   1.392  0.7673 -0.8191  0.9551
  106MOL   H21836128   2.859   6.787   1.331  0.5309  0.4965 -0.6440
  106MOL   H21936129   2.510   6.756   1.406  0.1426 -0.3115 -1.2454
  106MOL   H22036130   2.406   6.558   1.496 -0.4942  0.3137 -0.2051
  106MOL   H22136131   2.321   6.347   1.526  0.6105  0.9007 -1.3805
  106MOL   H22236132   2.352   6.181   1.560  0.7169  1.1753  2.0317
  106MOL   C22336133   2.401   6.249   1.365 -0.4512  0.9715 -0.7136
  106MOL   C22436134   2.271   6.247   1.293  0.0163  0.8556 -0.5264
  106MOL   C22536135   2.177   6.153   1.340 -0.2408  0.3522  0.3766
  106MOL   C22636136   2.062   6.128   1.272  0.5026 -0.4244 -0.1777
  106MOL   C22736137   2.044   6.190   1.148 -0.1796 -0.1914  0.3670
  106MOL   O22836138   1.937   6.158   1.075  0.1856 -0.3798  0.0807
  106MOL   C22936139   2.127   6.292   1.107  0.5113  0.3179  0.2329
  106MOL   C23036140   2.246   6.312   1.175 -0.1790  0.0705  0.2440
  106MOL   C23136141   2.487   6.120   1.336  0.6381  0.8317  0.1577
  106MOL   H23236142   2.446   6.337   1.319  1.0798 -0.7973 -2.7086
  106MOL   H23336143   2.192   6.103   1.434 -1.6460  0.3814  0.6377
  106MOL   H23436144   1.985   6.062   1.308 -1.0436 -0.4333 -3.3298
  106MOL   H23536145   1.946   6.186   0.986  1.9018 -0.0487  0.3443
  106MOL   H23636146   2.105   6.336   1.011 -1.7711 -0.0005  0.5732
  106MOL   H23736147   2.318   6.373   1.123  0.1362 -0.4638  0.0634
  106MOL   H23836148   2.584   6.139   1.381  0.4186 -0.0813  1.0255
  106MOL   H23936149   2.454   6.028   1.385  0.3385  0.0088 -1.5238
  106MOL   C24036150   2.498   6.066   1.180  0.3159  0.0823 -0.8711
  106MOL   C24136151   2.542   6.179   1.090  0.0096  0.1403 -0.6972
  106MOL   C24236152   2.635   6.276   1.130  0.4143 -0.8118 -0.6416
  106MOL   C24336153   2.669   6.385   1.048 -0.7072  0.9403  0.3500
  106MOL   C24436154   2.616   6.393   0.913 -0.1370 -0.4040 -0.1606
  106MOL   O24536155   2.654   6.497   0.836  0.3311  0.4810 -0.0755
  106MOL   C24636156   2.510   6.308   0.881  0.1514  0.6251  0.3064
  106MOL   C24736157   2.476   6.198   0.963 -0.1438  0.1508  0.1814
  106MOL   C24836158   2.568   5.934   1.156  0.4853 -0.0965  0.1418
  106MOL   H24936159   2.393   6.049   1.153 -0.7626 -1.7894  4.0615
  106MOL   H25036160   2.686   6.284   1.225 -0.0940  1.7236 -0.5549
  106MOL   H25136161   2.751   6.449   1.075  1.1570 -1.3354  0.3112
  106MOL   H25236162   2.611   6.498   0.752 -1.9632  1.0798  1.0810
  106MOL   H25336163   2.465   6.318   0.784  1.8468 -0.8347 -0.6697
  106MOL   H25436164   2.395   6.137   0.926 -0.6787  1.4910 -0.8715
  106MOL   H25536165   2.566   5.926   1.048 -3.5824  1.5440  0.0242
  106MOL   H25636166   2.673   5.948   1.178  0.2988  1.1009  0.3008
  106MOL   C25736167   2.506   5.808   1.225 -0.8808 -0.7445  0.6032
  106MOL   C25836168   2.367   5.793   1.198  0.0370 -0.3741  0.7692
  106MOL   C25936169   2.326   5.801   1.065  0.0450 -0.1336 -0.1504
  106MOL   C26036170   2.187   5.801   1.046 -0.2278  0.3655 -0.6551
  106MOL   C26136171   2.096   5.763   1.144 -0.0553  0.8078 -0.0359
  106MOL   O26236172   1.966   5.738   1.116 -0.0373  0.1884  0.1121
  106MOL   C26336173   2.143   5.750   1.279 -0.0651  0.1125  1.0539
  106MOL   C26436174   2.277   5.773   1.306 -0.1019  0.6704 -0.8188
  106MOL   C26536175   2.606   5.694   1.193  1.0564  0.4766 -0.5854
  106MOL   H26636176   2.525   5.829   1.330  2.6008  2.2938 -0.5074
  106MOL   H26736177   2.401   5.813   0.989 -1.0503  1.3243 -1.0326
  106MOL   H26836178   2.144   5.807   0.947  1.2069  0.2792 -1.2853
  106MOL   H26936179   1.916   5.736   1.196 -0.6075  0.3080 -0.2388
  106MOL   H27036180   2.078   5.741   1.365  0.3877  2.2505  1.6523
  106MOL   H27136181   2.318   5.786   1.405  1.6218 -2.1306 -1.0969
  106MOL   H27236182   2.709   5.728   1.201  1.6046 -0.9691 -1.2474
  106MOL   H27336183   2.587   5.660   1.091 -0.7233 -1.0622  0.2208
  106MOL   C27436184   2.591   5.570   1.295 -0.0362 -0.3811 -0.0357
  106MOL   C27536185   2.610   5.611   1.444 -0.8494  0.2126 -0.3004
  106MOL   C27636186   2.739   5.627   1.500  0.2113  0.4084 -0.4659
  106MOL   C27736187   2.756   5.678   1.632 -0.0338 -0.2806  0.3548
  106MOL   C27836188   2.643   5.695   1.711  0.4383  0.3666 -0.2401
  106MOL   O27936189   2.665   5.732   1.839 -0.8712  0.3722 -0.6907
  106MOL   C28036190   2.516   5.661   1.663  0.1608 -0.1380 -0.1757
  106MOL   C28136191   2.500   5.624   1.527 -0.0736 -0.8633  0.0168
  106MOL   C28236192   2.674   5.448   1.241  0.6319  0.3809 -0.1801
  106MOL   H28336193   2.485   5.551   1.283 -0.2532  1.2036 -0.7292
  106MOL   H28436194   2.826   5.593   1.446 -0.2770 -3.6399  1.1490
  106MOL   H28536195   2.855   5.688   1.674  0.3127 -0.9560 -0.2888
  106MOL   H28636196   2.586   5.769   1.875  0.1147  0.9948  0.8674
  106MOL   H28736197   2.434   5.666   1.732  1.0688  2.0180  0.8070
  106MOL   H28836198   2.400   5.599   1.492 -0.6414 -0.4456  1.3182
  106MOL   H28936199   2.660   5.436   1.134  1.4004 -0.9105 -0.1415
  106MOL   H29036200   2.781   5.464   1.250  0.4802 -0.1748  3.2581
  106MOL   C29136201   2.639   5.310   1.319  0.5094 -0.1209 -0.6826
  106MOL   C29236202   2.753   5.211   1.318  0.5931 -0.4210 -0.2548
  106MOL   C29336203   2.849   5.212   1.422 -0.3288 -0.2080 -0.3114
  106MOL   C29436204   2.942   5.108   1.434  1.1475  0.2412  0.2481
  106MOL   C29536205   2.925   4.984   1.363  0.0657  0.6128  0.2640
  106MOL   O29636206   3.004   4.871   1.380  0.5552 -0.2547  0.3018
  106MOL   C29736207   2.839   4.988   1.255  0.4536  0.1462  0.1606
  106MOL   C29836208   2.758   5.101   1.232  0.2988 -0.0255  0.0684
  106MOL   C29936209   2.495   5.258   1.282  0.6023  0.2153 -0.3018
  106MOL   H30036210   2.635   5.333   1.426  0.8206 -1.1582 -0.4502
  106MOL   H30136211   2.855   5.298   1.487  2.3430  0.2745 -1.1360
  106MOL   H30236212   3.019   5.120   1.508  1.6784 -2.2453  0.1376
  106MOL   H30336213   2.991   4.805   1.313 -1.7058 -0.4365  0.8822
  106MOL   H30436214   2.833   4.903   1.189 -1.6391  0.4741 -0.1110
  106MOL   H30536215   2.683   5.097   1.154  0.6403  1.5044 -0.3608
  106MOL   H30636216   2.491   5.195   1.193 -3.5266 -0.0600  0.0023
  106MOL   H30736217   2.441   5.349   1.257  0.4425 -0.6195 -3.1926
  106MOL   C30836218   2.410   5.189   1.390 -0.0644 -0.6851  0.1238
  106MOL   C30936219   2.474   5.061   1.427 -0.0233  0.7262 -0.1714
  106MOL   C31036220   2.566   5.053   1.532 -0.2078 -0.0329 -0.0431
  106MOL   C31136221   2.623   4.930   1.576 -1.2936  0.2213 -0.0658
  106MOL   C31236222   2.578   4.807   1.522 -0.5582  0.5465 -0.1091
  106MOL   O31336223   2.632   4.685   1.564 -0.1826  0.0364 -0.3665
  106MOL   C31436224   2.487   4.813   1.415  1.3309  0.0638 -0.5947
  106MOL   C31536225   2.446   4.934   1.362  0.1439  0.2185  0.2830
  106MOL   C31636226   2.261   5.173   1.357 -0.0625 -0.0806  0.0028
  106MOL   H31736227   2.406   5.256   1.476 -1.5038  1.8220 -1.8064
  106MOL   H31836228   2.583   5.140   1.594 -3.5934  0.3907  0.4125
  106MOL   H31936229   2.679   4.926   1.668 -2.4409  0.4716  0.6534
  106MOL   H32036230   2.721   4.696   1.595  0.9577 -0.6579 -3.2338
  106MOL   H32136231   2.455   4.726   1.360  0.7676 -0.1188  0.0266
  106MOL   H32236232   2.382   4.925   1.275  0.1474  0.8591  0.2101
  106MOL   H32336233   2.213   5.122   1.441 -1.2228  0.9890  0.0008
  106MOL   H32436234   2.255   5.111   1.268  1.5295 -0.9369  0.4719
  106MOL   C32536235   2.185   5.300   1.342  0.0030  0.3617 -0.0351
  106MOL   C32636236   2.047   5.306   1.417 -0.2384  0.0789  0.7086
  106MOL   C32736237   1.934   5.241   1.367  0.8406 -0.1747 -0.9687
  106MOL   C32836238   1.812   5.245   1.434 -0.6142  0.8343 -0.3767
  106MOL   C32936239   1.798   5.312   1.561 -0.4373 -0.6985  0.2483
  106MOL   O33036240   1.676   5.306   1.623 -0.2632 -0.7419  0.1063
  106MOL   C33136241   1.904   5.389   1.607  1.1321  0.6207 -0.0100
  106MOL   C33236242   2.034   5.383   1.541  0.2010 -0.6959  0.3215
  106MOL   C33336243   2.175   5.349   1.201  0.2893 -0.0363 -0.5190
  106MOL   H33436244   2.238   5.376   1.399  0.9509 -1.2101  1.2020
  106MOL   H33536245   1.940   5.178   1.279  0.5904 -2.0292  0.3316
  106MOL   H33636246   1.737   5.192   1.379 -1.5020  1.3409  0.3290
  106MOL   H33736247   1.607   5.313   1.558  0.0210 -0.6756 -0.1884
  106MOL   H33836248   1.874   5.446   1.694  0.1943  0.4905 -0.2383
  106MOL   H33936249   2.114   5.443   1.583 -0.4630  0.4842 -0.0699
  106MOL   H34036250   2.272   5.361   1.151  0.6340  1.1464  0.4049
  106MOL   H34136251   2.127   5.446   1.194  1.1041  0.4810  0.9905
  106MOL   H34236252   2.110   5.283   1.144  1.7299 -1.3057 -0.7445
  107MOL     C136253   4.408   4.632   3.709  0.2183  0.3540  0.7469
  107MOL     C236254   4.396   4.492   3.750  0.1168 -0.2099  0.7642
  107MOL     C336255   4.302   4.455   3.848  0.2653 -0.3894 -0.3721
  107MOL     C436256   4.290   4.318   3.884  0.5408 -0.3859  0.2112
  107MOL     C536257   4.380   4.225   3.830  0.3833 -0.0651 -0.3428
  107MOL     O636258   4.383   4.095   3.882 -0.3173  0.0661  0.2597
  107MOL     C736259   4.477   4.264   3.736  0.0094 -0.2784  0.3709
  107MOL     C836260   4.487   4.399   3.694 -0.0607  0.1855  0.4134
  107MOL     C936261   4.380   4.652   3.562  0.1725  0.7595 -0.2860
  107MOL    H1036262   4.331   4.689   3.762 -0.8531 -1.1317  0.8216
  107MOL    H1136263   4.234   4.517   3.905  1.1394  0.2444  0.0045
  107MOL    H1236264   4.219   4.285   3.958  0.0634 -0.2059 -0.1679
  107MOL    H1336265   4.303   4.079   3.929 -0.0381  0.4593  0.8876
  107MOL    H1436266   4.552   4.190   3.713 -0.0229 -0.3087  0.3635
  107MOL    H1536267   4.576   4.428   3.641  0.1015  0.0281  0.5950
  107MOL    H1636268   4.277   4.619   3.549  0.4647  0.0808 -0.9402
  107MOL    H1736269   4.429   4.577   3.499 -0.8289  0.1269 -0.3431
  107MOL    H1836270   4.505   4.668   3.742  1.3656 -2.1074  0.0844
  107MOL    C1936271   4.406   4.795   3.509  0.3260  0.0093 -0.4842
  107MOL    C2036272   4.356   4.909   3.602  0.2967  0.5734 -0.3475
  107MOL    C2136273   4.445   5.016   3.630 -0.2130  0.1051 -0.4998
  107MOL    C2236274   4.388   5.128   3.704 -0.0308 -0.7253 -0.4109
  107MOL    C2336275   4.254   5.133   3.735  0.8247 -0.1682 -0.0408
  107MOL    O2436276   4.206   5.246   3.789  0.1761 -0.1077 -0.2805
  107MOL    C2536277   4.172   5.020   3.717  0.1121 -0.1701 -0.1178
  107MOL    C2636278   4.224   4.910   3.645 -0.3562  0.1918 -0.1070
  107MOL    C2736279   4.337   4.812   3.375 -0.3191  0.7074 -0.0696
  107MOL    H2836280   4.515   4.800   3.514  0.2635 -0.2987  1.5590
  107MOL    H2936281   4.551   5.010   3.610  0.5525  1.7780  2.7634
  107MOL    H3036282   4.439   5.223   3.711  0.9365 -1.2242 -0.6257
  107MOL    H3136283   4.271   5.316   3.788  0.1211 -0.0638 -1.4370
  107MOL    H3236284   4.069   5.032   3.749  0.1779 -0.9622  0.4055
  107MOL    H3336285   4.164   4.826   3.613  2.4604 -1.1803 -2.0555
  107MOL    H3436286   4.344   4.919   3.355  0.0633  0.8336  0.6925
  107MOL    H3536287   4.230   4.794   3.383 -0.3595  1.0546  0.1900
  107MOL    C3636288   4.405   4.735   3.258 -0.1379 -0.2578  0.0315
  107MOL    C3736289   4.555   4.754   3.253 -0.2167 -0.1458  0.2747
  107MOL    C3836290   4.611   4.882   3.243  0.1764  0.6443  0.2852
  107MOL    C3936291   4.749   4.904   3.247 -1.0865  0.7706 -0.1503
  107MOL    C4036292   4.835   4.792   3.248 -0.3155  0.2087 -0.1981
  107MOL    O4136293   4.972   4.807   3.252  0.2328  0.3472  0.0482
  107MOL    C4236294   4.779   4.663   3.245  0.3560  0.1467 -0.4128
  107MOL    C4336295   4.641   4.646   3.248  0.6567  0.3246  0.2474
  107MOL    C4436296   4.337   4.781   3.137  0.6970  0.1926  1.0423
  107MOL    H4536297   4.382   4.631   3.280 -2.5388  0.5713  1.6647
  107MOL    H4636298   4.546   4.967   3.230 -0.3456  0.3742  1.1130
  107MOL    H4736299   4.788   5.004   3.248  0.3092  0.2317  1.8032
  107MOL    H4836300   5.018   4.730   3.283 -1.7835 -0.5457  0.8975
  107MOL    H4936301   4.843   4.576   3.247  0.2320  0.0650  1.4251
  107MOL    H5036302   4.603   4.545   3.239  0.9084  0.2277  0.2553
  107MOL    H5136303   4.231   4.774   3.162  0.3993  2.8233  0.6166
  107MOL    H5236304   4.351   4.887   3.118 -1.7365  0.1811 -1.2176
  107MOL    C5336305   4.374   4.717   3.002 -0.5910  0.1804 -0.4152
  107MOL    C5436306   4.344   4.565   2.988  0.2309 -0.5399 -0.1258
  107MOL    C5536307   4.207   4.512   3.006 -0.0285  0.0264 -0.2429
  107MOL    C5636308   4.172   4.377   2.989  0.8692 -0.4439  0.3443
  107MOL    C5736309   4.273   4.289   2.953 -0.1791  0.3151  0.2787
  107MOL    O5836310   4.243   4.155   2.940 -0.4381  0.1332  0.3188
  107MOL    C5936311   4.407   4.335   2.938 -0.4105  0.5049  0.3475
  107MOL    C6036312   4.447   4.467   2.957  0.3059 -0.5784  0.0049
  107MOL    C6136313   4.328   4.795   2.876  0.5230 -0.1971 -0.4996
  107MOL    H6236314   4.483   4.716   2.996 -0.6468 -0.8564 -1.3514
  107MOL    H6336315   4.136   4.591   3.028 -0.3477  0.9781 -4.2137
  107MOL    H6436316   4.069   4.347   2.998  0.5797  0.1594 -0.8314
  107MOL    H6536317   4.324   4.106   2.940 -0.2251  0.4874  0.3831
  107MOL    H6636318   4.480   4.261   2.909  2.0270  2.3488  1.6084
  107MOL    H6736319   4.550   4.496   2.939  1.6160 -2.8263  3.3809
  107MOL    H6836320   4.337   4.899   2.908 -1.6905 -0.8542  2.5047
  107MOL    H6936321   4.223   4.772   2.856 -0.0087  2.2510 -0.7025
  107MOL    C7036322   4.404   4.784   2.740  0.5823 -0.1443 -0.9818
  107MOL    C7136323   4.553   4.796   2.757  0.4813  0.0045  0.2565
  107MOL    C7236324   4.614   4.916   2.790  0.5474  0.0651 -0.1367
  107MOL    C7336325   4.755   4.931   2.783 -0.1044  0.6040  0.4828
  107MOL    C7436326   4.835   4.817   2.762 -0.2758  0.0701 -0.0184
  107MOL    O7536327   4.971   4.832   2.765 -0.1885  0.6301 -0.2395
  107MOL    C7636328   4.777   4.695   2.732 -0.0491 -0.8287 -0.3216
  107MOL    C7736329   4.637   4.682   2.738  0.3671  0.8270 -0.8087
  107MOL    C7836330   4.338   4.870   2.633 -0.4535  0.2068 -0.0670
  107MOL    H7936331   4.396   4.681   2.703 -0.1160 -0.5657  0.3005
  107MOL    H8036332   4.559   5.008   2.800  1.7576  0.6572  1.3738
  107MOL    H8136333   4.810   5.019   2.809  0.9792  0.1332 -0.1656
  107MOL    H8236334   4.983   4.911   2.815  1.7661 -0.4748  1.1030
  107MOL    H8336335   4.834   4.603   2.728 -0.4197 -0.9996 -1.8125
  107MOL    H8436336   4.600   4.581   2.733  1.7673  0.3046 -0.7811
  107MOL    H8536337   4.305   4.962   2.680 -1.7820 -1.0296  1.5206
  107MOL    H8636338   4.248   4.813   2.610  0.8084 -0.8752 -2.4373
  107MOL    C8736339   4.407   4.884   2.495 -0.3888  0.5041  0.2981
  107MOL    C8836340   4.327   4.981   2.416 -0.4335 -0.3839 -0.3764
  107MOL    C8936341   4.365   5.115   2.412 -0.0764 -0.7515  0.4801
  107MOL    C9036342   4.290   5.210   2.343  0.6267 -0.4623  0.5400
  107MOL    C9136343   4.180   5.166   2.258  0.1582 -0.0510  0.4957
  107MOL    O9236344   4.107   5.251   2.182 -0.3265 -0.0411 -0.5253
  107MOL    C9336345   4.149   5.024   2.255 -0.0370 -0.2073 -0.3663
  107MOL    C9436346   4.226   4.931   2.331 -0.2254  0.5394 -0.6452
  107MOL    C9536347   4.444   4.763   2.417 -0.0737  0.3563  0.3159
  107MOL    H9636348   4.499   4.935   2.521 -0.3849  0.2101  0.8807
  107MOL    H9736349   4.445   5.148   2.476  1.6927 -3.1717 -0.4320
  107MOL    H9836350   4.319   5.313   2.347  1.0797 -0.6097  0.9917
  107MOL    H9936351   4.043   5.214   2.122 -0.5921 -0.4227 -0.0062
  107MOL   H10036352   4.069   4.991   2.191  0.0091 -0.9574 -0.0469
  107MOL   H10136353   4.190   4.829   2.333  2.3343 -0.3737  2.4138
  107MOL   H10236354   4.492   4.690   2.481  1.8539 -0.9322 -2.5285
  107MOL   H10336355   4.355   4.705   2.391 -0.3832  1.0794 -0.2730
  107MOL   C10436356   4.541   4.772   2.294  0.5106 -0.4803 -0.0161
  107MOL   C10536357   4.459   4.822   2.174 -0.0749  0.4878 -0.1989
  107MOL   C10636358   4.369   4.740   2.095 -0.6958 -1.0272  0.4855
  107MOL   C10736359   4.307   4.790   1.981 -0.4099  0.1512  0.1859
  107MOL   C10836360   4.346   4.911   1.929 -0.4008 -0.8656  0.4765
  107MOL   O10936361   4.273   4.966   1.832  0.0600  0.0728  0.1245
  107MOL   C11036362   4.442   4.994   2.000  0.2007 -0.6988 -0.0528
  107MOL   C11136363   4.494   4.943   2.120 -0.3933 -0.6009 -0.7615
  107MOL   C11236364   4.619   4.643   2.263 -0.6536 -0.3222 -0.3451
  107MOL   H11336365   4.609   4.850   2.329  0.2774  0.1497 -0.9460
  107MOL   H11436366   4.341   4.640   2.125 -1.9974 -1.0909 -0.8911
  107MOL   H11536367   4.222   4.735   1.944 -0.5678  0.0789  0.6433
  107MOL   H11636368   4.187   4.926   1.836 -0.3692  1.1687  2.2235
  107MOL   H11736369   4.460   5.096   1.970 -0.2110 -0.9708 -1.2723
  107MOL   H11836370   4.564   5.009   2.169 -1.1296  0.4013 -1.0546
  107MOL   H11936371   4.615   4.628   2.155 -1.6530 -2.1031 -0.0719
  107MOL   H12036372   4.552   4.561   2.289  1.5360 -2.9357 -2.6192
  107MOL   C12136373   4.771   4.644   2.307 -0.3732  0.0118 -0.5965
  107MOL   C12236374   4.822   4.508   2.351 -0.5930 -0.5233  0.3316
  107MOL   C12336375   4.767   4.385   2.308  0.0140 -0.2722  0.1200
  107MOL   C12436376   4.831   4.264   2.342 -0.4219 -0.4660 -0.2446
  107MOL   C12536377   4.944   4.270   2.431  0.1441  0.4662 -0.7281
  107MOL   O12636378   4.986   4.149   2.487  0.0923 -0.6671  0.1277
  107MOL   C12736379   4.991   4.393   2.476  0.1425  0.5291 -0.1521
  107MOL   C12836380   4.930   4.508   2.430 -0.1986 -0.6054  0.3654
  107MOL   C12936381   4.850   4.721   2.202 -0.1951  0.0143 -0.6917
  107MOL   H13036382   4.771   4.698   2.402  1.2265 -0.4602 -0.3140
  107MOL   H13136383   4.686   4.396   2.238  0.9819  3.7728 -0.4987
  107MOL   H13236384   4.796   4.167   2.308  1.4273 -2.0974  2.2966
  107MOL   H13336385   4.916   4.087   2.471 -1.0980  0.9147 -1.0283
  107MOL   H13436386   5.068   4.395   2.552 -0.4823 -2.0635  0.5947
  107MOL   H13536387   4.977   4.603   2.452 -2.1230  0.1930  1.1422
  107MOL   H13636388   4.786   4.757   2.121  0.4051  1.6543 -0.4716
  107MOL   H13736389   4.912   4.642   2.160 -1.0769 -1.9417  1.6122
  107MOL   C13836390   4.943   4.832   2.256  0.4536  0.1228 -0.6043
  107MOL   C13936391   4.869   4.956   2.299 -0.7468 -0.6306 -0.2744
  107MOL   C14036392   4.812   4.975   2.427  0.2389  0.2905  0.4120
  107MOL   C14136393   4.742   5.089   2.465  0.3358  0.1035  0.2684
  107MOL   C14236394   4.715   5.189   2.369 -0.3966 -0.2431  0.3051
  107MOL   O14336395   4.646   5.298   2.409 -0.0710  0.4489 -0.3649
  107MOL   C14436396   4.775   5.181   2.236 -0.0593 -0.3158  0.1788
  107MOL   C14536397   4.853   5.062   2.203  0.4019 -0.4593  0.3508
  107MOL   C14636398   5.068   4.869   2.169  0.5219  0.1015 -0.1533
  107MOL   H14736399   4.979   4.792   2.351 -1.5746 -0.2988  0.0172
  107MOL   H14836400   4.820   4.891   2.495 -2.0585  0.1984  0.5953
  107MOL   H14936401   4.706   5.085   2.566 -0.9178 -1.7298 -0.2182
  107MOL   H15036402   4.586   5.341   2.351  1.4076  1.6740 -1.0325
  107MOL   H15136403   4.769   5.259   2.162 -1.2507 -1.8214 -1.3326
  107MOL   H15236404   4.885   5.069   2.100 -3.3980  5.0068 -0.7172
  107MOL   H15336405   5.111   4.968   2.182 -0.6631  0.8928 -2.1784
  107MOL   H15436406   5.019   4.875   2.072 -3.3455 -0.5690  1.6951
  107MOL   C15536407   5.177   4.760   2.176  0.2928 -0.2929 -0.0561
  107MOL   C15636408   5.286   4.809   2.272 -0.0056 -0.0390  0.5098
  107MOL   C15736409   5.380   4.904   2.216 -0.4692 -0.0068  0.2892
  107MOL   C15836410   5.489   4.945   2.294 -0.0445 -0.2767  0.4978
  107MOL   C15936411   5.507   4.881   2.423  0.0824 -0.5501  1.3061
  107MOL   O16036412   5.598   4.932   2.508 -0.6054  0.2621 -0.0695
  107MOL   C16136413   5.414   4.782   2.472 -0.1659 -0.0626 -0.3187
  107MOL   C16236414   5.302   4.756   2.399 -0.1751 -0.1539  0.7238
  107MOL   C16336415   5.219   4.716   2.038  0.4966  0.0741 -0.2635
  107MOL   H16436416   5.137   4.666   2.215  0.6576  0.0416  1.1654
  107MOL   H16536417   5.362   4.944   2.118  1.4579  0.8962  0.2850
  107MOL   H16636418   5.567   5.002   2.245 -0.2665 -0.5597 -0.1936
  107MOL   H16736419   5.598   5.027   2.514  0.0770  0.2753 -0.2909
  107MOL   H16836420   5.423   4.735   2.568 -0.0217 -1.6726 -1.0979
  107MOL   H16936421   5.232   4.686   2.442 -0.4839 -1.1424 -1.3232
  107MOL   H17036422   5.277   4.793   1.989 -0.1554  2.2261  2.2203
  107MOL   H17136423   5.133   4.702   1.972 -0.5669 -0.3082  1.1769
  107MOL   C17236424   5.300   4.586   2.025 -0.2434  0.4678 -0.1192
  107MOL   C17336425   5.371   4.579   1.884  0.8412  0.4805 -0.6609
  107MOL   C17436426   5.299   4.583   1.768 -0.1872  0.5289 -0.1055
  107MOL   C17536427   5.361   4.577   1.643  0.6537 -0.2542  0.1753
  107MOL   C17636428   5.503   4.571   1.629 -0.6395  0.4372  0.8930
  107MOL   O17736429   5.559   4.576   1.500  0.4013 -0.5249 -0.4871
  107MOL   C17836430   5.578   4.572   1.750 -0.2916 -0.4247 -0.1406
  107MOL   C17936431   5.510   4.572   1.874  0.1050 -0.9575  0.3082
  107MOL   C18036432   5.230   4.454   2.068 -0.0871  0.7773  0.2575
  107MOL   H18136433   5.382   4.611   2.092 -0.4861 -0.4778  0.5345
  107MOL   H18236434   5.191   4.571   1.769  0.0456 -2.0086  0.0275
  107MOL   H18336435   5.303   4.578   1.552 -1.0718  0.0091  1.2354
  107MOL   H18436436   5.498   4.586   1.430 -1.6522  0.2040  1.3424
  107MOL   H18536437   5.685   4.576   1.753 -0.2607 -1.2262 -0.1559
  107MOL   H18636438   5.576   4.576   1.960  0.2674  1.5040  0.1032
  107MOL   H18736439   5.152   4.440   1.994 -0.4118 -1.3985  0.9590
  107MOL   H18836440   5.186   4.464   2.167 -1.3102 -0.8990 -0.0972
  107MOL   C18936441   5.312   4.320   2.083  0.5259  0.8821 -0.2745
  107MOL   C19036442   5.420   4.330   2.197  0.2635  0.2167  0.8093
  107MOL   C19136443   5.550   4.289   2.168  0.0181 -0.1371 -0.1839
  107MOL   C19236444   5.642   4.271   2.270  0.0246  0.7445  0.3284
  107MOL   C19336445   5.611   4.300   2.408 -0.6124 -0.6401 -1.3897
  107MOL   O19436446   5.697   4.281   2.508  0.0104 -0.4951  0.2625
  107MOL   C19536447   5.482   4.351   2.434  0.2359 -0.6844 -0.1311
  107MOL   C19636448   5.382   4.353   2.333 -0.1848  0.6675 -0.8204
  107MOL   C19736449   5.209   4.204   2.112  0.1695 -0.3558 -0.2661
  107MOL   H19836450   5.366   4.302   1.990 -0.4299 -2.0173 -0.3315
  107MOL   H19936451   5.575   4.263   2.066  2.0431 -0.8780  0.4683
  107MOL   H20036452   5.739   4.233   2.240  0.9042  2.3439  1.1270
  107MOL   H20136453   5.651   4.305   2.586 -3.5036 -1.3007 -1.4449
  107MOL   H20236454   5.441   4.354   2.533 -4.8425 -1.3873 -2.0691
  107MOL   H20336455   5.280   4.378   2.359  0.7857  2.1585  1.7543
  107MOL   H20436456   5.124   4.232   2.174  0.8748 -0.5953  0.8211
  107MOL   H20536457   5.256   4.123   2.168  1.5604 -0.3558 -1.4042
  107MOL   C20636458   5.155   4.126   1.994 -0.4574  0.1070  0.2724
  107MOL   C20736459   5.076   4.213   1.903  0.2689 -1.3965  0.7975
  107MOL   C20836460   4.975   4.290   1.952  0.0106  0.4766  0.2501
  107MOL   C20936461   4.889   4.362   1.875 -0.0613 -0.4618  0.3223
  107MOL   C21036462   4.928   4.384   1.743 -0.8203  0.4496 -0.4360
  107MOL   O21136463   4.865   4.476   1.670  0.6910 -0.2702 -0.2779
  107MOL   C21236464   5.030   4.313   1.688 -0.2480  0.3698 -0.2821
  107MOL   C21336465   5.106   4.226   1.767 -0.3407 -0.2212  0.4237
  107MOL   C21436466   5.074   3.995   2.028 -0.0420  0.0757 -0.0079
  107MOL   H21536467   5.251   4.100   1.949 -0.9068 -2.7115  0.8634
  107MOL   H21636468   4.935   4.268   2.050  0.8573  1.7685  0.9023
  107MOL   H21736469   4.796   4.402   1.911  0.1595  0.1316  0.2301
  107MOL   H21836470   4.815   4.542   1.715 -0.0391 -0.0190 -1.4544
  107MOL   H21936471   5.035   4.329   1.582 -3.1368  0.6495 -0.4346
  107MOL   H22036472   5.186   4.160   1.735 -0.7341 -0.6792  0.3755
  107MOL   H22136473   4.974   4.029   2.055  0.6832  1.3042  1.2186
  107MOL   H22236474   5.118   3.948   2.116  2.1779  0.0601 -1.0941
  107MOL   C22336475   5.081   3.884   1.915  0.0437  0.4710 -0.3321
  107MOL   C22436476   4.955   3.895   1.832  0.3041  0.2601  0.2870
  107MOL   C22536477   4.829   3.884   1.888  0.7101 -0.2808 -0.5414
  107MOL   C22636478   4.711   3.899   1.815 -0.0013 -0.4272 -0.9716
  107MOL   C22736479   4.717   3.954   1.684 -0.0863 -0.2745 -0.5705
  107MOL   O22836480   4.604   3.982   1.614  0.0844  0.3422  1.1007
  107MOL   C22936481   4.845   3.981   1.635  0.3223  0.4831  0.0270
  107MOL   C23036482   4.963   3.952   1.703  0.5083 -0.7523 -1.2098
  107MOL   C23136483   5.100   3.739   1.976  1.0653  0.4092  0.1283
  107MOL   H23236484   5.173   3.900   1.858  1.0026 -1.0293  0.7450
  107MOL   H23336485   4.825   3.846   1.989  0.0535 -1.8309 -1.1368
  107MOL   H23436486   4.616   3.879   1.862 -0.0453  1.7505 -0.0623
  107MOL   H23536487   4.626   4.063   1.572  0.0805  0.2372  0.8983
  107MOL   H23636488   4.851   4.024   1.536 -1.4562  0.9993  0.1361
  107MOL   H23736489   5.057   3.979   1.658  1.0459  1.6031  1.1652
  107MOL   H23836490   5.183   3.741   2.047  0.3626 -0.3731  0.9936
  107MOL   H23936491   5.013   3.716   2.037  1.6958 -0.4161  0.7407
  107MOL   C24036492   5.127   3.617   1.884 -0.2156  0.9652 -0.3090
  107MOL   C24136493   5.186   3.505   1.978 -0.4451 -0.0155  0.1493
  107MOL   C24236494   5.321   3.459   1.947 -0.7109 -0.4625 -0.9409
  107MOL   C24336495   5.384   3.384   2.050  0.2762 -0.0842  0.0885
  107MOL   C24436496   5.311   3.332   2.162 -0.3518  0.0333  0.4870
  107MOL   O24536497   5.373   3.247   2.254 -0.1860 -0.6559  0.5103
  107MOL   C24636498   5.179   3.368   2.184  0.0343  0.8548 -0.1239
  107MOL   C24736499   5.114   3.449   2.092 -0.0602 -0.3247  0.0578
  107MOL   C24836500   4.987   3.564   1.831 -1.0896  0.0607 -0.1622
  107MOL   H24936501   5.191   3.631   1.796 -1.0577  0.4439 -1.0226
  107MOL   H25036502   5.362   3.493   1.853 -1.2713  0.5951 -0.8124
  107MOL   H25136503   5.485   3.349   2.035  0.1797 -0.4722  0.3439
  107MOL   H25236504   5.303   3.203   2.300 -0.2309 -1.3009 -0.1589
  107MOL   H25336505   5.130   3.335   2.274  1.0825  0.4947  0.3212
  107MOL   H25436506   5.012   3.468   2.123 -0.1844 -1.9884  0.7434
  107MOL   H25536507   4.935   3.507   1.908 -0.8590  0.4040  0.2538
  107MOL   H25636508   4.928   3.653   1.812 -2.0579 -0.4425  0.4390
  107MOL   C25736509   4.997   3.480   1.703  0.3906  0.0489  0.5251
  107MOL   C25836510   4.919   3.350   1.718 -0.1519 -0.6349 -0.1901
  107MOL   C25936511   4.784   3.361   1.770  0.1401  0.7139  0.1159
  107MOL   C26036512   4.718   3.242   1.802  0.5214 -0.0229  0.5632
  107MOL   C26136513   4.753   3.121   1.741 -0.1963 -0.0118 -0.5673
  107MOL   O26236514   4.669   3.015   1.754  0.1807  0.4295  0.1858
  107MOL   C26336515   4.883   3.116   1.675  0.1702 -0.2732  0.2915
  107MOL   C26436516   4.964   3.232   1.672  0.5050  0.8128  0.0027
  107MOL   C26536517   4.943   3.560   1.580  0.3164  0.1017 -1.0706
  107MOL   H26636518   5.103   3.465   1.683  0.1559 -1.7486  0.5496
  107MOL   H26736519   4.750   3.458   1.802  1.7834  0.4380  2.8588
  107MOL   H26836520   4.617   3.253   1.839 -0.1549 -0.7314 -1.0213
  107MOL   H26936521   4.705   2.943   1.704 -1.3333  0.0233 -0.3364
  107MOL   H27036522   4.916   3.029   1.619 -1.4107  0.0443 -1.1556
  107MOL   H27136523   5.064   3.220   1.633  0.2981 -0.6979 -0.0843
  107MOL   H27236524   4.993   3.657   1.572 -2.2197  1.1857 -5.4838
  107MOL   H27336525   4.838   3.588   1.584  0.6675  1.2438  0.6750
  107MOL   C27436526   4.963   3.488   1.440 -0.1277 -0.8761 -0.0965
  107MOL   C27536527   4.960   3.593   1.323 -0.0371  0.4792 -0.0341
  107MOL   C27636528   4.863   3.697   1.327 -0.7355 -0.6579  0.2148
  107MOL   C27736529   4.862   3.795   1.230  0.3442 -0.0180  0.1080
  107MOL   C27836530   4.953   3.795   1.128 -0.1070  0.1697  0.5399
  107MOL   O27936531   4.947   3.896   1.037  0.1504  0.0022 -0.2361
  107MOL   C28036532   5.043   3.693   1.116 -0.2031  0.6391 -0.8643
  107MOL   C28136533   5.048   3.589   1.212  0.3341  0.6534  0.0567
  107MOL   C28236534   4.871   3.366   1.398 -0.0758 -0.4293  0.6748
  107MOL   H28336535   5.063   3.445   1.448  0.5269  0.8077  0.9587
  107MOL   H28436536   4.786   3.704   1.403 -0.3133 -0.7225  0.6574
  107MOL   H28536537   4.780   3.865   1.228  0.5473  0.1865 -1.1153
  107MOL   H28636538   4.928   3.859   0.952 -0.1424 -1.1324  0.3135
  107MOL   H28736539   5.099   3.693   1.024 -0.6640  0.7792 -1.1440
  107MOL   H28836540   5.112   3.503   1.198 -0.7090 -0.1716  0.3852
  107MOL   H28936541   4.828   3.310   1.482  2.2356  0.4583  2.4801
  107MOL   H29036542   4.780   3.406   1.353  1.5108  0.6892 -1.6323
  107MOL   C29136543   4.933   3.269   1.295 -0.6881  0.3599 -0.0904
  107MOL   C29236544   4.821   3.185   1.242  0.0184  0.0125  0.0333
  107MOL   C29336545   4.752   3.222   1.127  0.4818  0.3936  0.5676
  107MOL   C29436546   4.645   3.150   1.079  0.1207  0.1436  0.3867
  107MOL   C29536547   4.588   3.049   1.158  0.0130  1.0162  0.2033
  107MOL   O29636548   4.474   2.979   1.109  0.0205  0.1797 -0.2804
  107MOL   C29736549   4.654   3.008   1.277  0.0226 -0.4483  0.5315
  107MOL   C29836550   4.762   3.078   1.319 -0.3017  0.2644 -0.3222
  107MOL   C29936551   5.065   3.192   1.329  0.1754 -0.4402 -0.3359
  107MOL   H30036552   4.974   3.327   1.212  0.9064  0.8600  1.0126
  107MOL   H30136553   4.784   3.298   1.056  1.4299 -0.7471 -0.2579
  107MOL   H30236554   4.599   3.179   0.986 -1.3762 -4.5004 -0.4535
  107MOL   H30336555   4.436   2.944   1.188  0.2968 -1.8575 -1.0193
  107MOL   H30436556   4.620   2.922   1.333 -1.4551  0.1827  0.6243
  107MOL   H30536557   4.802   3.054   1.417 -0.6211  2.3532  0.3446
  107MOL   H30636558   5.053   3.137   1.423 -0.7127  1.5004  0.7192
  107MOL   H30736559   5.144   3.261   1.357 -0.4030 -0.1765  0.6708
  107MOL   C30836560   5.119   3.104   1.205  0.3964 -0.6822  0.7560
  107MOL   C30936561   5.084   2.955   1.226 -0.6186 -0.7664 -0.2511
  107MOL   C31036562   4.982   2.901   1.144 -0.2463 -0.1903  0.3885
  107MOL   C31136563   4.931   2.776   1.176  0.1491 -0.0154 -0.1340
  107MOL   C31236564   4.991   2.699   1.279  0.8081 -0.5485 -1.0545
  107MOL   O31336565   4.941   2.573   1.303 -0.2987 -0.3360  0.2221
  107MOL   C31436566   5.086   2.752   1.367 -0.1797  0.0696  0.1562
  107MOL   C31536567   5.133   2.883   1.338  0.7207 -0.1569  0.0055
  107MOL   C31636568   5.270   3.138   1.181 -0.3752  0.8058  0.4770
  107MOL   H31736569   5.056   3.134   1.121  0.5937 -2.1986  0.0491
  107MOL   H31836570   4.944   2.965   1.066  0.7225 -0.1508 -0.0657
  107MOL   H31936571   4.842   2.751   1.121  0.2725  0.9712 -0.7837
  107MOL   H32036572   4.851   2.571   1.274  0.5422  1.2011 -2.6871
  107MOL   H32136573   5.127   2.689   1.445  2.6206 -1.1985 -2.2548
  107MOL   H32236574   5.217   2.925   1.392  0.2139  1.2466 -0.2589
  107MOL   H32336575   5.326   3.085   1.258 -3.1955 -2.5707  0.3498
  107MOL   H32436576   5.283   3.246   1.193 -0.6504  0.6988  1.7172
  107MOL   C32536577   5.330   3.100   1.037 -0.3445 -0.4784  0.3471
  107MOL   C32636578   5.475   3.135   1.011 -0.6937 -0.3101  0.0785
  107MOL   C32736579   5.539   3.073   0.905  0.3892 -0.5030 -0.1286
  107MOL   C32836580   5.677   3.104   0.881 -0.0754 -0.2414 -0.3677
  107MOL   C32936581   5.749   3.190   0.971  0.4701  0.8245 -0.1935
  107MOL   O33036582   5.886   3.195   0.947  0.1592 -0.1112  0.2865
  107MOL   C33136583   5.679   3.255   1.072 -0.1692 -0.0493  0.0169
  107MOL   C33236584   5.539   3.237   1.084 -0.2084 -0.1702  0.3257
  107MOL   C33336585   5.245   3.181   0.923 -0.4544 -0.1239 -0.1750
  107MOL   H33436586   5.309   2.995   1.015 -1.5705  0.0227 -1.0041
  107MOL   H33536587   5.487   3.011   0.833  1.3445 -0.2680 -1.0345
  107MOL   H33636588   5.742   3.062   0.806  2.0343  1.0478  0.6814
  107MOL   H33736589   5.941   3.221   1.019  4.0269  1.1837 -2.9337
  107MOL   H33836590   5.726   3.318   1.146 -1.6488 -0.1575  1.0706
  107MOL   H33936591   5.491   3.294   1.162  0.1059 -1.3105  1.3738
  107MOL   H34036592   5.284   3.162   0.823  0.9525  1.8591 -0.0273
  107MOL   H34136593   5.249   3.289   0.937 -0.1608  0.3796 -3.7070
  107MOL   H34236594   5.141   3.148   0.917 -0.1764 -0.9340 -0.6459
  108MOL     C136595   5.529   4.206   6.802  0.7726  0.3246 -0.0972
  108MOL     C236596   5.643   4.111   6.832 -0.5670  0.9035 -0.5745
  108MOL     C336597   5.782   4.135   6.795  0.8589 -0.5101  0.0692
  108MOL     C436598   5.878   4.039   6.816 -0.4147  0.0050 -0.3272
  108MOL     C536599   5.842   3.919   6.879 -0.6866 -0.8188 -0.0646
  108MOL     O636600   5.937   3.821   6.891  0.5744  0.2767 -0.7091
  108MOL     C736601   5.715   3.906   6.931  0.8498  0.9384 -0.4428
  108MOL     C836602   5.608   3.997   6.904  0.4276 -1.0599 -0.6861
  108MOL     C936603   5.536   4.316   6.904  0.3746 -0.2440  0.0533
  108MOL    H1036604   5.549   4.245   6.702  1.8290  0.0850  0.0155
  108MOL    H1136605   5.807   4.231   6.751  2.1452 -0.3577  1.1163
  108MOL    H1236606   5.975   4.058   6.775 -0.6963  0.2302 -0.8892
  108MOL    H1336607   5.996   3.821   6.818 -1.9070 -1.7873 -2.8128
  108MOL    H1436608   5.699   3.813   6.984 -0.1018 -0.5283 -3.2448
  108MOL    H1536609   5.513   3.966   6.943  0.1133 -1.8357 -2.0586
  108MOL    H1636610   5.626   4.376   6.889 -1.2504  1.9774 -1.2262
  108MOL    H1736611   5.548   4.271   7.003  1.9654 -0.2401 -0.1147
  108MOL    H1836612   5.432   4.156   6.797  1.5013 -1.0807 -0.3267
  108MOL    C1936613   5.408   4.402   6.905  0.6874 -1.0623  0.5541
  108MOL    C2036614   5.391   4.470   6.773  0.0013  0.8249  0.0741
  108MOL    C2136615   5.491   4.561   6.721  0.1404 -0.7188  0.2761
  108MOL    C2236616   5.473   4.613   6.593  0.1968 -0.8472 -0.1615
  108MOL    C2336617   5.360   4.585   6.515  0.6911 -0.2911 -0.0512
  108MOL    O2436618   5.363   4.626   6.390  0.1835 -0.7003  0.4208
  108MOL    C2536619   5.266   4.499   6.569 -0.0409 -0.3797 -0.3925
  108MOL    C2636620   5.276   4.441   6.696 -0.8249  0.3929 -0.2761
  108MOL    C2736621   5.394   4.508   7.011  0.3196 -0.2391 -0.0266
  108MOL    H2836622   5.327   4.330   6.917 -0.3166  0.2598  1.7985
  108MOL    H2936623   5.578   4.593   6.777  0.9718 -1.4619 -0.5766
  108MOL    H3036624   5.549   4.680   6.557 -0.9134  0.5732  0.1081
  108MOL    H3136625   5.450   4.634   6.352 -0.1610 -2.8364 -0.9012
  108MOL    H3236626   5.176   4.480   6.512 -1.7610 -0.8764  2.3741
  108MOL    H3336627   5.200   4.372   6.730 -0.8315  0.7205  0.3943
  108MOL    H3436628   5.459   4.590   6.979  0.2811 -0.2884 -0.2268
  108MOL    H3536629   5.432   4.477   7.109  0.7078  0.5386  0.0755
  108MOL    C3636630   5.249   4.558   7.042 -0.0765  0.3128  0.1351
  108MOL    C3736631   5.261   4.676   7.138 -0.0785 -0.5050 -0.1380
  108MOL    C3836632   5.294   4.661   7.273  0.0180  0.0030 -1.0876
  108MOL    C3936633   5.302   4.770   7.354  0.0570 -0.1625  0.1938
  108MOL    C4036634   5.277   4.904   7.311  0.2203 -0.4212 -0.3151
  108MOL    O4136635   5.286   5.011   7.395 -0.3635 -0.5606 -0.1204
  108MOL    C4236636   5.243   4.924   7.176 -0.2574  0.8873 -0.5972
  108MOL    C4336637   5.242   4.811   7.088 -0.5016  0.2495 -0.0163
  108MOL    C4436638   5.147   4.443   7.084 -0.4632 -0.0730 -0.7412
  108MOL    H4536639   5.226   4.603   6.946  0.3471 -0.7382 -0.4670
  108MOL    H4636640   5.318   4.561   7.304 -0.9099  0.3501  0.7946
  108MOL    H4736641   5.331   4.753   7.457  1.1232 -1.3029 -0.2884
  108MOL    H4836642   5.342   5.010   7.471 -1.6042  0.5517  0.8292
  108MOL    H4936643   5.230   5.022   7.133 -1.0281  0.1815 -1.9847
  108MOL    H5036644   5.227   4.821   6.981 -1.0871  0.5856  0.0961
  108MOL    H5136645   5.124   4.369   7.008 -1.4325  0.2069 -0.7251
  108MOL    H5236646   5.199   4.388   7.162  0.8287 -0.8987 -2.1796
  108MOL    C5336647   5.017   4.487   7.142 -0.3660  0.6814 -0.5339
  108MOL    C5436648   4.947   4.585   7.053  0.5092  0.7092  0.3028
  108MOL    C5536649   4.890   4.530   6.934 -0.1616 -0.1155  1.0782
  108MOL    C5636650   4.798   4.608   6.864  0.3746 -0.2955  0.0016
  108MOL    C5736651   4.773   4.743   6.908 -0.0409  0.5911  0.5872
  108MOL    O5836652   4.690   4.819   6.831  0.0594 -0.3236  0.6904
  108MOL    C5936653   4.834   4.795   7.028  0.9221  0.2599 -0.1517
  108MOL    C6036654   4.915   4.712   7.103  0.2980 -0.9345 -0.1803
  108MOL    C6136655   4.925   4.367   7.182 -0.4420 -0.0208  0.3610
  108MOL    H6236656   5.050   4.547   7.227  2.8214 -1.4993 -0.1255
  108MOL    H6336657   4.916   4.430   6.905  1.6819  1.4299 -2.9839
  108MOL    H6436658   4.753   4.566   6.776  2.2268  0.2220 -1.2071
  108MOL    H6536659   4.679   4.782   6.745  2.3291  2.5236 -0.9363
  108MOL    H6636660   4.799   4.890   7.065 -0.4297  0.0264 -0.8237
  108MOL    H6736661   4.963   4.752   7.190 -0.6793  1.6412 -0.7986
  108MOL    H6836662   4.944   4.292   7.105 -2.1337  2.3990 -2.4863
  108MOL    H6936663   4.821   4.397   7.195 -0.7688 -0.9002 -0.1459
  108MOL    C7036664   4.949   4.305   7.324  0.0127 -0.4281 -0.1406
  108MOL    C7136665   5.095   4.285   7.362 -0.1638  0.2207 -0.2795
  108MOL    C7236666   5.164   4.172   7.314  0.5622  0.1166  0.5623
  108MOL    C7336667   5.300   4.159   7.340 -0.3123 -0.0966 -0.1616
  108MOL    C7436668   5.363   4.252   7.426  0.1342 -0.3201  0.1634
  108MOL    O7536669   5.492   4.246   7.456  0.0616 -0.5713 -0.2049
  108MOL    C7636670   5.288   4.343   7.498  0.3720 -0.2466  0.0200
  108MOL    C7736671   5.162   4.375   7.450  0.3362 -0.4258 -0.3720
  108MOL    C7836672   4.849   4.194   7.359  0.5758  0.3299  0.7800
  108MOL    H7936673   4.909   4.387   7.384  0.2912 -1.5671  1.6382
  108MOL    H8036674   5.113   4.103   7.248  1.0306 -0.1392  0.4603
  108MOL    H8136675   5.369   4.085   7.301 -0.2749 -0.6152  0.8426
  108MOL    H8236676   5.542   4.182   7.408  1.4268  1.3051 -1.3385
  108MOL    H8336677   5.340   4.411   7.565  2.0205  0.2153 -1.6871
  108MOL    H8436678   5.104   4.456   7.490  0.8173 -0.5087  0.5029
  108MOL    H8536679   4.890   4.107   7.307  2.0199  1.7006 -0.4828
  108MOL    H8636680   4.750   4.213   7.318  1.0365  0.6140 -0.2195
  108MOL    C8736681   4.856   4.151   7.504  0.3847 -0.4952  0.8142
  108MOL    C8836682   4.811   4.006   7.526 -0.1121  0.6175  0.0867
  108MOL    C8936683   4.695   3.950   7.470 -0.4987  0.0708 -0.5236
  108MOL    C9036684   4.656   3.815   7.496  0.4580  0.5292  0.4110
  108MOL    C9136685   4.734   3.731   7.577 -0.2926  0.0531 -0.2934
  108MOL    O9236686   4.703   3.599   7.588 -0.1169  0.4622  0.9014
  108MOL    C9336687   4.842   3.789   7.644  0.2269 -0.1841 -0.2652
  108MOL    C9436688   4.886   3.918   7.607  0.2251 -0.0304  0.0212
  108MOL    C9536689   4.763   4.250   7.584  0.8091  0.0960 -0.5190
  108MOL    H9636690   4.962   4.154   7.528  0.6032  1.2088 -0.2155
  108MOL    H9736691   4.624   4.009   7.414 -1.1738  1.6356  1.9147
  108MOL    H9836692   4.563   3.775   7.458 -0.1835  0.5270  1.9520
  108MOL    H9936693   4.741   3.565   7.667  0.2762  0.0836  0.5528
  108MOL   H10036694   4.903   3.730   7.711  2.0006  4.1647  2.1551
  108MOL   H10136695   4.960   3.964   7.671 -0.0593  1.8449 -0.9482
  108MOL   H10236696   4.691   4.295   7.516  2.1403  1.1216 -1.2779
  108MOL   H10336697   4.702   4.189   7.650  1.2023 -0.6076 -0.7959
  108MOL   C10436698   4.839   4.353   7.669  0.1351  0.6181 -0.2224
  108MOL   C10536699   4.930   4.307   7.779 -0.3440 -0.3658  0.3239
  108MOL   C10636700   4.901   4.193   7.853  0.7807  0.1843  0.0530
  108MOL   C10736701   4.987   4.147   7.956 -0.1192 -0.1476  0.0214
  108MOL   C10836702   5.104   4.214   7.982  0.5223  0.3151  0.0286
  108MOL   O10936703   5.186   4.166   0.042  0.3476  0.0101 -0.4774
  108MOL   C11036704   5.147   4.322   7.902 -0.2454  0.0121 -0.5039
  108MOL   C11136705   5.059   4.367   7.801  0.6274  0.1419  0.4642
  108MOL   C11236706   4.747   4.464   7.707 -0.9345  0.0446 -0.3344
  108MOL   H11336707   4.906   4.401   7.597  0.1714  0.4538 -0.2976
  108MOL   H11436708   4.803   4.148   7.841  0.1684  0.9529  1.8870
  108MOL   H11536709   4.955   4.071   8.027 -0.8036 -0.6917 -0.8541
  108MOL   H11636710   5.271   4.206   0.056 -0.2587  0.4274  2.2295
  108MOL   H11736711   5.243   4.370   7.915  0.1607 -0.6854 -0.8724
  108MOL   H11836712   5.086   4.453   7.741 -1.2769 -0.8342 -1.8756
  108MOL   H11936713   4.702   4.425   7.799  0.4735 -2.2778 -0.6169
  108MOL   H12036714   4.658   4.476   7.645 -0.9763 -0.2106 -0.3234
  108MOL   C12136715   4.808   4.601   7.754  0.6144 -0.1984  0.2554
  108MOL   C12236716   4.709   4.710   7.702 -0.0745  0.3229  0.6702
  108MOL   C12336717   4.577   4.708   7.747  0.5809  0.0642 -0.0041
  108MOL   C12436718   4.486   4.807   7.703 -0.7490 -0.2762  0.8886
  108MOL   C12536719   4.526   4.899   7.608  0.5113 -0.4003 -0.5109
  108MOL   O12636720   4.430   4.990   7.557 -0.1146  0.3879 -0.3826
  108MOL   C12736721   4.657   4.893   7.558 -0.0499  0.6393  0.1441
  108MOL   C12836722   4.751   4.795   7.599 -0.3413 -0.3019  0.1348
  108MOL   C12936723   4.831   4.611   7.911 -0.2456 -0.4614  0.6248
  108MOL   H13036724   4.906   4.613   7.707  0.1709 -0.6391 -0.7769
  108MOL   H13136725   4.549   4.632   7.818  1.3664  0.0959  0.3423
  108MOL   H13236726   4.386   4.814   7.743 -0.7168  1.6266  0.7054
  108MOL   H13336727   4.447   5.082   7.549  1.3243  0.3635  1.9143
  108MOL   H13436728   4.684   4.953   7.472  1.2808 -1.0790 -0.6816
  108MOL   H13536729   4.850   4.786   7.555  0.3875 -1.1892  1.9007
  108MOL   H13636730   4.890   4.527   7.945 -1.8721 -2.2977 -0.9531
  108MOL   H13736731   4.731   4.598   7.953 -0.0904  0.6886  1.3820
  108MOL   C13836732   4.904   4.742   7.952 -0.5502 -0.4272  0.0346
  108MOL   C13936733   5.047   4.753   7.895  0.5075 -0.4838 -0.4775
  108MOL   C14036734   5.078   4.853   7.800  0.0933  0.2471  0.5501
  108MOL   C14136735   5.210   4.853   7.745  0.2498  0.1538 -0.0086
  108MOL   C14236736   5.301   4.750   7.778 -0.4489  0.1942  0.4875
  108MOL   O14336737   5.422   4.743   7.721  0.2254 -0.2835  0.1115
  108MOL   C14436738   5.267   4.642   7.863 -0.3646 -0.2507  0.2656
  108MOL   C14536739   5.142   4.655   7.931  0.1018 -0.1145 -0.1982
  108MOL   C14636740   4.898   4.762   0.069 -0.5224 -0.0367 -0.3595
  108MOL   H14736741   4.859   4.832   7.912 -2.1488 -1.1170  0.2264
  108MOL   H14836742   5.002   4.920   7.763  1.3374  0.7525 -1.0835
  108MOL   H14936743   5.237   4.931   7.676 -2.3385  0.2152 -1.0363
  108MOL   H15036744   5.454   4.824   7.686  0.7953 -0.1584  0.8990
  108MOL   H15136745   5.335   4.564   7.893 -0.3524 -0.2866  0.1428
  108MOL   H15236746   5.114   4.588   8.012  0.2955 -1.9535 -1.6136
  108MOL   H15336747   4.958   4.851   0.093  0.3649 -0.7483  0.0992
  108MOL   H15436748   4.943   4.679   0.124  0.8549  1.0644  0.2112
  108MOL   C15536749   4.760   4.792   0.128 -0.2423  0.5027 -0.2516
  108MOL   C15636750   4.695   4.920   0.076  0.4222  0.1222  0.2089
  108MOL   C15736751   4.592   4.916   8.018  0.2850  0.3380  0.9994
  108MOL   C15836752   4.542   5.034   7.961  0.7720  0.2531 -0.0704
  108MOL   C15936753   4.582   5.158   8.018  0.0966  0.0543  0.2757
  108MOL   O16036754   4.526   5.271   7.977 -0.0321 -0.3510  0.1892
  108MOL   C16136755   4.686   5.163   0.073  0.0260  0.4348 -0.1986
  108MOL   C16236756   4.735   5.043   0.128 -0.2936 -0.0304  0.4571
  108MOL   C16336757   4.759   4.784   0.286 -0.0447  0.3866 -0.2105
  108MOL   H16436758   4.704   4.703   0.101 -2.9296  2.1764 -0.3295
  108MOL   H16536759   4.562   4.821   7.978  2.7778  0.4987 -1.3948
  108MOL   H16636760   4.455   5.019   7.899 -0.1984  1.2850  0.9923
  108MOL   H16736761   4.449   5.295   8.026  0.2146  2.5616 -0.7724
  108MOL   H16836762   4.722   5.261   0.102  1.3884 -0.5296  1.4271
  108MOL   H16936763   4.821   5.037   0.193 -0.4432 -0.1035  0.6518
  108MOL   H17036764   4.710   4.875   0.318  1.1832  0.7958  0.5518
  108MOL   H17136765   4.862   4.789   0.322 -0.5678  0.0156  1.3461
  108MOL   C17236766   4.695   4.657   0.349 -0.0664  0.1277 -0.8521
  108MOL   C17336767   4.789   4.544   0.331 -0.7194 -0.0123 -0.3647
  108MOL   C17436768   4.891   4.524   0.431  0.6228 -0.8528 -0.7882
  108MOL   C17536769   4.986   4.422   0.409 -0.3140 -0.2095  0.2735
  108MOL   C17636770   4.977   4.339   0.299 -0.2767  0.0811 -1.0239
  108MOL   O17736771   5.053   4.228   0.284  0.0141  0.3889 -0.2149
  108MOL   C17836772   4.872   4.354   0.210  0.0421  0.3535  1.0395
  108MOL   C17936773   4.783   4.458   0.219  0.1584 -0.2437 -0.1530
  108MOL   C18036774   4.541   4.637   0.315 -0.2887  0.4067 -0.3159
  108MOL   H18136775   4.696   4.669   0.458 -1.3932 -2.9260 -0.4422
  108MOL   H18236776   4.905   4.592   0.514 -1.0026 -0.3724 -0.8919
  108MOL   H18336777   5.067   4.410   0.481 -0.5490  0.8511  0.7330
  108MOL   H18436778   5.066   4.202   0.194  2.0213 -0.6935  0.3682
  108MOL   H18536779   4.863   4.289   0.124  3.0080  1.5438 -0.2723
  108MOL   H18636780   4.705   4.475   0.146  1.7183 -0.6406 -1.9622
  108MOL   H18736781   4.490   4.562   0.375 -1.0620  2.5168  1.7116
  108MOL   H18836782   4.539   4.608   0.210 -0.2188 -1.4134  0.1702
  108MOL   C18936783   4.449   4.759   0.329  0.1432  0.3723 -0.0336
  108MOL   C19036784   4.325   4.727   0.248 -0.0989 -0.1186 -0.3401
  108MOL   C19136785   4.296   4.788   0.125 -0.2243 -0.4148 -0.4059
  108MOL   C19236786   4.187   4.742   0.051 -0.8454 -0.6975  0.0343
  108MOL   C19336787   4.112   4.633   0.090  0.8393  0.0157 -0.9912
  108MOL   O19436788   4.019   4.591   0.006 -0.3684 -0.2291 -0.2895
  108MOL   C19536789   4.125   4.584   0.223  0.3871 -0.7022 -0.0419
  108MOL   C19636790   4.229   4.636   0.297  0.4869 -0.0938 -0.2223
  108MOL   C19736791   4.426   4.821   0.468  0.0303 -0.1916 -0.3223
  108MOL   H19836792   4.506   4.838   0.281  2.1040 -1.1395 -0.2916
  108MOL   H19936793   4.358   4.872   0.099  1.2822 -1.7011 -1.0021
  108MOL   H20036794   4.186   4.763   7.983 -0.2507  0.3033  0.2279
  108MOL   H20136795   3.954   4.536   0.047 -1.0390 -1.3071 -2.6827
  108MOL   H20236796   4.054   4.523   0.277  0.2273  0.8368  1.5246
  108MOL   H20336797   4.241   4.601   0.398 -0.7762 -0.2887 -0.1395
  108MOL   H20436798   4.506   4.810   0.541 -0.7477 -0.7803  0.4498
  108MOL   H20536799   4.353   4.755   0.515 -1.5136  2.4045  1.0235
  108MOL   C20636800   4.374   4.967   0.476 -0.0884 -0.0358 -0.0513
  108MOL   C20736801   4.484   5.066   0.451  0.3445 -0.0319  0.0856
  108MOL   C20836802   4.456   5.179   0.370  0.1098 -0.9587  0.4177
  108MOL   C20936803   4.552   5.283   0.345  0.5642 -0.4868 -0.0611
  108MOL   C21036804   4.680   5.268   0.409  0.1145  0.5613 -0.2964
  108MOL   O21136805   4.780   5.360   0.385  0.4333  1.0118 -0.1988
  108MOL   C21236806   4.706   5.162   0.495 -0.4598 -1.0287 -0.7830
  108MOL   C21336807   4.618   5.052   0.506  0.8820  1.1160  0.3408
  108MOL   C21436808   4.292   5.002   0.611  0.5613  0.3669  0.0282
  108MOL   H21536809   4.310   4.980   0.389  1.6828 -1.4209 -1.5930
  108MOL   H21636810   4.357   5.193   0.330  0.0233  0.7331  1.1993
  108MOL   H21736811   4.535   5.366   0.279  1.5775 -0.1332  0.1007
  108MOL   H21836812   4.755   5.441   0.342 -1.9816  0.1744 -0.4294
  108MOL   H21936813   4.803   5.159   0.544 -1.3745 -0.3486  1.1168
  108MOL   H22036814   4.643   4.979   0.582 -0.2630  0.0514 -0.2644
  108MOL   H22136815   4.311   5.108   0.630  1.0599  0.0363  1.4554
  108MOL   H22236816   4.332   4.962   0.705 -0.2598  0.0741  0.2511
  108MOL   C22336817   4.142   4.981   0.586  0.0604  0.0287 -0.0256
  108MOL   C22436818   4.072   5.095   0.520 -0.0767  1.0228  0.4140
  108MOL   C22536819   4.018   5.081   0.393  0.8530  1.0598  0.2445
  108MOL   C22636820   3.955   5.187   0.326  0.5577  0.7548 -0.7160
  108MOL   C22736821   3.927   5.303   0.396  0.0592 -0.4340 -0.3733
  108MOL   O22836822   3.865   5.399   0.322 -0.0730 -0.1422 -0.6220
  108MOL   C22936823   3.978   5.324   0.527  0.0410  0.2929 -0.1268
  108MOL   C23036824   4.057   5.222   0.583  0.1626  0.6888 -0.8483
  108MOL   C23136825   4.072   4.952   0.723 -0.2789  0.1823  1.0378
  108MOL   H23236826   4.132   4.889   0.528  0.8222  0.5886 -1.0674
  108MOL   H23336827   4.022   4.989   0.335 -0.1783  1.2612 -0.1676
  108MOL   H23436828   3.941   5.179   0.220  1.0274  0.1904 -0.7390
  108MOL   H23536829   3.868   5.487   0.357 -1.2735 -0.6264  0.7302
  108MOL   H23636830   3.972   5.416   0.583 -3.1508  0.2042 -0.2030
  108MOL   H23736831   4.111   5.241   0.674 -0.7044  0.0517 -0.1894
  108MOL   H23836832   4.134   4.878   0.772  0.1889 -0.9809 -1.2637
  108MOL   H23936833   4.084   5.044   0.780  0.0366  2.1669 -2.1126
  108MOL   C24036834   3.927   4.905   0.721 -0.5171  0.0144  0.5475
  108MOL   C24136835   3.914   4.763   0.660  0.3964 -0.2414 -0.3289
  108MOL   C24236836   3.841   4.742   0.544 -0.2322 -0.1667  0.2422
  108MOL   C24336837   3.828   4.620   0.479  0.4648 -0.6209  0.1562
  108MOL   C24436838   3.896   4.508   0.537 -0.2058  0.4613  0.3178
  108MOL   O24536839   3.886   4.383   0.479  0.0880 -0.3746 -0.0039
  108MOL   C24636840   3.981   4.527   0.645  0.3506 -0.0484 -1.0460
  108MOL   C24736841   3.978   4.653   0.715  0.5749  0.7556 -0.7328
  108MOL   C24836842   3.864   4.911   0.863 -0.2571 -0.4876  0.0447
  108MOL   H24936843   3.885   4.978   0.652 -1.9715 -0.7999  0.5617
  108MOL   H25036844   3.794   4.829   0.500  0.4986 -0.0553 -0.3243
  108MOL   H25136845   3.764   4.603   0.394  0.3907  0.1309  0.0646
  108MOL   H25236846   3.937   4.325   0.534  2.1380  1.2081 -0.1761
  108MOL   H25336847   4.039   4.452   0.696 -0.6610  1.4476  2.4748
  108MOL   H25436848   4.035   4.664   0.806  0.4368  2.2711 -0.8285
  108MOL   H25536849   3.799   4.826   0.884  0.9646 -1.0929  1.4429
  108MOL   H25636850   3.942   4.889   0.936  1.9354 -0.0123 -2.0902
  108MOL   C25736851   3.794   5.035   0.888 -0.5253 -0.3885 -0.2324
  108MOL   C25836852   3.662   5.050   0.814  0.1843 -0.1438 -0.2663
  108MOL   C25936853   3.546   4.978   0.855  0.0387 -0.0233  0.6548
  108MOL   C26036854   3.443   4.961   0.763  0.3594  0.1734 -0.4221
  108MOL   C26136855   3.448   5.025   0.639  0.2332 -0.2969 -0.7385
  108MOL   O26236856   3.345   4.991   0.549  0.0677 -0.3571  0.4191
  108MOL   C26336857   3.553   5.110   0.607 -0.4400 -0.0053 -0.5655
  108MOL   C26436858   3.658   5.123   0.692 -0.2091 -0.6118  0.3272
  108MOL   C26536859   3.777   5.069   1.034 -0.5603  1.2847  0.0044
  108MOL   H26636860   3.854   5.114   0.844 -0.4345 -0.4727 -0.2595
  108MOL   H26736861   3.539   4.916   0.943 -2.2434 -1.1789 -0.3088
  108MOL   H26836862   3.358   4.898   0.783  1.2608 -1.2917 -1.1326
  108MOL   H26936863   3.386   4.965   0.468  0.0066  0.9581 -0.0587
  108MOL   H27036864   3.556   5.157   0.510  2.3982 -0.9101 -0.9615
  108MOL   H27136865   3.742   5.187   0.667  1.5682 -2.6563  0.9329
  108MOL   H27236866   3.878   5.067   1.075 -0.7010  0.6203  0.3116
  108MOL   H27336867   3.730   4.990   1.091  2.4931 -0.9951 -0.5337
  108MOL   C27436868   3.712   5.205   1.059  0.0088  0.4616 -0.0583
  108MOL   C27536869   3.799   5.319   1.001  1.0960 -0.0526 -0.3621
  108MOL   C27636870   3.760   5.377   0.881 -0.5587  0.2214 -1.1084
  108MOL   C27736871   3.826   5.494   0.831 -0.8193  0.3621 -0.8014
  108MOL   C27836872   3.942   5.549   0.901  0.3024  0.1816 -0.1013
  108MOL   O27936873   4.005   5.667   0.865 -0.0122 -0.1079  0.5045
  108MOL   C28036874   3.984   5.475   1.016  0.4451  0.1677  0.0299
  108MOL   C28136875   3.918   5.361   1.064  0.0020 -0.2349 -0.2551
  108MOL   C28236876   3.675   5.225   1.213  0.4186 -0.6341 -0.4672
  108MOL   H28336877   3.615   5.204   1.010 -0.0055  3.0902 -0.1730
  108MOL   H28436878   3.675   5.343   0.824 -0.5272 -1.1284 -0.3766
  108MOL   H28536879   3.792   5.550   0.745 -0.5321  1.8791  0.0658
  108MOL   H28636880   3.975   5.679   0.777  2.4103 -1.5165 -0.5839
  108MOL   H28736881   4.067   5.513   1.074  0.1292  2.6705 -1.0873
  108MOL   H28836882   3.945   5.328   1.164 -1.8120 -0.7324  0.0909
  108MOL   H28936883   3.611   5.147   1.254  1.4015 -0.9719  0.4777
  108MOL   H29036884   3.764   5.189   1.266  0.4682  0.2505  0.0590
  108MOL   C29136885   3.645   5.365   1.267 -0.0051  0.1969 -0.1756
  108MOL   C29236886   3.703   5.372   1.410 -0.5319  0.5003  0.3769
  108MOL   C29336887   3.805   5.464   1.445  0.1116 -0.4738  0.3977
  108MOL   C29436888   3.857   5.480   1.574  0.7734 -0.7037 -0.4063
  108MOL   C29536889   3.818   5.381   1.672 -0.4396 -0.2779  0.4114
  108MOL   O29636890   3.854   5.400   1.805  0.0529 -0.1102  0.1509
  108MOL   C29736891   3.727   5.273   1.638 -0.4205  0.0533 -0.7068
  108MOL   C29836892   3.666   5.278   1.514 -0.3801 -0.0077  0.7244
  108MOL   C29936893   3.505   5.420   1.250  0.1449  0.2550  0.5450
  108MOL   H30036894   3.706   5.443   1.223  2.5150 -1.3745  0.4210
  108MOL   H30136895   3.831   5.537   1.369  1.9460 -1.9535 -0.4211
  108MOL   H30236896   3.925   5.556   1.609  0.5562 -0.0726 -1.3355
  108MOL   H30336897   3.877   5.488   1.832 -2.1641  1.0422 -1.4897
  108MOL   H30436898   3.707   5.196   1.710 -0.4309  0.6334 -0.0842
  108MOL   H30536899   3.605   5.193   1.490  1.8345 -1.3811 -0.2277
  108MOL   H30636900   3.494   5.512   1.307  0.1865  0.0787  0.8381
  108MOL   H30736901   3.435   5.352   1.298  0.7942  0.5677  1.9526
  108MOL   C30836902   3.453   5.441   1.108 -0.3085  0.1835  0.3950
  108MOL   C30936903   3.409   5.585   1.082 -0.8274  0.0844  0.7481
  108MOL   C31036904   3.303   5.641   1.155 -0.6189 -0.0501 -0.4159
  108MOL   C31136905   3.246   5.762   1.114 -0.1659  0.1663  0.5089
  108MOL   C31236906   3.290   5.826   0.996  0.3533  0.4902  0.8982
  108MOL   O31336907   3.236   5.942   0.945 -0.1644  0.5452 -0.1650
  108MOL   C31436908   3.408   5.782   0.929 -0.2487  0.1997 -0.0160
  108MOL   C31536909   3.464   5.660   0.972  1.2747 -0.1087 -0.3803
  108MOL   C31636910   3.331   5.351   1.086  0.2734  0.6459  0.5299
  108MOL   H31736911   3.523   5.421   1.027 -1.0570  0.9925 -0.4595
  108MOL   H31836912   3.262   5.575   1.230 -0.4438 -1.2648 -1.3745
  108MOL   H31936913   3.157   5.799   1.162 -0.0306  1.0453  0.0989
  108MOL   H32036914   3.177   5.975   1.011 -1.0911 -0.3945 -0.5080
  108MOL   H32136915   3.454   5.847   0.856  0.3721 -0.5172 -0.2598
  108MOL   H32236916   3.550   5.617   0.923  2.0979  0.8145  0.2446
  108MOL   H32336917   3.253   5.368   1.161 -2.0873  1.1342 -1.9223
  108MOL   H32436918   3.360   5.247   1.097 -3.0657 -0.5929 -1.4342
  108MOL   C32536919   3.263   5.368   0.951 -0.6681 -0.1067 -0.5935
  108MOL   C32636920   3.144   5.275   0.939  0.7711  0.4923 -0.3270
  108MOL   C32736921   3.158   5.134   0.950  0.0307  0.5527  0.5249
  108MOL   C32836922   3.037   5.058   0.938  0.1912  0.2047 -0.3549
  108MOL   C32936923   2.912   5.123   0.917  0.3006  0.0689  0.1601
  108MOL   O33036924   2.807   5.042   0.894 -0.1383 -0.3059 -0.3692
  108MOL   C33136925   2.904   5.262   0.911 -0.2997  0.3941 -0.5596
  108MOL   C33236926   3.020   5.336   0.915  0.7792  0.1842  0.4015
  108MOL   C33336927   3.353   5.353   0.822 -0.1085 -0.2897 -0.2053
  108MOL   H33436928   3.226   5.471   0.942  0.7717  0.5092  0.3700
  108MOL   H33536929   3.254   5.091   0.975 -0.8543 -1.7853  0.0489
  108MOL   H33636930   3.018   4.952   0.950  1.2247 -0.0816 -1.1555
  108MOL   H33736931   2.748   5.093   0.841 -0.7529 -1.4496 -0.7870
  108MOL   H33836932   2.811   5.316   0.894  0.2924  2.0535  1.2860
  108MOL   H33936933   3.014   5.443   0.902  0.9123  0.2092  0.5427
  108MOL   H34036934   3.398   5.256   0.806 -0.8939 -1.0056  1.8191
  108MOL   H34136935   3.431   5.429   0.808 -1.3665  0.8540 -1.1939
  108MOL   H34236936   3.280   5.374   0.743  0.7999  0.9939 -0.7323
  109MOL     C136937   3.613   4.203   0.724  1.2156 -0.6913  0.0145
  109MOL     C236938   3.724   4.174   0.829  0.0523 -0.5363  0.5292
  109MOL     C336939   3.762   4.048   0.879  0.8439 -0.2985 -0.1256
  109MOL     C436940   3.872   4.030   0.964 -0.1063  0.5436 -0.0189
  109MOL     C536941   3.946   4.138   1.009 -0.1752  0.0753  0.0670
  109MOL     O636942   4.053   4.117   1.093  0.5442  0.3987 -0.2730
  109MOL     C736943   3.913   4.272   0.966  0.9945  0.4659  0.0619
  109MOL     C836944   3.807   4.286   0.876  0.0847  0.3196 -0.0592
  109MOL     C936945   3.500   4.292   0.787  0.3880  0.4120 -0.0411
  109MOL    H1036946   3.672   4.243   0.642  1.1308  1.3010  0.8876
  109MOL    H1136947   3.716   3.956   0.846 -2.0350  0.3087  2.0591
  109MOL    H1236948   3.891   3.933   1.007  2.1496  1.3161  0.8320
  109MOL    H1336949   4.044   4.038   1.144 -0.5404  0.5067 -0.2696
  109MOL    H1436950   3.968   4.362   0.991  0.5049  0.5315  0.9053
  109MOL    H1536951   3.787   4.387   0.844  1.9419  1.5907  2.6593
  109MOL    H1636952   3.555   4.381   0.819  2.5956 -2.0868  3.4334
  109MOL    H1736953   3.461   4.241   0.874 -0.5012  1.3030  0.0927
  109MOL    H1836954   3.566   4.111   0.690 -0.5959 -0.0214  0.6585
  109MOL    C1936955   3.390   4.329   0.681 -0.0910  0.1454 -0.0742
  109MOL    C2036956   3.440   4.418   0.574 -0.1406 -0.8063 -0.1079
  109MOL    C2136957   3.479   4.549   0.611 -0.1953  0.0897  0.2170
  109MOL    C2236958   3.505   4.648   0.513  0.0430 -0.4256  0.0895
  109MOL    C2336959   3.501   4.612   0.377  0.1314  0.5439  0.4719
  109MOL    O2436960   3.526   4.707   0.281  0.7121  0.5648 -0.0401
  109MOL    C2536961   3.471   4.477   0.339  0.3269 -0.4064  0.1930
  109MOL    C2636962   3.442   4.382   0.439 -0.1001  0.0939  0.0142
  109MOL    C2736963   3.269   4.394   0.759 -0.7348  0.1090 -0.5339
  109MOL    H2836964   3.354   4.236   0.637  0.4952 -0.1721  0.1214
  109MOL    H2936965   3.498   4.572   0.715 -0.1374 -1.7220  0.6267
  109MOL    H3036966   3.518   4.754   0.533 -1.7568 -0.0324 -0.6977
  109MOL    H3136967   3.467   4.781   0.277 -0.5009 -0.2225  2.5231
  109MOL    H3236968   3.462   4.442   0.238 -0.3422  0.8566 -0.1912
  109MOL    H3336969   3.406   4.282   0.421 -0.8325  0.4685 -0.6631
  109MOL    H3436970   3.306   4.489   0.796  0.1523  0.4389 -2.2248
  109MOL    H3536971   3.227   4.334   0.841 -0.0278  0.0148 -0.2367
  109MOL    C3636972   3.150   4.441   0.666  0.4122  0.6648  0.1195
  109MOL    C3736973   3.052   4.526   0.734  0.3528 -0.9685 -0.3177
  109MOL    C3836974   2.962   4.468   0.829 -0.0487  0.3520  0.2532
  109MOL    C3936975   2.869   4.548   0.899 -0.1968 -0.2953 -0.2147
  109MOL    C4036976   2.858   4.684   0.868  0.2326 -0.0057 -0.2315
  109MOL    O4136977   2.778   4.769   0.944  0.2201  0.4076 -0.0993
  109MOL    C4236978   2.935   4.739   0.767  0.6140  0.5495 -0.0284
  109MOL    C4336979   3.035   4.666   0.701  0.6279  0.3174 -0.5802
  109MOL    C4436980   3.088   4.333   0.574  0.1748  0.3502 -0.5425
  109MOL    H4536981   3.196   4.513   0.598 -0.2081  1.1312  0.1907
  109MOL    H4636982   2.963   4.366   0.862 -2.6492  0.6398  1.3754
  109MOL    H4736983   2.793   4.505   0.963 -2.3029  2.0888 -1.0058
  109MOL    H4836984   2.799   4.860   0.927 -0.6062  0.8036  0.9491
  109MOL    H4936985   2.935   4.842   0.736  2.5530  0.4836 -0.2992
  109MOL    H5036986   3.095   4.721   0.629 -0.9986  1.7558 -0.8675
  109MOL    H5136987   3.168   4.294   0.510  0.5755 -0.5103  0.4685
  109MOL    H5236988   3.056   4.256   0.643  1.6558 -0.2854 -0.5494
  109MOL    C5336989   2.958   4.365   0.490 -0.9059 -0.7527 -0.0869
  109MOL    C5436990   2.974   4.486   0.405 -0.1553  0.1088  0.1335
  109MOL    C5536991   2.896   4.601   0.422  0.1880 -0.8901 -0.4912
  109MOL    C5636992   2.935   4.720   0.354  0.2228  0.1657  0.5745
  109MOL    C5736993   3.053   4.724   0.286 -0.6529  0.1525  0.7249
  109MOL    O5836994   3.098   4.851   0.244  0.5840 -0.3063 -0.1496
  109MOL    C5936995   3.123   4.609   0.258 -0.2204 -0.2016 -0.2983
  109MOL    C6036996   3.073   4.488   0.307 -0.5786 -0.0688 -0.1070
  109MOL    C6136997   2.914   4.234   0.420  0.3079 -0.7512 -0.2150
  109MOL    H6236998   2.875   4.378   0.560 -2.2781 -2.4106 -1.3439
  109MOL    H6336999   2.811   4.597   0.489  0.7010  2.4985  0.4752
  109MOL    H6437000   2.876   4.810   0.345 -1.1074 -0.7429  0.1533
  109MOL    H6537001   3.052   4.922   0.285 -0.2315 -0.2929 -1.0605
  109MOL    H6637002   3.209   4.621   0.193  0.1986  1.7624  0.5744
  109MOL    H6737003   3.132   4.401   0.282 -1.7587 -1.1091  0.6889
  109MOL    H6837004   2.936   4.140   0.472  0.3814  0.0717  1.2767
  109MOL    H6937005   2.968   4.228   0.326  1.2897  2.9443  0.0359
  109MOL    C7037006   2.767   4.220   0.379 -0.2266 -0.4458  0.3921
  109MOL    C7137007   2.664   4.237   0.491  0.0649  0.0387 -0.6675
  109MOL    C7237008   2.678   4.165   0.607 -0.4162 -0.2030 -0.0643
  109MOL    C7337009   2.592   4.186   0.718  0.0087 -0.5418 -0.5706
  109MOL    C7437010   2.488   4.284   0.712  0.2704 -0.0049  0.4535
  109MOL    O7537011   2.403   4.303   0.814 -0.0928 -0.6761 -0.2598
  109MOL    C7637012   2.465   4.349   0.590 -0.1443 -0.2165  0.3050
  109MOL    C7737013   2.551   4.327   0.481  0.2013  0.3609  0.3487
  109MOL    C7837014   2.743   4.097   0.290  0.1741  0.2488  0.1819
  109MOL    H7937015   2.734   4.301   0.314 -0.5184 -1.2863 -0.5068
  109MOL    H8037016   2.764   4.103   0.626 -0.8743 -0.6332  0.6147
  109MOL    H8137017   2.614   4.133   0.809 -0.1233 -0.9663 -0.7842
  109MOL    H8237018   2.329   4.357   0.789  1.7339  1.2737 -1.5990
  109MOL    H8337019   2.376   4.409   0.578  0.0006  0.0573  0.5795
  109MOL    H8437020   2.520   4.385   0.395  0.4615  0.2549  0.1807
  109MOL    H8537021   2.761   4.009   0.353 -0.9684 -0.8922 -1.0371
  109MOL    H8637022   2.817   4.082   0.212  0.4960 -0.3041  0.5865
  109MOL    C8737023   2.599   4.071   0.247  0.7521 -0.2251  0.7707
  109MOL    C8837024   2.577   3.926   0.216 -0.0405  0.3433  0.0787
  109MOL    C8937025   2.657   3.865   0.117 -0.3019  0.3217 -0.7098
  109MOL    C9037026   2.643   3.730   0.086  0.5469 -0.1142 -0.1290
  109MOL    C9137027   2.554   3.652   0.152 -0.4327  0.0462 -0.0875
  109MOL    O9237028   2.531   3.523   0.115  0.7276  0.8022  0.3444
  109MOL    C9337029   2.473   3.709   0.255 -0.3540 -0.2856 -0.3674
  109MOL    C9437030   2.488   3.845   0.285  0.7325 -0.1988 -0.5015
  109MOL    C9537031   2.554   4.173   0.136 -0.5526  0.0626  0.1475
  109MOL    H9637032   2.536   4.100   0.331 -1.2418 -1.3494 -0.3067
  109MOL    H9737033   2.731   3.923   0.064  1.6720  0.1520  1.7401
  109MOL    H9837034   2.711   3.698   0.009  2.6297  1.1968  1.1095
  109MOL    H9937035   2.458   3.481   0.158 -0.1277 -0.3589 -2.1870
  109MOL   H10037036   2.395   3.648   0.298  0.0094 -0.1085  0.5613
  109MOL   H10137037   2.443   3.888   0.374  1.2717 -0.2469 -0.2076
  109MOL   H10237038   2.570   4.279   0.156 -1.9890  0.2207  0.5376
  109MOL   H10337039   2.618   4.160   0.049  0.2757  1.1238  0.5941
  109MOL   C10437040   2.411   4.161   0.086  0.5698  0.4329  0.0228
  109MOL   C10537041   2.384   4.265   8.012 -0.1196  0.0866  0.5341
  109MOL   C10637042   2.364   4.405   8.034 -0.7818  0.0954 -0.0478
  109MOL   C10737043   2.357   4.498   7.928 -0.1321  0.4868 -0.0511
  109MOL   C10837044   2.367   4.456   7.795  0.5744  0.0226  0.0157
  109MOL   O10937045   2.359   4.542   7.695 -0.1635 -0.6774 -0.4066
  109MOL   C11037046   2.377   4.317   7.770 -0.2813  0.1314  0.3270
  109MOL   C11137047   2.387   4.223   7.874  0.3605  1.0653 -0.0161
  109MOL   C11237048   2.306   4.177   0.196 -0.1070 -0.0762 -0.2478
  109MOL   H11337049   2.404   4.061   0.041  1.4616  0.2846  0.2000
  109MOL   H11437050   2.367   4.445   0.096 -0.6126 -3.3118  1.3773
  109MOL   H11537051   2.352   4.604   7.949  0.3808  0.7149 -1.0703
  109MOL   H11637052   2.329   4.498   7.617  0.9105 -0.8500 -0.7445
  109MOL   H11737053   2.392   4.270   7.673  0.4520 -0.8544  0.9119
  109MOL   H11837054   2.389   4.119   7.846 -0.5660  1.3128 -1.0418
  109MOL   H11937055   2.325   4.282   0.220  1.6127  0.1183 -2.3346
  109MOL   H12037056   2.327   4.108   0.278  1.1706  1.5624  0.8449
  109MOL   C12137057   2.162   4.158   0.149  0.0670  0.4025  0.0040
  109MOL   C12237058   2.133   4.011   0.138  0.3026  0.3049 -0.2374
  109MOL   C12337059   2.139   3.925   0.254 -0.2628 -0.1785 -0.2999
  109MOL   C12437060   2.140   3.783   0.242 -0.8388  0.4508  0.0363
  109MOL   C12537061   2.133   3.723   0.116 -0.0554 -0.5815  0.0491
  109MOL   O12637062   2.138   3.586   0.100  0.0096  0.0628  0.4837
  109MOL   C12737063   2.122   3.811   8.037 -0.2193  0.3734  0.3162
  109MOL   C12837064   2.114   3.950   0.015 -0.1132  0.5798 -0.0817
  109MOL   C12937065   2.053   4.213   0.244  0.3538  0.0160  0.6791
  109MOL   H13037066   2.144   4.199   0.050 -0.1709 -1.0381 -0.5577
  109MOL   H13137067   2.153   3.971   0.350  1.6978  0.7637 -1.0159
  109MOL   H13237068   2.160   3.723   0.329  1.2715 -0.5876 -1.1249
  109MOL   H13337069   2.143   3.560   0.009  2.6334 -1.8856  1.1148
  109MOL   H13437070   2.109   3.772   7.937 -0.0132  0.7213  0.1503
  109MOL   H13537071   2.096   4.013   7.967  1.2086  0.5406 -0.3982
  109MOL   H13637072   2.088   4.302   0.296  1.8390  0.0441 -0.3473
  109MOL   H13737073   2.038   4.150   0.331 -1.0897  2.6502  2.4009
  109MOL   C13837074   1.919   4.240   0.173 -0.2207  0.2963 -0.5161
  109MOL   C13937075   1.914   4.387   0.129  0.3477 -0.2307 -0.2636
  109MOL   C14037076   1.933   4.422   8.031 -0.2325 -0.2473 -0.2989
  109MOL   C14137077   1.950   4.562   8.000 -0.4571 -0.8701  0.0181
  109MOL   C14237078   1.926   4.657   0.062 -0.1744  0.0570 -0.3149
  109MOL   O14337079   1.932   4.796   0.040 -0.6827 -0.1985 -0.0451
  109MOL   C14437080   1.888   4.620   0.195 -0.6508  0.1457 -0.1345
  109MOL   C14537081   1.883   4.483   0.228 -0.1161 -0.0346 -0.1204
  109MOL   C14637082   1.810   4.195   0.270  0.2866 -0.2160  0.3184
  109MOL   H14737083   1.923   4.188   0.077  2.0265  1.5083 -1.1303
  109MOL   H14837084   1.956   4.345   7.960 -0.8550 -0.1386 -0.6226
  109MOL   H14937085   1.983   4.588   7.900 -0.4588  1.6651  0.6504
  109MOL   H15037086   1.933   4.810   7.984 -1.1202  0.5318  0.0559
  109MOL   H15137087   1.877   4.701   0.266  2.0409 -0.8311  1.4812
  109MOL   H15237088   1.861   4.462   0.332 -2.4598 -1.2882 -0.8335
  109MOL   H15337089   1.724   4.260   0.253  1.1312  0.5814 -1.0337
  109MOL   H15437090   1.847   4.213   0.371  0.4317  1.9702 -0.1080
  109MOL   C15537091   1.762   4.047   0.265 -0.0610  0.1652  0.1328
  109MOL   C15637092   1.731   4.009   0.126 -0.1401  0.3312 -0.3284
  109MOL   C15737093   1.752   3.875   0.087  0.3431  0.3962  0.1473
  109MOL   C15837094   1.735   3.841   7.988 -0.5693  0.7837 -0.6958
  109MOL   C15937095   1.662   3.923   7.899  0.0069 -0.3289 -0.5007
  109MOL   O16037096   1.633   3.882   7.774  0.7401  0.6588  0.2079
  109MOL   C16137097   1.638   4.055   7.939  0.0485 -0.2346  0.2230
  109MOL   C16237098   1.680   4.103   0.030  0.2880  0.3838 -0.6182
  109MOL   C16337099   1.639   4.018   0.357 -0.0513  0.4270  0.3099
  109MOL   H16437100   1.839   3.980   0.303  0.4088  0.2511 -0.6578
  109MOL   H16537101   1.797   3.818   0.167  1.0026  0.8139  0.0832
  109MOL   H16637102   1.751   3.739   7.955  3.3904  1.1822 -0.3204
  109MOL   H16737103   1.620   3.952   7.712  1.3310  1.5781  1.1177
  109MOL   H16837104   1.584   4.116   7.869  1.0070  0.9663  0.5085
  109MOL   H16937105   1.653   4.204   0.059  1.2199  0.2071  0.9175
  109MOL   H17037106   1.595   3.922   0.331  0.2723  0.1200  0.9031
  109MOL   H17137107   1.555   4.082   0.328 -0.6367  0.1422  1.3641
  109MOL   C17237108   1.661   4.020   0.517 -0.1911 -0.2698  0.1830
  109MOL   C17337109   1.787   3.942   0.559 -0.6074  0.0427 -0.0905
  109MOL   C17437110   1.803   3.807   0.512  0.2302 -0.4880 -0.2158
  109MOL   C17537111   1.920   3.736   0.541  0.1934 -0.2252  0.0700
  109MOL   C17637112   2.019   3.796   0.622 -0.1231  0.0176 -0.0315
  109MOL   O17737113   2.133   3.727   0.666 -0.0756 -0.0604 -0.4380
  109MOL   C17837114   2.011   3.931   0.661  0.0119 -0.2927  0.1794
  109MOL   C17937115   1.894   4.004   0.629 -0.1272 -0.3761 -0.5885
  109MOL   C18037116   1.536   3.970   0.594  0.5517 -0.0027 -0.0200
  109MOL   H18137117   1.678   4.127   0.531  0.0391 -0.3091  0.2024
  109MOL   H18237118   1.727   3.770   0.445  0.9007 -0.3358 -1.0630
  109MOL   H18337119   1.936   3.631   0.523  0.3685 -0.3535  0.9874
  109MOL   H18437120   2.185   3.776   0.727 -2.4376  0.2849  1.3524
  109MOL   H18537121   2.082   3.980   0.724  2.1517 -1.5297 -1.2033
  109MOL   H18637122   1.884   4.105   0.667  3.6484 -0.5342  0.9771
  109MOL   H18737123   1.522   3.862   0.588 -1.8449  0.1811  1.5085
  109MOL   H18837124   1.450   4.016   0.545  0.1013 -2.3670 -1.5717
  109MOL   C18937125   1.513   4.014   0.745  0.3391  0.2058 -0.1284
  109MOL   C19037126   1.361   4.027   0.773  0.1382 -0.4290 -0.0380
  109MOL   C19137127   1.312   4.143   0.838 -0.2911 -0.1358 -0.4182
  109MOL   C19237128   1.176   4.144   0.878  0.0773 -0.4075 -0.9171
  109MOL   C19337129   1.092   4.035   0.845 -0.2715 -0.6551  0.7255
  109MOL   O19437130   0.962   4.034   0.890  0.0031  0.0359 -0.4789
  109MOL   C19537131   1.136   3.921   0.772  0.3983  0.3580  0.3918
  109MOL   C19637132   1.271   3.919   0.739  0.0617  0.3974  0.6756
  109MOL   C19737133   1.588   3.921   0.852  0.5787 -0.4058  0.2700
  109MOL   H19837134   1.562   4.111   0.752 -1.5402  1.1783 -0.3773
  109MOL   H19937135   1.374   4.226   0.869  1.0123 -1.1948 -0.1046
  109MOL   H20037136   1.139   4.226   0.938  2.8898  1.5952 -1.8198
  109MOL   H20137137   0.936   4.099   0.954  0.7074  0.8395 -1.0039
  109MOL   H20237138   1.073   3.840   0.737  2.3127 -1.9120  2.0189
  109MOL   H20337139   1.296   3.835   0.676 -1.6485  1.0441 -0.9230
  109MOL   H20437140   1.690   3.902   0.819  0.8133  2.0403 -0.5449
  109MOL   H20537141   1.534   3.826   0.855 -0.2792  0.0271 -1.1500
  109MOL   C20637142   1.587   3.996   0.993 -0.9031 -0.6670 -0.2740
  109MOL   C20737143   1.680   4.120   1.003  0.1107  0.4244  0.3872
  109MOL   C20837144   1.631   4.247   1.027 -0.0751  0.8207 -0.0480
  109MOL   C20937145   1.726   4.357   1.023  0.4669  0.3942 -0.4397
  109MOL   C21037146   1.856   4.338   0.984 -0.1290 -0.0955 -0.2805
  109MOL   O21137147   1.934   4.445   0.970  0.3918 -0.3564  0.5299
  109MOL   C21237148   1.902   4.209   0.970  0.3561 -0.7019 -0.1420
  109MOL   C21337149   1.815   4.102   0.978  0.3671 -0.0291 -0.3373
  109MOL   C21437150   1.594   3.902   1.111 -0.3071  0.4518 -0.1866
  109MOL   H21537151   1.490   4.045   1.003 -1.5333 -2.1465  1.0527
  109MOL   H21637152   1.531   4.258   1.069 -0.2567 -2.4470  0.4976
  109MOL   H21737153   1.691   4.451   1.063  0.3940  0.7698 -1.3943
  109MOL   H21837154   1.884   4.518   1.002 -1.4762 -0.3289 -2.3003
  109MOL   H21937155   1.999   4.192   0.927  1.2577  1.9123  0.7711
  109MOL   H22037156   1.858   4.005   0.958 -1.8001 -1.0781 -0.0434
  109MOL   H22137157   1.672   3.928   1.183 -1.6457  1.6383  0.8467
  109MOL   H22237158   1.626   3.805   1.075 -0.3755 -0.0548  1.0823
  109MOL   C22337159   1.453   3.883   1.182  0.0983  0.0264  0.0830
  109MOL   C22437160   1.401   4.013   1.245 -0.0544 -0.1255  0.2346
  109MOL   C22537161   1.482   4.083   1.342 -0.0251  0.5405  0.0007
  109MOL   C22637162   1.442   4.209   1.389  0.5087  0.0187  0.6928
  109MOL   C22737163   1.326   4.266   1.338  0.3234 -0.1378  0.2459
  109MOL   O22837164   1.294   4.387   1.394 -0.0887 -0.0026  0.0483
  109MOL   C22937165   1.244   4.201   1.248  0.0790  0.0111 -0.2087
  109MOL   C23037166   1.275   4.069   1.205 -0.2929 -0.0907 -0.4696
  109MOL   C23137167   1.472   3.763   1.277 -0.4342  0.7178 -0.0118
  109MOL   H23237168   1.379   3.845   1.112 -0.6268 -1.3978  1.5961
  109MOL   H23337169   1.579   4.049   1.374 -0.3028 -1.8295 -1.5195
  109MOL   H23437170   1.498   4.270   1.458 -0.6677  1.4428  0.4195
  109MOL   H23537171   1.324   4.409   1.481 -2.7422  1.1497  0.7210
  109MOL   H23637172   1.155   4.255   1.218  1.1161  1.8226 -0.0975
  109MOL   H23737173   1.212   4.021   1.131  0.4227 -0.2568 -0.9741
  109MOL   H23837174   1.523   3.679   1.229  1.0594  1.8494 -0.4348
  109MOL   H23937175   1.536   3.786   1.362  0.6783 -0.9194 -0.3893
  109MOL   C24037176   1.341   3.710   1.342  0.3487 -0.0317  0.3813
  109MOL   C24137177   1.261   3.631   1.235  0.3213  0.0218 -0.4070
  109MOL   C24237178   1.148   3.684   1.166  0.2554 -0.4177 -0.0921
  109MOL   C24337179   1.087   3.608   1.063 -0.3083  1.0832  0.8274
  109MOL   C24437180   1.143   3.482   1.025 -0.8740 -1.0415  0.2323
  109MOL   O24537181   1.081   3.405   0.934  0.1868 -0.1696 -0.2334
  109MOL   C24637182   1.252   3.433   1.092 -0.9404 -0.0868 -0.4572
  109MOL   C24737183   1.313   3.508   1.196  0.1421 -0.0472 -0.0835
  109MOL   C24837184   1.357   3.619   1.465  0.1828  0.1674  0.1317
  109MOL   H24937185   1.279   3.793   1.376  0.0144  1.6016 -3.9096
  109MOL   H25037186   1.121   3.786   1.191  3.7646  0.1681  1.5996
  109MOL   H25137187   1.004   3.648   1.006  1.1452  1.6064 -0.9884
  109MOL   H25237188   1.138   3.340   0.895  1.3588  1.7871 -1.8953
  109MOL   H25337189   1.282   3.330   1.084  0.6196  0.2535  0.6523
  109MOL   H25437190   1.399   3.460   1.238  0.6820 -0.3426 -1.5061
  109MOL   H25537191   1.262   3.568   1.481  0.5573 -0.4706  0.3756
  109MOL   H25637192   1.432   3.541   1.449  0.4819  0.8085 -1.6589
  109MOL   C25737193   1.403   3.699   1.583  0.8363  0.3633  0.0905
  109MOL   C25837194   1.281   3.729   1.674  0.1867  0.0514 -0.2492
  109MOL   C25937195   1.225   3.635   1.762 -0.9142  0.4052  0.0663
  109MOL   C26037196   1.127   3.678   1.855 -1.2538 -0.5897 -0.6077
  109MOL   C26137197   1.090   3.814   1.862  0.4696 -0.5072 -0.8077
  109MOL   O26237198   0.994   3.850   1.955 -0.0535 -0.0359  0.0887
  109MOL   C26337199   1.147   3.908   1.768  0.6054  0.3610  0.5008
  109MOL   C26437200   1.247   3.864   1.679  0.0707  0.1588 -0.2202
  109MOL   C26537201   1.511   3.624   1.666 -0.2039 -0.3795 -0.1389
  109MOL   H26637202   1.442   3.796   1.553  0.3397  0.6281  0.2929
  109MOL   H26737203   1.256   3.532   1.764  1.1957  1.0130  0.0383
  109MOL   H26837204   1.097   3.608   1.932 -1.0647  0.7208  0.6689
  109MOL   H26937205   1.003   3.813   2.042 -1.1649  0.2792  0.3391
  109MOL   H27037206   1.108   4.009   1.773 -0.9023 -0.0965 -1.2367
  109MOL   H27137207   1.291   3.932   1.607  0.4145  0.0921 -0.0732
  109MOL   H27237208   1.599   3.635   1.603  0.5985  3.2975  1.4756
  109MOL   H27337209   1.491   3.517   1.674 -0.9962 -0.2268  0.0450
  109MOL   C27437210   1.542   3.693   1.808  0.2767 -0.1138 -0.2483
  109MOL   C27537211   1.543   3.843   1.806 -0.0675 -0.1517 -0.7545
  109MOL   C27637212   1.638   3.906   1.723  0.8477 -0.0266 -0.1875
  109MOL   C27737213   1.629   4.047   1.700 -0.3560  0.2815  0.0371
  109MOL   C27837214   1.540   4.127   1.765 -0.3071  0.1596 -0.4392
  109MOL   O27937215   1.532   4.257   1.743 -0.1301 -0.6914  0.7840
  109MOL   C28037216   1.448   4.066   1.854  0.3311  0.5575  0.2202
  109MOL   C28137217   1.452   3.924   1.879  0.8166 -0.0837  0.2147
  109MOL   C28237218   1.667   3.625   1.871  0.3242 -0.4111  0.0413
  109MOL   H28337219   1.459   3.655   1.867  1.3191 -0.7220  0.8485
  109MOL   H28437220   1.719   3.851   1.678  1.3863 -0.3134  1.1008
  109MOL   H28537221   1.692   4.102   1.632 -2.5765  1.8629 -0.7870
  109MOL   H28637222   1.447   4.297   1.747  0.4891  0.8614 -1.1599
  109MOL   H28737223   1.370   4.127   1.898 -0.0017  0.4154 -0.1751
  109MOL   H28837224   1.373   3.872   1.932  0.5515  0.2962  0.1979
  109MOL   H28937225   1.670   3.516   1.863 -0.0107 -0.5605  1.6804
  109MOL   H29037226   1.753   3.665   1.817 -0.8301  0.8203 -0.9264
  109MOL   C29137227   1.689   3.666   2.020 -0.3938 -0.2619 -0.2681
  109MOL   C29237228   1.835   3.656   2.055  0.4285 -0.6373 -0.7026
  109MOL   C29337229   1.908   3.774   2.097 -0.4072  0.2631 -0.0176
  109MOL   C29437230   2.042   3.769   2.132  0.3772 -0.4795  0.2406
  109MOL   C29537231   2.109   3.647   2.131 -0.3037  0.1751  0.2270
  109MOL   O29637232   2.243   3.648   2.143  0.3632 -0.3395 -0.3890
  109MOL   C29737233   2.043   3.534   2.082 -0.3485  0.5812 -0.5355
  109MOL   C29837234   1.911   3.542   2.041  0.4362 -0.5252 -0.7804
  109MOL   C29937235   1.612   3.569   2.113 -0.4164 -0.5463 -0.3611
  109MOL   H30037236   1.650   3.767   2.038  0.6173 -0.0281  0.7405
  109MOL   H30137237   1.851   3.865   2.108 -0.9871 -0.0583 -0.3624
  109MOL   H30237238   2.087   3.866   2.146 -0.0252  0.1197 -2.3347
  109MOL   H30337239   2.277   3.579   2.088 -0.6125  1.0232 -2.7329
  109MOL   H30437240   2.100   3.442   2.073 -0.9304 -0.3625  4.1916
  109MOL   H30537241   1.852   3.454   2.019 -0.2554 -0.1144 -0.5589
  109MOL   H30637242   1.668   3.477   2.126 -2.0592 -1.3530  1.2536
  109MOL   H30737243   1.520   3.546   2.059  0.5271 -0.3438 -2.0751
  109MOL   C30837244   1.558   3.629   2.245 -0.2247  0.2896  0.5485
  109MOL   C30937245   1.507   3.518   2.344 -0.3601 -0.5143 -0.2422
  109MOL   C31037246   1.530   3.540   2.480  0.8553  0.9924  0.4334
  109MOL   C31137247   1.489   3.442   2.571 -0.7549  0.3482 -0.3238
  109MOL   C31237248   1.405   3.339   2.529 -0.0197  0.3975 -0.2444
  109MOL   O31337249   1.360   3.259   2.629  0.7654 -0.0982  0.6381
  109MOL   C31437250   1.363   3.330   2.400 -0.2400  0.1680  0.2955
  109MOL   C31537251   1.419   3.413   2.303  0.6181 -0.5806  0.6955
  109MOL   C31637252   1.448   3.735   2.226  0.6638  0.0368  0.1292
  109MOL   H31737253   1.650   3.673   2.283  1.6660 -2.4451 -0.6965
  109MOL   H31837254   1.589   3.621   2.519  3.1856 -1.2087  1.6992
  109MOL   H31937255   1.514   3.454   2.675 -0.6932 -1.1250 -0.1632
  109MOL   H32037256   1.315   3.299   2.701  0.1650  2.9254 -1.3155
  109MOL   H32137257   1.286   3.255   2.389  0.3868 -0.4947  0.3661
  109MOL   H32237258   1.387   3.404   2.200  0.5321 -1.1367  0.7723
  109MOL   H32337259   1.355   3.683   2.203  1.4826 -0.5694 -2.0532
  109MOL   H32437260   1.467   3.789   2.133  1.1214 -2.1807 -1.1198
  109MOL   C32537261   1.426   3.829   2.344 -0.4917  0.2185  1.2345
  109MOL   C32637262   1.300   3.918   2.342 -0.0603  0.1292  0.2421
  109MOL   C32737263   1.235   3.953   2.465  0.3995  0.6024 -0.4667
  109MOL   C32837264   1.119   4.033   2.466 -0.0668  0.7072  0.5904
  109MOL   C32937265   1.060   4.071   2.342 -0.5721  0.3017  0.0321
  109MOL   O33037266   0.947   4.145   2.339  0.5146 -0.9556  0.1209
  109MOL   C33137267   1.129   4.036   2.219 -0.2484  0.0017  0.0788
  109MOL   C33237268   1.244   3.959   2.221  0.0161  0.5596  0.0278
  109MOL   C33337269   1.545   3.923   2.363 -0.7101  0.4435 -0.5641
  109MOL   H33437270   1.416   3.768   2.434 -0.0905 -0.3836  0.8776
  109MOL   H33537271   1.278   3.917   2.557  1.2515 -2.3799 -1.9712
  109MOL   H33637272   1.068   4.066   2.555 -0.7003  1.0541  0.1019
  109MOL   H33737273   0.954   4.237   2.363 -0.9803 -0.4119 -1.4318
  109MOL   H33837274   1.085   4.062   2.124  0.7014  3.1634  0.4233
  109MOL   H33937275   1.280   3.914   2.129 -1.7733  2.6242 -1.7521
  109MOL   H34037276   1.631   3.869   2.402 -0.6572  1.7154  1.1239
  109MOL   H34137277   1.520   3.999   2.438 -0.9782 -1.3027  1.1409
  109MOL   H34237278   1.573   3.980   2.274  0.9707  0.5637  0.0109
  110MOL     C137279   5.697   0.640   1.953  0.6704  0.2774  0.6362
  110MOL     C237280   5.696   0.786   1.920 -0.4796  0.1840 -0.1037
  110MOL     C337281   5.605   0.842   1.829  0.3496  0.4942 -0.0975
  110MOL     C437282   5.595   0.987   1.823  0.5392  0.4364 -0.2327
  110MOL     C537283   5.674   1.064   1.904 -0.2599 -0.6055  0.6152
  110MOL     O637284   5.674   1.199   1.875 -0.0648  0.1372 -0.0898
  110MOL     C737285   5.772   1.009   1.977 -0.5841  0.4714 -1.2550
  110MOL     C837286   5.784   0.870   1.988 -0.1509  0.2610  0.4637
  110MOL     C937287   5.607   0.597   2.071 -0.4739 -0.2525 -0.8040
  110MOL    H1037288   5.656   0.584   1.869  0.7068  1.3880 -0.1375
  110MOL    H1137289   5.527   0.785   1.780 -0.2177  0.9308  0.2779
  110MOL    H1237290   5.520   1.032   1.760  0.5497  1.3033  0.3643
  110MOL    H1337291   5.752   1.227   1.830  0.4762 -1.9358 -0.4966
  110MOL    H1437292   5.839   1.075   2.030  1.4329 -1.7091 -0.9556
  110MOL    H1537293   5.859   0.836   2.058  0.5359  2.0202  0.6080
  110MOL    H1637294   5.576   0.493   2.071 -0.9601 -0.1092 -0.8118
  110MOL    H1737295   5.516   0.652   2.049 -0.4850  1.5922  3.2043
  110MOL    H1837296   5.799   0.606   1.965  0.5846 -1.4102 -2.9005
  110MOL    C1937297   5.655   0.648   2.215 -0.7663 -0.5690  0.6264
  110MOL    C2037298   5.787   0.580   2.252  0.2691 -0.0278 -0.3424
  110MOL    C2137299   5.897   0.655   2.301 -0.1335 -0.4116 -0.6194
  110MOL    C2237300   6.018   0.590   2.324 -0.1773 -0.2233  0.1328
  110MOL    C2337301   6.041   0.458   2.284  0.3061 -0.1310 -0.2325
  110MOL    O2437302   6.164   0.405   2.291  0.5104 -0.6071 -0.8454
  110MOL    C2537303   5.933   0.384   2.241  0.0007 -0.2172 -0.3790
  110MOL    C2637304   5.804   0.440   2.235 -0.5634 -0.4263 -0.1434
  110MOL    C2737305   5.539   0.626   2.317 -1.0245 -0.1447  0.3754
  110MOL    H2837306   5.680   0.753   2.200 -0.1089 -0.9953 -1.5236
  110MOL    H2937307   5.888   0.758   2.334  2.9732 -1.0021  2.2655
  110MOL    H3037308   6.098   0.645   2.372  0.5031 -1.2829  0.2264
  110MOL    H3137309   6.155   0.316   2.321 -0.3166 -0.5158 -0.8251
  110MOL    H3237310   5.940   0.280   2.212  1.4905  0.6255 -3.2560
  110MOL    H3337311   5.725   0.367   2.226  0.5587 -1.4536 -1.8278
  110MOL    H3437312   5.529   0.519   2.333  1.5200 -0.1313  2.3736
  110MOL    H3537313   5.445   0.660   2.274 -1.0199 -1.8741 -1.0541
  110MOL    C3637314   5.562   0.684   2.459  0.3516 -0.4111  0.0628
  110MOL    C3737315   5.451   0.624   2.548  0.1428 -0.0677  0.7877
  110MOL    C3837316   5.317   0.614   2.497  0.7541 -0.0401 -0.8125
  110MOL    C3937317   5.218   0.546   2.580 -0.9245 -0.5394  0.3499
  110MOL    C4037318   5.246   0.488   2.705  0.0544 -0.4425 -0.4208
  110MOL    O4137319   5.149   0.417   2.774  0.0503 -0.5064  0.1878
  110MOL    C4237320   5.374   0.502   2.758  0.3418 -0.5040 -0.1051
  110MOL    C4337321   5.471   0.576   2.680 -0.3995 -0.2101  0.2788
  110MOL    C4437322   5.563   0.839   2.465  0.0728 -0.7270  0.6234
  110MOL    H4537323   5.653   0.643   2.502  0.8700 -1.2004 -1.7259
  110MOL    H4637324   5.280   0.652   2.403 -1.6746 -1.9848 -0.6961
  110MOL    H4737325   5.122   0.541   2.531 -0.9333  1.1366  0.1385
  110MOL    H4837326   5.194   0.368   2.841  0.7520  0.3694  0.3774
  110MOL    H4937327   5.406   0.466   2.855  0.1454  1.1468  0.5951
  110MOL    H5037328   5.567   0.595   2.726 -0.9558 -1.5498  2.0819
  110MOL    H5137329   5.622   0.884   2.386  1.1782 -0.7611  1.4152
  110MOL    H5237330   5.457   0.864   2.461  0.6947  1.7743 -0.6830
  110MOL    C5337331   5.628   0.892   2.601 -0.4166 -0.7334 -0.2528
  110MOL    C5437332   5.780   0.875   2.601 -0.1411 -0.4522  0.0834
  110MOL    C5537333   5.867   0.949   2.514 -0.2039  0.0843 -0.3096
  110MOL    C5637334   6.004   0.929   2.514 -0.5253  0.2943  0.0424
  110MOL    C5737335   6.060   0.828   2.597 -0.5251  0.1572  0.6145
  110MOL    O5837336   6.198   0.809   2.609 -0.1014 -0.0708 -0.2656
  110MOL    C5937337   5.980   0.756   2.688 -0.7552  0.8589 -0.7591
  110MOL    C6037338   5.839   0.779   2.687 -0.0172 -0.6143  0.2741
  110MOL    C6137339   5.598   1.044   2.624 -0.0248 -0.6889 -0.0816
  110MOL    H6237340   5.578   0.830   2.675 -0.6919 -0.0629  0.1302
  110MOL    H6337341   5.828   1.020   2.443  0.6895  0.6067 -0.2753
  110MOL    H6437342   6.063   0.991   2.447  0.6081 -0.2123  0.5749
  110MOL    H6537343   6.241   0.824   2.526  0.7640  0.8140  0.3339
  110MOL    H6637344   6.018   0.691   2.766 -1.8237 -0.0741 -1.0013
  110MOL    H6737345   5.777   0.715   2.748  2.0854 -3.5067 -0.5114
  110MOL    H6837346   5.518   1.071   2.555 -1.6977 -3.4590  0.6839
  110MOL    H6937347   5.687   1.098   2.592  0.2188 -1.5725 -0.9216
  110MOL    C7037348   5.565   1.071   2.780 -0.3247  1.0994  0.9319
  110MOL    C7137349   5.426   1.019   2.808  0.3264 -0.4435  0.2132
  110MOL    C7237350   5.416   0.927   2.918  0.7850 -0.1856  0.0946
  110MOL    C7337351   5.289   0.869   2.939  0.2548  0.2909  0.6546
  110MOL    C7437352   5.177   0.904   2.861 -0.0333  0.0536  0.2182
  110MOL    O7537353   5.054   0.846   2.886  0.1057  0.4175  0.1755
  110MOL    C7637354   5.187   1.002   2.764 -0.1178 -0.2490 -0.3904
  110MOL    C7737355   5.315   1.059   2.734  0.4694  0.0828  0.6190
  110MOL    C7837356   5.573   1.213   2.825 -0.3680  0.0501  0.4526
  110MOL    H7937357   5.645   1.016   2.829 -0.9382  1.1003  1.9733
  110MOL    H8037358   5.496   0.896   2.983 -0.8421 -0.7549  1.8581
  110MOL    H8137359   5.274   0.799   3.020  0.2210 -0.7798 -0.2585
  110MOL    H8237360   4.998   0.861   2.811  1.2011  1.2084 -0.5100
  110MOL    H8337361   5.102   1.036   2.708  0.7576  1.8480 -0.4830
  110MOL    H8437362   5.326   1.132   2.655  0.2323  1.0013  1.4239
  110MOL    H8537363   5.476   1.261   2.809 -0.2243  0.6776  1.4299
  110MOL    H8637364   5.635   1.269   2.755 -1.2140 -1.3346 -1.4360
  110MOL    C8737365   5.623   1.236   2.970  0.9003 -0.2939  0.6448
  110MOL    C8837366   5.533   1.333   3.040  0.6210 -1.0221 -0.3197
  110MOL    C8937367   5.455   1.298   3.144  0.9200  0.1059  0.0780
  110MOL    C9037368   5.379   1.394   3.215 -0.1093 -0.7779 -0.0296
  110MOL    C9137369   5.386   1.527   3.183 -0.4171  0.0739 -0.3814
  110MOL    O9237370   5.284   1.613   3.238  0.2417 -0.4023 -0.1921
  110MOL    C9337371   5.472   1.567   3.074  0.0383 -0.2673 -0.7375
  110MOL    C9437372   5.544   1.472   3.003 -0.3961 -0.0369 -0.1673
  110MOL    C9537373   5.767   1.272   2.971 -0.0921 -0.3726  0.2552
  110MOL    H9637374   5.614   1.147   3.032 -0.5986 -1.3323 -1.0358
  110MOL    H9737375   5.452   1.194   3.175  2.1865  0.8949  3.0366
  110MOL    H9837376   5.314   1.355   3.293 -1.5355 -0.6358 -1.1245
  110MOL    H9937377   5.237   1.573   3.310  0.1990  0.8348  0.4887
  110MOL   H10037378   5.466   1.669   3.040 -1.5299 -0.0977 -0.0350
  110MOL   H10137379   5.596   1.499   2.913 -0.0339 -1.5021 -0.4201
  110MOL   H10237380   5.783   1.357   2.904 -0.4761 -1.8897 -1.8147
  110MOL   H10337381   5.792   1.315   3.068 -2.0224 -0.5338  0.8388
  110MOL   C10437382   5.881   1.160   2.959  0.0329  0.2438 -0.0872
  110MOL   C10537383   5.866   1.049   3.056  0.0881  0.0125  0.2600
  110MOL   C10637384   5.857   0.917   3.004 -0.5384  0.6023  0.6125
  110MOL   C10737385   5.857   0.802   3.084  0.2312  0.8509 -0.3317
  110MOL   C10837386   5.874   0.820   3.220  0.3983 -0.0086 -0.2478
  110MOL   O10937387   5.883   0.714   3.306  0.4728 -0.4259  0.8249
  110MOL   C11037388   5.883   0.949   3.269  0.2525  0.0553 -0.2607
  110MOL   C11137389   5.893   1.066   3.192  0.0976  0.1164  0.4396
  110MOL   C11237390   6.026   1.211   2.975 -0.4731 -0.4827 -0.4573
  110MOL   H11337391   5.875   1.122   2.857 -1.4058 -0.9870  0.4241
  110MOL   H11437392   5.855   0.902   2.897 -0.4988  1.0702  0.5438
  110MOL   H11537393   5.855   0.704   3.038 -1.1412  0.6250  0.1980
  110MOL   H11637394   5.883   0.734   3.399  0.3005  0.1663  0.7018
  110MOL   H11737395   5.893   0.949   3.377 -0.1179  2.2221 -0.1947
  110MOL   H11837396   5.912   1.160   3.241 -0.6437 -0.4252  1.7867
  110MOL   H11937397   6.091   1.129   3.003 -1.9001 -2.0358 -1.6041
  110MOL   H12037398   6.017   1.276   3.062  1.1372 -0.0035 -0.6370
  110MOL   C12137399   6.078   1.286   2.851 -0.2258  0.0879 -0.3151
  110MOL   C12237400   6.015   1.426   2.824 -0.4552  0.1463  0.1372
  110MOL   C12337401   6.009   1.521   2.928 -0.1443  0.0797  0.1338
  110MOL   C12437402   5.951   1.645   2.912 -0.3259 -0.0649 -0.5083
  110MOL   C12537403   5.890   1.675   2.792 -0.3649  0.4584  0.6645
  110MOL   O12637404   5.819   1.791   2.776 -0.0371 -0.1933  0.0480
  110MOL   C12737405   5.895   1.580   2.684  0.3221 -0.4867  0.5385
  110MOL   C12837406   5.959   1.458   2.698 -0.0121  0.5012 -0.6608
  110MOL   C12937407   6.226   1.297   2.863 -0.6067 -0.0429  0.4967
  110MOL   H13037408   6.051   1.219   2.770 -0.9089 -1.6294  1.2707
  110MOL   H13137409   6.051   1.496   3.024 -0.1444 -2.3131 -0.4345
  110MOL   H13237410   5.951   1.702   3.004  2.7117  0.6209 -0.8964
  110MOL   H13337411   5.802   1.816   2.865 -0.1344 -0.9943  0.2611
  110MOL   H13437412   5.855   1.598   2.585  1.0029 -1.3223  0.1052
  110MOL   H13537413   5.976   1.390   2.616 -1.5175  0.3414 -0.8511
  110MOL   H13637414   6.262   1.195   2.874 -0.4651  0.1893  2.3965
  110MOL   H13737415   6.238   1.347   2.960 -2.1054 -2.3662  1.9311
  110MOL   C13837416   6.312   1.382   2.763 -0.1158 -0.3439 -0.1520
  110MOL   C13937417   6.295   1.331   2.615  0.2658 -0.6047 -0.8375
  110MOL   C14037418   6.352   1.212   2.569 -0.0557  0.1260 -1.3441
  110MOL   C14137419   6.330   1.164   2.438  0.3561 -0.8346 -0.3150
  110MOL   C14237420   6.269   1.254   2.343  0.0311 -0.2152 -0.4904
  110MOL   O14337421   6.257   1.230   2.215  0.1489 -0.0020  0.2771
  110MOL   C14437422   6.212   1.376   2.391 -0.6374  0.8925  0.0751
  110MOL   C14537423   6.230   1.416   2.523  0.4812  0.1103 -0.8043
  110MOL   C14637424   6.466   1.385   2.792  0.0840 -0.1950 -0.3111
  110MOL   H14737425   6.282   1.487   2.766 -0.1038 -0.3772  1.0024
  110MOL   H14837426   6.409   1.158   2.643 -1.2801  0.7196  0.0608
  110MOL   H14937427   6.361   1.063   2.418 -0.6786 -1.8727  3.0430
  110MOL   H15037428   6.317   1.163   2.187  1.0521  0.8230  0.2368
  110MOL   H15137429   6.149   1.436   2.327 -0.3095  0.3869 -0.7226
  110MOL   H15237430   6.180   1.507   2.553 -1.5158 -1.1503 -0.1716
  110MOL   H15337431   6.498   1.457   2.718 -1.5361 -0.1484 -0.9927
  110MOL   H15437432   6.522   1.297   2.761 -0.6631 -0.7176 -0.2026
  110MOL   C15537433   6.515   1.433   2.931 -0.5495 -0.7997 -0.2134
  110MOL   C15637434   6.454   1.571   2.957 -0.1867  0.2537  0.2474
  110MOL   C15737435   6.497   1.684   2.883 -1.1286 -0.9088  0.4422
  110MOL   C15837436   6.446   1.808   2.911 -0.0079  0.5672 -0.9379
  110MOL   C15937437   6.343   1.820   3.008 -0.0978 -0.1289  0.2985
  110MOL   O16037438   6.293   1.949   3.028  0.2351 -0.3361 -0.5895
  110MOL   C16137439   6.300   1.715   3.090  0.5629  0.1304  0.8354
  110MOL   C16237440   6.358   1.587   3.063  0.3030  0.3083  0.8274
  110MOL   C16337441   6.673   1.426   2.938  0.1544  0.1064 -0.5538
  110MOL   H16437442   6.484   1.367   3.012 -3.1175 -1.3153 -1.5830
  110MOL   H16537443   6.578   1.663   2.815 -1.5754  1.3687 -0.8248
  110MOL   H16637444   6.469   1.894   2.849  1.7306 -0.0343 -1.1654
  110MOL   H16737445   6.361   2.013   3.014  0.5239 -0.3230  0.7885
  110MOL   H16837446   6.233   1.723   3.174  0.4489 -0.2692  0.7815
  110MOL   H16937447   6.330   1.511   3.134 -0.2469 -0.1820  0.0903
  110MOL   H17037448   6.709   1.464   2.842 -0.3589  3.9576  0.6733
  110MOL   H17137449   6.712   1.324   2.934 -0.4366 -0.0668 -3.0472
  110MOL   C17237450   6.743   1.500   3.054  0.4732 -0.6457 -0.2158
  110MOL   C17337451   6.891   1.470   3.036 -0.5085  0.0929  0.6033
  110MOL   C17437452   6.951   1.356   3.089 -0.4485 -0.3919  0.0860
  110MOL   C17537453   7.094   1.346   3.087 -0.2599 -0.6246  0.2845
  110MOL   C17637454   7.176   1.449   3.032 -0.0030 -0.5364  0.1901
  110MOL   O17737455   7.313   1.439   3.031  0.6545  0.6803 -0.0099
  110MOL   C17837456   7.115   1.560   2.971 -0.1233 -0.1003  0.2233
  110MOL   C17937457   6.970   1.570   2.979 -0.8558  0.4692  0.3083
  110MOL   C18037458   6.684   1.473   3.195 -0.2745 -0.1558  0.5542
  110MOL   H18137459   6.736   1.606   3.028  1.7953  0.1322  2.3904
  110MOL   H18237460   6.896   1.272   3.128 -1.7102  0.9228  1.2100
  110MOL   H18337461   7.133   1.256   3.133 -0.5693 -1.0605 -0.2861
  110MOL   H18437462   7.360   1.519   3.014 -1.1848  1.8837  0.3633
  110MOL   H18537463   7.174   1.637   2.924 -1.5890  0.3056 -0.9697
  110MOL   H18637464   6.927   1.654   2.926  1.7462  2.1565  0.7880
  110MOL   H18737465   6.699   1.369   3.226  1.5458  0.3368  1.4283
  110MOL   H18837466   6.578   1.493   3.204 -0.4242 -0.7911  0.2321
  110MOL   C18937467   6.751   1.551   3.309 -0.0645  0.0891  0.8290
  110MOL   C19037468   6.734   1.706   3.292 -0.0651 -0.7475  0.8089
  110MOL   C19137469   6.840   1.787   3.256  0.1128 -0.4958 -0.2628
  110MOL   C19237470   6.828   1.924   3.238  0.0709  0.3320  0.8421
  110MOL   C19337471   6.704   1.986   3.238 -0.3240 -0.2210  0.6907
  110MOL   O19437472   6.683   2.116   3.196 -0.0979 -0.1443 -0.5403
  110MOL   C19537473   6.592   1.910   3.269 -0.0061  0.0482 -0.1686
  110MOL   C19637474   6.606   1.772   3.293  0.7857 -0.2151 -0.5385
  110MOL   C19737475   6.717   1.508   3.451 -0.7215  0.7853 -0.1026
  110MOL   H19837476   6.858   1.534   3.297 -0.1250 -0.1789  0.6584
  110MOL   H19937477   6.941   1.752   3.241  1.1450  2.3298 -0.0766
  110MOL   H20037478   6.919   1.980   3.230 -0.5105  1.5274  2.3219
  110MOL   H20137479   6.760   2.166   3.177  0.1942 -0.2476  0.3457
  110MOL   H20237480   6.497   1.960   3.256  0.4557  1.0810  0.3816
  110MOL   H20337481   6.515   1.718   3.315 -0.1349  0.5512 -2.3193
  110MOL   H20437482   6.676   1.407   3.451  0.5961  0.2450 -0.3407
  110MOL   H20537483   6.628   1.564   3.479  0.0329  2.1906 -0.5040
  110MOL   C20637484   6.842   1.510   3.546 -0.2267  0.0589  0.8677
  110MOL   C20737485   6.929   1.389   3.538  0.4107  0.1525  0.2239
  110MOL   C20837486   6.879   1.255   3.556  0.3208  0.3378 -0.0421
  110MOL   C20937487   6.968   1.141   3.535 -0.3110 -0.2155  0.3441
  110MOL   C21037488   7.102   1.156   3.507 -0.0588 -0.0119 -0.5049
  110MOL   O21137489   7.182   1.047   3.491  0.4055  0.3816 -0.1828
  110MOL   C21237490   7.148   1.290   3.496  0.2079  0.2670  0.3829
  110MOL   C21337491   7.062   1.400   3.508  0.2637 -0.0282 -0.6708
  110MOL   C21437492   6.805   1.541   3.689 -0.8346  0.7801 -0.4250
  110MOL   H21537493   6.908   1.588   3.508  0.7398 -0.0123  2.3653
  110MOL   H21637494   6.779   1.237   3.592 -0.3337  1.8504 -1.0391
  110MOL   H21737495   6.933   1.040   3.554  1.0271 -0.3723  2.1683
  110MOL   H21837496   7.235   1.037   3.568 -1.6151 -3.5611  0.7900
  110MOL   H21937497   7.253   1.304   3.475  0.6133 -1.1635  1.3341
  110MOL   H22037498   7.113   1.495   3.510  0.1447  0.0335 -0.5686
  110MOL   H22137499   6.890   1.513   3.750 -2.1260 -0.5549  0.8077
  110MOL   H22237500   6.723   1.477   3.723  0.5451 -0.2854  0.9256
  110MOL   C22337501   6.777   1.688   3.717  0.0441 -0.3298  0.4457
  110MOL   C22437502   6.887   1.786   3.677  0.2631 -0.4430  0.3578
  110MOL   C22537503   7.022   1.751   3.711  0.2814 -0.1438 -0.0428
  110MOL   C22637504   7.136   1.824   3.678 -0.7475  0.0058 -0.3640
  110MOL   C22737505   7.110   1.937   3.603 -0.0119 -0.5782 -0.5221
  110MOL   O22837506   7.217   2.012   3.567 -0.5246 -0.1285 -0.0803
  110MOL   C22937507   6.981   1.985   3.568 -0.2309  0.0535  0.5820
  110MOL   C23037508   6.870   1.904   3.599  0.7573 -0.2176  0.0479
  110MOL   C23137509   6.726   1.724   3.863 -0.6477 -0.7355 -0.5253
  110MOL   H23237510   6.697   1.711   3.647  0.7020  2.9683  0.7090
  110MOL   H23337511   7.050   1.656   3.754 -0.2439 -0.1495  0.2769
  110MOL   H23437512   7.232   1.789   3.709 -1.6598 -1.2990  1.0253
  110MOL   H23537513   7.290   2.010   3.627  1.6003  1.4329 -2.4997
  110MOL   H23637514   6.964   2.073   3.508  3.3500  0.6933  0.3436
  110MOL   H23737515   6.772   1.937   3.568 -0.0111 -2.4866 -0.0001
  110MOL   H23837516   6.666   1.646   3.910 -0.0818 -0.9564 -0.1652
  110MOL   H23937517   6.808   1.721   3.934 -0.6768  1.3765 -0.3797
  110MOL   C24037518   6.645   1.858   3.873  0.8385  0.3609 -0.3411
  110MOL   C24137519   6.526   1.862   3.781  0.4870 -0.0686 -0.5344
  110MOL   C24237520   6.448   1.745   3.765  0.2558 -0.3179 -0.2294
  110MOL   C24337521   6.333   1.759   3.686 -0.0199 -0.2608 -1.1063
  110MOL   C24437522   6.303   1.870   3.612 -0.1005 -0.2630  0.1579
  110MOL   O24537523   6.184   1.878   3.537 -0.5131  0.2936  0.1810
  110MOL   C24637524   6.395   1.974   3.607  0.0654 -0.0796  0.9644
  110MOL   C24737525   6.501   1.977   3.697  0.4285  0.0901  0.2217
  110MOL   C24837526   6.597   1.884   4.021  0.6395 -0.4201 -0.0059
  110MOL   H24937527   6.710   1.939   3.840 -0.4451  1.8140  0.6647
  110MOL   H25037528   6.473   1.657   3.822 -0.1793 -0.4311 -0.2138
  110MOL   H25137529   6.264   1.677   3.680 -0.0321 -0.1951 -1.8258
  110MOL   H25237530   6.191   1.935   3.461 -0.6289 -0.5362 -0.4568
  110MOL   H25337531   6.375   2.062   3.547  1.5510  1.5003  2.7508
  110MOL   H25437532   6.562   2.066   3.701 -0.8848  0.9488  1.4104
  110MOL   H25537533   6.505   1.942   4.020  2.6598  2.9035 -0.7263
  110MOL   H25637534   6.574   1.787   4.065 -3.0796 -1.2528 -3.5289
  110MOL   C25737535   6.695   1.966   4.113  0.2463 -0.3253  0.9061
  110MOL   C25837536   6.635   1.999   4.250  0.2756  0.8016  0.4702
  110MOL   C25937537   6.603   1.895   4.345 -0.3654 -0.0149 -0.4352
  110MOL   C26037538   6.547   1.937   4.469 -0.7057  0.7576  0.0420
  110MOL   C26137539   6.503   2.070   4.494  0.4671  0.4782 -0.1029
  110MOL   O26237540   6.432   2.096   4.610 -0.1163  0.2987  0.6113
  110MOL   C26337541   6.531   2.168   4.397  0.5407  0.2631  0.7751
  110MOL   C26437542   6.595   2.131   4.280  0.7158 -1.0578  0.5217
  110MOL   C26537543   6.836   1.911   4.122 -0.2760 -0.3057 -0.3461
  110MOL   H26637544   6.701   2.064   4.065 -0.2707  1.0742  3.5624
  110MOL   H26737545   6.622   1.789   4.338  0.6533  0.3285 -3.1990
  110MOL   H26837546   6.517   1.860   4.538 -1.5570 -0.3307 -1.4965
  110MOL   H26937547   6.467   2.162   4.669  0.4234 -0.5953  1.2965
  110MOL   H27037548   6.496   2.270   4.400 -0.8412 -0.0151 -3.1750
  110MOL   H27137549   6.624   2.208   4.210  0.2808 -1.2368  0.1422
  110MOL   H27237550   6.878   1.892   4.023  0.0004  1.8929 -0.6891
  110MOL   H27337551   6.824   1.813   4.167  0.8500  0.5855  1.9451
  110MOL   C27437552   6.938   1.984   4.210 -0.7695  0.9193  0.7102
  110MOL   C27537553   6.957   2.128   4.178  0.1711  0.1307  0.4866
  110MOL   C27637554   6.989   2.172   4.048  0.2826  0.1590 -0.7087
  110MOL   C27737555   6.998   2.312   4.024  0.1014  0.0353  0.4082
  110MOL   C27837556   7.001   2.408   4.128  0.9060  0.3641  0.3124
  110MOL   O27937557   7.029   2.537   4.104  0.3809 -0.4173 -0.2530
  110MOL   C28037558   6.970   2.361   4.256  1.2023  0.2979  0.5084
  110MOL   C28137559   6.939   2.224   4.279 -0.1055 -0.0685  0.4266
  110MOL   C28237560   7.076   1.910   4.209 -0.3519 -0.7906  0.1509
  110MOL   H28337561   6.901   1.984   4.312 -1.0162  2.1860  0.6221
  110MOL   H28437562   7.004   2.104   3.965  1.9872  0.0953 -0.3722
  110MOL   H28537563   7.023   2.351   3.927  2.8390 -0.0457  1.0415
  110MOL   H28637564   7.076   2.539   4.022 -1.6714 -1.3732 -1.5205
  110MOL   H28737565   6.965   2.435   4.334 -1.9355  0.2067  0.4654
  110MOL   H28837566   6.920   2.200   4.382  2.6915 -0.9848  0.7849
  110MOL   H28937567   7.104   1.891   4.106  0.0796 -0.6435  0.2390
  110MOL   H29037568   7.159   1.974   4.238 -0.2119 -1.7761  2.0369
  110MOL   C29137569   7.090   1.788   4.304  0.0218  0.6006 -0.9869
  110MOL   C29237570   7.045   1.820   4.447  0.8551 -0.5514  0.4718
  110MOL   C29337571   7.099   1.930   4.523 -0.1904 -0.0256 -0.2934
  110MOL   C29437572   7.045   1.964   4.646  0.5293 -0.2940 -0.6731
  110MOL   C29537573   6.942   1.881   4.699 -0.0081  0.3498 -0.1814
  110MOL   O29637574   6.896   1.909   4.822  0.0563  0.7140 -0.2733
  110MOL   C29737575   6.887   1.772   4.626  0.1886  0.6290 -0.4622
  110MOL   C29837576   6.937   1.743   4.496  0.3987 -0.7547 -0.4132
  110MOL   C29937577   7.232   1.720   4.321 -0.0354 -0.3692  0.2295
  110MOL   H30037578   7.022   1.710   4.270 -0.1052  0.5400 -0.5923
  110MOL   H30137579   7.179   1.995   4.488 -0.4104 -0.0204 -0.7847
  110MOL   H30237580   7.083   2.049   4.701  1.1767 -0.0907 -1.4254
  110MOL   H30337581   6.802   1.901   4.820  0.2613 -2.9413  0.5085
  110MOL   H30437582   6.809   1.709   4.666  1.9971 -1.2557  0.1767
  110MOL   H30537583   6.905   1.653   4.446 -3.0860  0.7215 -0.9549
  110MOL   H30637584   7.238   1.640   4.395 -2.5787  1.2749  2.2898
  110MOL   H30737585   7.296   1.798   4.362  1.2776 -0.5963 -1.3729
  110MOL   C30837586   7.286   1.663   4.191  0.5515 -0.0648  0.1988
  110MOL   C30937587   7.202   1.532   4.158  0.5545  0.0872  0.3029
  110MOL   C31037588   7.221   1.407   4.230 -0.6352 -0.7923 -0.0752
  110MOL   C31137589   7.134   1.301   4.204 -0.0448 -0.1757  0.2238
  110MOL   C31237590   7.039   1.310   4.102  0.8056  0.2401  0.5725
  110MOL   O31337591   6.953   1.213   4.078  0.2077  0.3396  0.5196
  110MOL   C31437592   7.025   1.437   4.032 -0.8110 -0.8435 -0.8661
  110MOL   C31537593   7.102   1.546   4.062  0.1476  0.4179  0.7001
  110MOL   C31637594   7.440   1.631   4.204 -0.1640  0.3968  0.2989
  110MOL   H31737595   7.265   1.727   4.105  1.0041 -1.1315 -0.7166
  110MOL   H31837596   7.299   1.400   4.304  2.3743  0.9932 -2.9218
  110MOL   H31937597   7.138   1.210   4.261 -1.3689 -0.8959 -0.8242
  110MOL   H32037598   6.946   1.160   4.156 -0.0522  0.7442  0.7730
  110MOL   H32137599   6.947   1.440   3.957 -0.3646 -2.7342 -1.4162
  110MOL   H32237600   7.097   1.635   4.001  3.5493 -0.0616 -0.3416
  110MOL   H32337601   7.470   1.553   4.134 -0.3297  1.2321 -0.7112
  110MOL   H32437602   7.454   1.583   4.301  1.9939 -0.8964 -0.6162
  110MOL   C32537603   7.540   1.749   4.186  0.0553  0.1920  0.1363
  110MOL   C32637604   7.493   1.843   4.074  0.5016 -0.5818 -0.4600
  110MOL   C32737605   7.462   1.971   4.096  0.0912  0.1510  0.5431
  110MOL   C32837606   7.449   2.061   3.986 -0.2098 -0.1644  0.1799
  110MOL   C32937607   7.438   2.014   3.856 -0.7526  0.9092  0.4211
  110MOL   O33037608   7.406   2.099   3.753  0.4297  0.2610 -0.4011
  110MOL   C33137609   7.459   1.881   3.832 -0.1242  0.0100 -0.0459
  110MOL   C33237610   7.486   1.793   3.939  0.1178  0.0584 -0.0941
  110MOL   C33337611   7.676   1.694   4.148 -0.3843 -0.0054 -0.0663
  110MOL   H33437612   7.558   1.806   4.277  0.9005 -1.4460  1.0202
  110MOL   H33537613   7.460   2.024   4.190 -1.1772  1.6620 -0.3130
  110MOL   H33637614   7.440   2.163   4.021  0.6574  0.7654 -2.2290
  110MOL   H33737615   7.407   2.190   3.778 -1.0193  1.2109 -3.5635
  110MOL   H33837616   7.443   1.834   3.736 -0.5084 -1.3940  0.6821
  110MOL   H33937617   7.505   1.691   3.910 -0.8689 -0.1497 -0.0182
  110MOL   H34037618   7.745   1.776   4.128 -2.4635  0.9589 -3.8985
  110MOL   H34137619   7.681   1.643   4.051 -1.6296  2.8797 -1.7408
  110MOL   H34237620   7.720   1.636   4.228  0.6696 -0.6657 -1.1085
  111MOL     C137621   7.304   7.426   4.429  0.0300 -0.6873 -1.1294
  111MOL     C237622   7.260   7.323   4.530  0.8568  0.2048 -0.1554
  111MOL     C337623   7.298   7.190   4.516  0.5539 -0.7188  0.8839
  111MOL     C437624   7.252   7.091   4.607 -0.1377  0.4910 -0.1354
  111MOL     C537625   7.172   7.129   4.711  0.4600  0.1071 -0.0671
  111MOL     O637626   7.126   7.034   4.795 -0.2894  0.8211 -0.0521
  111MOL     C737627   7.129   7.264   4.723 -0.2729 -0.3444  0.2231
  111MOL     C837628   7.164   7.358   4.620 -0.2800  0.6187 -0.1791
  111MOL     C937629   7.430   7.501   4.481 -0.0545 -0.3760  0.0980
  111MOL    H1037630   7.331   7.383   4.332 -2.9065  0.1668 -2.3967
  111MOL    H1137631   7.364   7.159   4.436 -0.3943 -1.2389  0.2940
  111MOL    H1237632   7.292   6.993   4.587 -1.4966 -0.0191 -0.4159
  111MOL    H1337633   7.132   7.068   4.883 -0.3514 -1.4383  0.8491
  111MOL    H1437634   7.068   7.300   4.804  3.4724  0.8010  2.6866
  111MOL    H1537635   7.128   7.458   4.635  2.2368  1.5488 -0.1233
  111MOL    H1637636   7.401   7.571   4.560  0.0423  1.0081 -1.0631
  111MOL    H1737637   7.471   7.571   4.408  0.6987 -2.5082 -1.5590
  111MOL    H1837638   7.226   7.498   4.407  0.9348  0.6184 -0.0758
  111MOL    C1937639   7.549   7.415   4.536 -0.0974 -0.4585  0.5034
  111MOL    C2037640   7.657   7.497   4.606  0.2947  0.7516 -0.2189
  111MOL    C2137641   7.676   7.479   4.748  0.6902  0.9507  0.7636
  111MOL    C2237642   7.796   7.534   4.803  0.6195 -0.8281 -0.5514
  111MOL    C2337643   7.880   7.620   4.724  0.2664  0.1754  0.1202
  111MOL    O2437644   7.978   7.693   4.787 -0.1357 -0.1298 -0.1967
  111MOL    C2537645   7.854   7.643   4.592  0.0517 -0.0339  0.2445
  111MOL    C2637646   7.744   7.586   4.534  0.4064  0.6364  0.9155
  111MOL    C2737647   7.617   7.336   4.430 -0.4684 -0.2982  0.5614
  111MOL    H2837648   7.511   7.342   4.608 -0.4635  1.5577  2.3954
  111MOL    H2937649   7.605   7.417   4.801  0.1241 -1.1575 -2.3212
  111MOL    H3037650   7.805   7.523   4.909 -0.2831  0.2991 -0.3394
  111MOL    H3137651   7.999   7.665   4.875 -1.9391  0.1811  0.3527
  111MOL    H3237652   7.907   7.720   4.537  0.2109  0.8530  1.6071
  111MOL    H3337653   7.726   7.612   4.431 -2.8290 -1.0903  0.9702
  111MOL    H3437654   7.669   7.398   4.357 -3.1932  1.2549 -0.1565
  111MOL    H3537655   7.543   7.290   4.364 -1.7690 -0.4229  2.0876
  111MOL    C3637656   7.708   7.221   4.477  0.0786 -0.4592  0.0729
  111MOL    C3737657   7.842   7.236   4.414 -0.0614 -0.3790  0.4319
  111MOL    C3837658   7.865   7.195   4.287  0.0518  0.0750  0.8181
  111MOL    C3937659   7.989   7.222   4.220  0.5455 -0.2676  0.0424
  111MOL    C4037660   0.060   7.282   4.287  0.1311  0.0238 -0.1497
  111MOL    O4137661   0.172   7.315   4.220 -0.4354  0.1270  0.2990
  111MOL    C4237662   0.038   7.322   4.419 -0.5227 -0.1828 -0.8211
  111MOL    C4337663   7.945   7.307   4.481 -0.4533  0.5409 -0.3282
  111MOL    C4437664   7.657   7.074   4.457  0.2854 -0.4317  0.5603
  111MOL    H4537665   7.722   7.225   4.585  1.2938 -1.4210 -0.0382
  111MOL    H4637666   7.792   7.144   4.225 -1.0431  2.0290  0.4540
  111MOL    H4737667   8.003   7.182   4.121 -0.7400 -0.2513 -0.1626
  111MOL    H4837668   0.161   7.317   4.126 -2.1332  0.7223  0.4823
  111MOL    H4937669   0.113   7.363   4.484 -3.1011  0.2033  2.0470
  111MOL    H5037670   7.920   7.351   4.577 -0.8698 -2.4055  0.9782
  111MOL    H5137671   7.550   7.080   4.477  0.3384 -1.5265  1.2305
  111MOL    H5237672   7.655   7.044   4.352 -0.0246  1.8222 -0.1060
  111MOL    C5337673   7.727   6.966   4.541 -0.1149  0.7582  0.0003
  111MOL    C5437674   7.718   6.993   4.692  0.5152 -0.3342  0.6838
  111MOL    C5537675   7.829   7.050   4.760 -0.1328 -0.4334  0.7943
  111MOL    C5637676   7.821   7.080   4.903 -0.1636  0.3508  0.1093
  111MOL    C5737677   7.699   7.062   4.977 -0.7630 -0.2974  0.1423
  111MOL    O5837678   7.692   7.083   5.110 -0.4281 -0.6031 -0.4017
  111MOL    C5937679   7.592   7.005   4.903 -0.1125  0.0152  0.8319
  111MOL    C6037680   7.599   6.969   4.765  0.4784  0.5152 -0.7025
  111MOL    C6137681   7.692   6.822   4.507 -0.1371  0.0356  0.2127
  111MOL    H6237682   7.831   6.973   4.512 -0.6255  0.1184 -2.0363
  111MOL    H6337683   7.919   7.078   4.707  0.5474  0.6771  2.4965
  111MOL    H6437684   7.909   7.123   4.949 -0.8294  1.1909  0.6212
  111MOL    H6537685   7.774   7.118   5.144 -1.4630  0.1592  1.3910
  111MOL    H6637686   7.499   6.993   4.956 -1.6754  2.3288 -1.2803
  111MOL    H6737687   7.519   6.930   4.705  2.1248 -2.6712 -0.9786
  111MOL    H6837688   7.668   6.806   4.402  0.1854  0.3001  0.1003
  111MOL    H6937689   7.601   6.792   4.559 -0.3640  0.8969  0.3284
  111MOL    C7037690   7.803   6.721   4.524 -0.2544 -0.7029 -0.3232
  111MOL    C7137691   7.936   6.760   4.442  0.2788 -0.0373 -0.1846
  111MOL    C7237692   0.008   6.821   4.506 -0.0445  0.3625  0.4329
  111MOL    C7337693   0.118   6.868   4.439 -0.4527  0.9527  0.3264
  111MOL    C7437694   0.122   6.869   4.301  0.4686  0.6109 -0.0105
  111MOL    O7537695   0.229   6.927   4.234  0.3032  0.1956  0.4554
  111MOL    C7637696   0.013   6.814   4.225 -0.3293 -0.2032 -0.0332
  111MOL    C7737697   7.941   6.752   4.297 -0.2721  0.6998  0.1793
  111MOL    C7837698   7.759   6.577   4.495 -0.3823 -0.5621  0.3941
  111MOL    H7937699   7.827   6.740   4.629  3.2941  0.2256 -1.2372
  111MOL    H8037700   0.005   6.824   4.614  0.0172  0.3641  0.4343
  111MOL    H8137701   0.202   6.906   4.495  2.1794 -1.7959 -1.6287
  111MOL    H8237702   0.201   6.936   4.144  2.6375 -0.0269 -0.3119
  111MOL    H8337703   0.026   6.813   4.118  0.4119  1.0804  0.0369
  111MOL    H8437704   7.871   6.698   4.235  0.7392 -0.6747  0.1932
  111MOL    H8537705   7.835   6.499   4.486  0.2641  0.1177 -0.0037
  111MOL    H8637706   7.713   6.595   4.398  0.6278 -1.7903 -0.3313
  111MOL    C8737707   7.645   6.513   4.579 -0.6394  0.0981 -0.2601
  111MOL    C8837708   7.692   6.465   4.718 -0.4091  0.2639  0.2988
  111MOL    C8937709   7.765   6.344   4.729  0.4810 -0.5204 -0.6998
  111MOL    C9037710   7.800   6.296   4.857  0.0536  0.1192 -0.4960
  111MOL    C9137711   7.774   6.373   4.976 -0.0908 -0.3681  0.8880
  111MOL    O9237712   7.818   6.333   5.095 -0.2102 -0.1573  0.1219
  111MOL    C9337713   7.710   6.500   4.964  0.1199 -0.1814 -0.0199
  111MOL    C9437714   7.666   6.542   4.837  0.2787  0.3764 -0.5389
  111MOL    C9537715   7.564   6.400   4.518 -0.1301  0.1925  0.3537
  111MOL    H9637716   7.564   6.583   4.601 -1.1340  0.1390 -2.1704
  111MOL    H9737717   7.792   6.282   4.645  0.8573 -2.2507  0.6736
  111MOL    H9837718   7.848   6.200   4.860 -1.6458 -0.7264  1.6427
  111MOL    H9937719   7.866   6.253   5.081  0.9261  0.2225  1.7320
  111MOL   H10037720   7.680   6.557   5.051  0.4490  1.3600 -0.8959
  111MOL   H10137721   7.611   6.635   4.834 -2.5708 -1.1898  0.8866
  111MOL   H10237722   7.630   6.314   4.515 -0.5589 -0.1085 -1.5597
  111MOL   H10337723   7.482   6.376   4.586  0.1609  1.8622  1.3245
  111MOL   C10437724   7.504   6.430   4.379 -1.2792 -0.1752  0.5534
  111MOL   C10537725   7.452   6.574   4.359  0.9341 -0.1367  0.1750
  111MOL   C10637726   7.366   6.634   4.453 -0.0016 -0.8195 -0.2372
  111MOL   C10737727   7.310   6.760   4.416  0.4459  0.3027 -0.6076
  111MOL   C10837728   7.345   6.828   4.298  0.2080  0.4680 -0.5133
  111MOL   O10937729   7.289   6.947   4.269  0.7015 -0.4182  0.3883
  111MOL   C11037730   7.437   6.768   4.211  0.0568  0.2378  0.5856
  111MOL   C11137731   7.490   6.639   4.241  0.2630 -0.4000 -0.1188
  111MOL   C11237732   7.397   6.322   4.346  0.3244 -0.7674 -0.6441
  111MOL   H11337733   7.590   6.411   4.314 -1.1691  0.4963  0.4917
  111MOL   H11437734   7.339   6.583   4.545  0.0492  1.1429  0.8937
  111MOL   H11537735   7.232   6.805   4.475 -1.2308 -3.6335  0.3602
  111MOL   H11637736   7.278   6.971   4.179 -0.7985  2.1995  1.2180
  111MOL   H11737737   7.470   6.824   4.125 -1.4195  1.1401  0.5912
  111MOL   H11837738   7.551   6.592   4.165  0.3988  0.0638 -0.3019
  111MOL   H11937739   7.319   6.353   4.416  0.2168 -2.3628 -0.0519
  111MOL   H12037740   7.433   6.230   4.391 -0.2144 -1.6541 -2.0070
  111MOL   C12137741   7.362   6.298   4.194  0.0790  0.2280  0.0476
  111MOL   C12237742   7.377   6.152   4.161 -0.2874 -0.1070  0.1522
  111MOL   C12337743   7.465   6.098   4.064 -0.1100  0.2185  0.4466
  111MOL   C12437744   7.465   5.959   4.036  0.4961  0.0393  0.2032
  111MOL   C12537745   7.367   5.874   4.102 -0.9656  0.1245  0.3108
  111MOL   O12637746   7.362   5.743   4.079 -0.4303 -0.1455 -0.2612
  111MOL   C12737747   7.276   5.926   4.190 -0.1715  0.0880 -0.7469
  111MOL   C12837748   7.289   6.063   4.232 -0.5880  0.2164 -0.0702
  111MOL   C12937749   7.223   6.350   4.137  0.3842  0.1608  0.7297
  111MOL   H13037750   7.428   6.345   4.120 -1.5928 -0.3286 -1.8240
  111MOL   H13137751   7.532   6.165   4.012  0.2083 -1.4831 -1.4197
  111MOL   H13237752   7.533   5.925   3.960 -0.5943  0.2769 -0.8871
  111MOL   H13337753   7.326   5.695   4.152  1.0365 -0.1333  0.4846
  111MOL   H13437754   7.194   5.864   4.222  0.3096 -0.5448 -0.7416
  111MOL   H13537755   7.216   6.100   4.302  1.4179  0.4333  1.9638
  111MOL   H13637756   7.196   6.451   4.166 -2.8928 -0.5336  0.3470
  111MOL   H13737757   7.148   6.293   4.193  1.1026 -0.5744  0.9571
  111MOL   C13837758   7.193   6.337   3.980  0.3693 -0.1055  0.0725
  111MOL   C13937759   7.294   6.418   3.893 -0.3941  0.0423 -0.0185
  111MOL   C14037760   7.347   6.543   3.929 -0.5297 -0.6608 -0.4895
  111MOL   C14137761   7.453   6.599   3.854 -0.3310  0.3247 -0.4738
  111MOL   C14237762   7.515   6.532   3.750  0.3232 -0.3256  0.3428
  111MOL   O14337763   7.616   6.598   3.681  0.2657 -0.0663 -0.0187
  111MOL   C14437764   7.472   6.404   3.713 -0.1103 -0.5691  0.0561
  111MOL   C14537765   7.365   6.352   3.787  0.0359 -0.1887 -0.3053
  111MOL   C14637766   7.045   6.366   3.938 -0.1348  0.6452 -0.3529
  111MOL   H14737767   7.211   6.233   3.956 -0.5401 -0.6501  1.6973
  111MOL   H14837768   7.293   6.590   4.009 -2.1107 -0.4137 -1.6713
  111MOL   H14937769   7.484   6.699   3.881  2.9762 -0.8839  0.3862
  111MOL   H15037770   7.628   6.557   3.596 -1.9334 -2.3011  0.6756
  111MOL   H15137771   7.525   6.351   3.636  0.5870  1.3194 -0.7898
  111MOL   H15237772   7.328   6.252   3.766  1.5511 -0.9304  0.5042
  111MOL   H15337773   7.014   6.469   3.956 -3.0951 -0.7548  3.1139
  111MOL   H15437774   6.996   6.323   4.024  1.3430  1.0427  0.7125
  111MOL   C15537775   6.988   6.288   3.813 -0.3275  0.0910  0.0109
  111MOL   C15637776   7.018   6.335   3.671 -0.4268 -0.2542 -0.0827
  111MOL   C15737777   7.019   6.244   3.559 -0.5434 -0.7245  0.3252
  111MOL   C15837778   7.038   6.293   3.427 -0.7754 -0.4930  0.5583
  111MOL   C15937779   7.044   6.431   3.409 -0.3409 -0.4149 -0.6559
  111MOL   O16037780   7.017   6.479   3.288  0.0902  0.2074 -0.1098
  111MOL   C16137781   7.049   6.517   3.520  0.2734 -0.4281 -0.4681
  111MOL   C16237782   7.051   6.467   3.648  0.9582  0.5426  0.1006
  111MOL   C16337783   6.837   6.275   3.812  0.0477  0.0606 -0.0505
  111MOL   H16437784   7.038   6.191   3.809  1.9112  1.2376 -1.1125
  111MOL   H16537785   6.997   6.139   3.572 -0.9404 -0.3973  2.4648
  111MOL   H16637786   7.013   6.229   3.343 -2.0339  0.4968  0.1719
  111MOL   H16737787   7.029   6.572   3.278 -1.3945  0.4453  0.3241
  111MOL   H16837788   7.042   6.624   3.512 -0.0827 -0.1438  3.0414
  111MOL   H16937789   7.061   6.546   3.722 -1.2239 -0.1568  1.1826
  111MOL   H17037790   6.814   6.227   3.717 -1.4361  1.1798 -0.2634
  111MOL   H17137791   6.779   6.367   3.807 -2.1388 -1.2265  0.8624
  111MOL   C17237792   6.777   6.184   3.925 -0.0736 -1.2819  0.1747
  111MOL   C17337793   6.836   6.047   3.920  0.5606  0.1303  0.1207
  111MOL   C17437794   6.909   5.993   4.029 -0.8859 -0.1409  0.3061
  111MOL   C17537795   6.963   5.857   4.026 -0.5002  0.2778  0.1545
  111MOL   C17637796   6.937   5.785   3.908 -0.7680  0.3145 -0.2181
  111MOL   O17737797   6.979   5.650   3.911 -0.1941 -0.3184 -0.6768
  111MOL   C17837798   6.864   5.836   3.798 -0.1893 -0.3714  0.0874
  111MOL   C17937799   6.816   5.970   3.806 -0.0129  0.5120 -0.4147
  111MOL   C18037800   6.619   6.186   3.901 -0.4800  0.4235 -0.3891
  111MOL   H18137801   6.789   6.228   4.024 -0.4132  0.1854 -0.4233
  111MOL   H18237802   6.908   6.049   4.122  1.8865  1.4971 -0.5778
  111MOL   H18337803   7.025   5.821   4.107  0.8284 -1.2350 -1.4774
  111MOL   H18437804   7.005   5.632   4.001  0.3582  0.2221 -0.7213
  111MOL   H18537805   6.853   5.770   3.714 -2.0357  0.9052 -0.7164
  111MOL   H18637806   6.767   6.011   3.719 -1.5992 -1.4989 -0.4947
  111MOL   H18737807   6.596   6.195   3.795  1.1185  0.1697 -0.7717
  111MOL   H18837808   6.582   6.278   3.946 -0.9873 -0.1033  0.2797
  111MOL   C18937809   6.535   6.067   3.948 -0.2879  0.4551  0.6752
  111MOL   C19037810   6.576   6.008   4.082 -0.2905 -0.7383  0.3545
  111MOL   C19137811   6.623   5.876   4.103 -0.6132  0.6136  0.1582
  111MOL   C19237812   6.680   5.835   4.229  0.5185  0.4166  0.2007
  111MOL   C19337813   6.673   5.923   4.335 -0.3552  0.4737 -0.1094
  111MOL   O19437814   6.733   5.892   4.449  0.0600 -0.3057 -0.0563
  111MOL   C19537815   6.620   6.056   4.323  0.9896 -0.2591  0.2986
  111MOL   C19637816   6.576   6.097   4.193 -0.2153  0.3403 -0.1383
  111MOL   C19737817   6.381   6.111   3.940  0.3225  0.2692  0.3407
  111MOL   H19837818   6.550   5.983   3.880  0.9489  1.2952 -0.1127
  111MOL   H19937819   6.607   5.800   4.027 -0.5139  0.1255  0.6251
  111MOL   H20037820   6.708   5.735   4.260 -0.6223  0.4882  1.5329
  111MOL   H20137821   6.678   5.861   4.519 -0.5642  0.6416 -0.1249
  111MOL   H20237822   6.611   6.124   4.407  0.5802  0.2684 -0.1666
  111MOL   H20337823   6.538   6.198   4.184 -3.1960 -0.8400 -1.7461
  111MOL   H20437824   6.368   6.149   3.839  1.4777  1.6477  0.6869
  111MOL   H20537825   6.358   6.192   4.009 -0.7429 -0.3062  0.6774
  111MOL   C20637826   6.288   5.991   3.970  0.0467  0.5129  0.2455
  111MOL   C20737827   6.301   5.889   3.858  0.1033 -0.2930  0.1862
  111MOL   C20837828   6.298   5.918   3.720  0.6562  0.6303 -0.7850
  111MOL   C20937829   6.319   5.812   3.624 -0.0704  0.1787  0.5750
  111MOL   C21037830   6.376   5.695   3.661 -0.2843  0.0071 -0.2838
  111MOL   O21137831   6.415   5.606   3.564  0.2558  0.0139 -0.4636
  111MOL   C21237832   6.385   5.670   3.800  0.5229  0.2272  0.0315
  111MOL   C21337833   6.344   5.762   3.897  0.1019 -0.5390  0.5921
  111MOL   C21437834   6.143   6.021   3.982 -0.5318 -0.1191  0.2565
  111MOL   H21537835   6.322   5.951   4.065  0.0501  0.4440  0.2157
  111MOL   H21637836   6.275   6.020   3.692 -2.0542  0.3299  0.1277
  111MOL   H21737837   6.298   5.832   3.520  1.2283 -1.4136 -0.0094
  111MOL   H21837838   6.495   5.557   3.576 -0.0680  0.1844  2.9079
  111MOL   H21937839   6.427   5.573   3.824 -0.2581  0.0586  0.7806
  111MOL   H22037840   6.355   5.747   4.003 -0.3162  0.4779  0.7767
  111MOL   H22137841   6.091   5.925   3.982 -0.5526 -0.1192 -1.3944
  111MOL   H22237842   6.106   6.071   3.893 -1.3966  0.8593  1.1471
  111MOL   C22337843   6.122   6.107   4.111 -0.6592  0.1167 -0.4321
  111MOL   C22437844   6.159   6.038   4.242 -0.4287 -0.4109  0.7899
  111MOL   C22537845   6.145   5.897   4.257 -0.5216  0.1121 -0.8827
  111MOL   C22637846   6.171   5.836   4.385  0.2401 -0.0913 -0.3665
  111MOL   C22737847   6.212   5.915   4.496 -0.3756 -0.2584 -0.2944
  111MOL   O22837848   6.240   5.849   4.611 -0.1733 -0.0790  0.4081
  111MOL   C22937849   6.229   6.053   4.482  0.0411 -0.6849 -0.0395
  111MOL   C23037850   6.200   6.114   4.357 -0.1552 -0.6377 -0.1042
  111MOL   C23137851   5.978   6.166   4.105 -0.3506  0.3295 -0.0219
  111MOL   H23237852   6.180   6.199   4.106 -0.1696 -0.2290 -1.1553
  111MOL   H23337853   6.136   5.833   4.170 -0.1958 -0.4105 -0.5326
  111MOL   H23437854   6.175   5.729   4.402  2.0384  0.0080 -0.0354
  111MOL   H23537855   6.178   5.777   4.611  0.4829 -0.6631 -1.0140
  111MOL   H23637856   6.266   6.105   4.569  0.0762 -0.8716  0.0568
  111MOL   H23737857   6.216   6.220   4.347 -0.5186 -0.6663 -1.0875
  111MOL   H23837858   5.946   6.180   4.002 -2.2142  2.5631  0.8287
  111MOL   H23937859   5.922   6.089   4.158  0.5970  0.3552  1.0362
  111MOL   C24037860   5.957   6.297   4.175  0.3419 -0.1194 -0.5850
  111MOL   C24137861   6.025   6.418   4.108 -0.1379  0.1100 -0.0288
  111MOL   C24237862   6.018   6.433   3.968  0.2959  0.2739  0.0717
  111MOL   C24337863   6.084   6.539   3.908  0.1141  0.0045  0.2397
  111MOL   C24437864   6.154   6.634   3.988 -0.3629  0.4111 -1.2918
  111MOL   O24537865   6.214   6.737   3.926 -0.0086 -0.1787  0.4258
  111MOL   C24637866   6.163   6.620   4.125 -0.1246  0.5039  0.7152
  111MOL   C24737867   6.093   6.511   4.183 -0.7418 -0.1037  0.1271
  111MOL   C24837868   5.809   6.315   4.211 -0.4702 -0.0323 -0.2456
  111MOL   H24937869   6.003   6.286   4.273 -1.4843  0.9959  0.4314
  111MOL   H25037870   5.937   6.382   3.917  1.6673  0.7148 -2.6325
  111MOL   H25137871   6.078   6.549   3.800  1.0594 -1.3386  0.0481
  111MOL   H25237872   6.243   6.807   3.982 -1.2622 -0.0315  0.9171
  111MOL   H25337873   6.215   6.687   4.192  0.8008  1.1580 -0.6333
  111MOL   H25437874   6.104   6.513   4.291 -0.7903  0.5733  0.1224
  111MOL   H25537875   5.805   6.422   4.230  1.6112 -0.0778  0.5531
  111MOL   H25637876   5.754   6.292   4.119 -0.1572  1.0421 -0.7127
  111MOL   C25737877   5.733   6.234   4.325  0.3350 -0.0591 -0.2781
  111MOL   C25837878   5.815   6.239   4.452 -0.2906 -0.0179 -0.7200
  111MOL   C25937879   5.847   6.363   4.514 -0.8873 -0.4086 -0.1313
  111MOL   C26037880   5.924   6.357   4.633  0.5014  0.8391 -0.2756
  111MOL   C26137881   5.986   6.240   4.679  0.5610 -0.2187 -0.2728
  111MOL   O26237882   6.077   6.233   4.784  0.1096  0.2727  0.0460
  111MOL   C26337883   5.943   6.123   4.623  0.1976 -0.1649  0.1581
  111MOL   C26437884   5.864   6.123   4.514 -0.1729  0.2785  0.2828
  111MOL   C26537885   5.597   6.285   4.361 -0.5982  0.4369 -0.2682
  111MOL   H26637886   5.734   6.130   4.292  0.9604  0.2586 -1.2808
  111MOL   H26737887   5.817   6.458   4.473 -1.6611 -0.4556  0.3209
  111MOL   H26837888   5.957   6.448   4.681 -0.7365  1.2022 -0.1028
  111MOL   H26937889   6.109   6.318   4.813  0.4840  0.8583 -1.9870
  111MOL   H27037890   5.982   6.032   4.665  0.2577 -0.9036 -1.4655
  111MOL   H27137891   5.830   6.029   4.473 -0.1857  0.4549 -0.1096
  111MOL   H27237892   5.599   6.392   4.340  0.1829  0.6033  0.5984
  111MOL   H27337893   5.579   6.282   4.469  2.2536  0.8915  0.2689
  111MOL   C27437894   5.487   6.210   4.275  0.3699  0.1202  0.8648
  111MOL   C27537895   5.375   6.305   4.267  0.1146 -0.4483  0.1650
  111MOL   C27637896   5.360   6.375   4.146 -0.0449 -0.0215 -0.2061
  111MOL   C27737897   5.256   6.472   4.133  0.5749  0.0958  0.1645
  111MOL   C27837898   5.161   6.482   4.230 -0.2826  0.2129 -0.5132
  111MOL   O27937899   5.052   6.560   4.221  0.4505 -0.3495  0.1934
  111MOL   C28037900   5.173   6.403   4.348 -0.4033 -0.6353 -0.4238
  111MOL   C28137901   5.287   6.326   4.374 -0.1684  0.4730 -0.2270
  111MOL   C28237902   5.438   6.074   4.326  0.1175 -0.2139  0.4436
  111MOL   H28337903   5.531   6.192   4.177 -1.8320 -0.8358  0.0262
  111MOL   H28437904   5.433   6.373   4.066  0.0897  2.8215 -0.2332
  111MOL   H28537905   5.247   6.537   4.047  1.9303 -1.0106 -0.8249
  111MOL   H28637906   4.980   6.560   4.283 -0.2732  0.3723 -0.6296
  111MOL   H28737907   5.090   6.408   4.417  0.5323 -0.7835  0.7102
  111MOL   H28837908   5.302   6.278   4.470  3.7936  0.0379 -0.9626
  111MOL   H28937909   5.425   6.089   4.433 -0.7288  0.8396  0.2039
  111MOL   H29037910   5.340   6.054   4.282 -0.3108 -0.5837  1.5311
  111MOL   C29137911   5.535   5.952   4.297  0.1589  0.1302  0.6384
  111MOL   C29237912   5.588   5.929   4.161  0.1408  0.0212 -0.6618
  111MOL   C29337913   5.510   5.952   4.044  0.2823 -0.0393 -0.0693
  111MOL   C29437914   5.567   5.916   3.918  0.7316 -1.4231 -1.2941
  111MOL   C29537915   5.701   5.874   3.908 -0.2535  0.0563  0.1232
  111MOL   O29637916   5.753   5.844   3.784 -0.7352  0.4323 -0.6944
  111MOL   C29737917   5.785   5.875   4.019 -0.3422  0.0364  0.7129
  111MOL   C29837918   5.724   5.897   4.145  0.9577  0.1361 -0.8829
  111MOL   C29937919   5.470   5.821   4.345 -0.4562 -0.8888  0.3930
  111MOL   H30037920   5.623   5.968   4.359 -0.2417  1.0907  0.9597
  111MOL   H30137921   5.405   5.976   4.054  0.4102  0.9786 -1.1289
  111MOL   H30237922   5.502   5.914   3.832 -0.4982 -0.1437 -0.4208
  111MOL   H30337923   5.837   5.801   3.784 -1.0134 -0.1621 -2.9368
  111MOL   H30437924   5.889   5.848   4.006 -0.7927 -0.4632 -2.3058
  111MOL   H30537925   5.781   5.888   4.237 -0.7145  0.6035  0.2067
  111MOL   H30637926   5.513   5.736   4.292  0.6115 -0.7423  1.0183
  111MOL   H30737927   5.365   5.821   4.316  0.3743  0.6545 -2.8601
  111MOL   C30837928   5.480   5.791   4.503 -0.0996  0.1991  0.3509
  111MOL   C30937929   5.619   5.748   4.549 -0.0529  0.3437  0.5991
  111MOL   C31037930   5.651   5.750   4.687 -0.9308 -0.7059  0.3222
  111MOL   C31137931   5.784   5.719   4.732 -0.0214  0.0550 -0.1681
  111MOL   C31237932   5.881   5.678   4.642  0.3035  0.0094  0.8643
  111MOL   O31337933   6.009   5.662   4.680 -0.2572 -0.0854 -0.2230
  111MOL   C31437934   5.852   5.677   4.503  0.5453  0.0514 -0.6484
  111MOL   C31537935   5.723   5.722   4.461 -0.6677 -0.5837  0.1588
  111MOL   C31637936   5.365   5.694   4.548  0.2607  0.0303 -0.1158
  111MOL   H31737937   5.476   5.889   4.552  3.2981  0.3363  0.5190
  111MOL   H31837938   5.579   5.786   4.759 -2.1015 -0.1224 -1.1055
  111MOL   H31937939   5.807   5.724   4.837  0.7387 -0.7741 -0.2926
  111MOL   H32037940   6.013   5.636   4.771 -0.4137 -2.3473 -0.8482
  111MOL   H32137941   5.937   5.662   4.439 -0.8192 -0.0514 -2.4672
  111MOL   H32237942   5.696   5.714   4.357  0.4827 -2.1624 -0.0352
  111MOL   H32337943   5.278   5.760   4.551 -0.6097 -1.1501  1.3064
  111MOL   H32437944   5.378   5.684   4.656  0.7473 -1.3749 -0.2949
  111MOL   C32537945   5.330   5.566   4.458 -0.5280 -0.0270  0.4525
  111MOL   C32637946   5.202   5.495   4.504  0.3110  0.5175  0.0752
  111MOL   C32737947   5.079   5.527   4.449  0.4438 -0.2547  0.4418
  111MOL   C32837948   4.963   5.458   4.488  0.6443 -0.4839 -0.6966
  111MOL   C32937949   4.974   5.359   4.588  0.4467  0.3118 -0.5365
  111MOL   O33037950   4.869   5.292   4.637  0.1159 -0.5598 -0.0156
  111MOL   C33137951   5.101   5.325   4.640 -0.4973  0.7230 -0.5974
  111MOL   C33237952   5.213   5.390   4.598  0.9044  0.0289  0.5004
  111MOL   C33337953   5.450   5.466   4.435  0.1476  0.1234 -1.0933
  111MOL   H33437954   5.308   5.594   4.355 -1.4005 -0.1386  0.6082
  111MOL   H33537955   5.088   5.606   4.376  0.5836 -0.6502  0.0272
  111MOL   H33637956   4.872   5.488   4.438 -0.9795  1.5217  3.1933
  111MOL   H33737957   4.907   5.206   4.649 -0.2303 -1.1588 -2.8896
  111MOL   H33837958   5.102   5.255   4.722 -2.2373 -1.2703 -2.1989
  111MOL   H33937959   5.306   5.366   4.647  0.3139  0.5299  1.8807
  111MOL   H34037960   5.422   5.369   4.393  0.7035 -0.7315  0.4426
  111MOL   H34137961   5.497   5.445   4.531 -0.8847  0.2977 -0.5525
  111MOL   H34237962   5.531   5.506   4.373 -0.4054  3.5593  0.3306
  112MOL     C137963   6.243   7.591   5.183  0.1853  0.6919  0.0383
  112MOL     C237964   6.302   7.613   5.326 -0.2044 -0.0538  0.3025
  112MOL     C337965   6.243   7.557   5.442 -0.4767 -0.2042 -0.4433
  112MOL     C437966   6.306   7.569   5.568 -0.9747 -0.0332  0.3592
  112MOL     C537967   6.422   7.647   5.579 -0.3074  0.5935  1.1462
  112MOL     O637968   6.475   7.685   5.698  0.4368 -0.0692  0.4017
  112MOL     C737969   6.487   7.697   5.460  0.2191  0.2479 -0.4772
  112MOL     C837970   6.425   7.684   5.338 -0.0204  0.4396  0.3069
  112MOL     C937971   6.089   7.610   5.174  0.1159 -0.0506  0.3153
  112MOL    H1037972   6.297   7.657   5.115  2.3145  0.4278  1.4073
  112MOL    H1137973   6.160   7.489   5.433 -0.3055 -0.6090  0.9793
  112MOL    H1237974   6.259   7.527   5.656  0.9854 -0.4071  1.2491
  112MOL    H1337975   6.523   7.766   5.687 -1.0245  0.5920 -1.3549
  112MOL    H1437976   6.581   7.750   5.458 -1.2176  2.8450 -1.4555
  112MOL    H1537977   6.479   7.717   5.251 -1.0126 -0.6899 -0.7676
  112MOL    H1637978   6.055   7.690   5.239 -0.5741  0.4999 -0.7148
  112MOL    H1737979   6.052   7.521   5.225  2.5584 -0.7172  1.0077
  112MOL    H1837980   6.275   7.496   5.141  0.7536  1.1049 -0.4682
  112MOL    C1937981   6.022   7.614   5.035  0.0138  0.1787  0.6426
  112MOL    C2037982   6.086   7.723   4.951 -0.4460 -0.4862  0.1314
  112MOL    C2137983   6.057   7.864   4.964 -0.2076  0.3016  0.3306
  112MOL    C2237984   6.127   7.962   4.885  0.0541  0.6337 -0.2881
  112MOL    C2337985   6.236   7.930   4.805  0.5301 -0.4213 -0.2162
  112MOL    O2437986   6.307   8.031   4.741  0.4475 -0.6269  0.1972
  112MOL    C2537987   6.265   7.792   4.788  0.0245  0.9296 -0.3573
  112MOL    C2637988   6.188   7.689   4.852 -0.3624 -0.3246 -0.1183
  112MOL    C2737989   5.868   7.633   5.040 -0.0775 -0.6522 -0.3235
  112MOL    H2837990   6.051   7.517   4.995  0.9206  0.1878  1.2604
  112MOL    H2937991   5.989   7.899   5.040  0.2460  0.2381  0.7677
  112MOL    H3037992   6.096   0.026   4.905 -0.0531  0.0544  2.7292
  112MOL    H3137993   6.389   8.004   4.702 -0.0925 -2.2008  0.1432
  112MOL    H3237994   6.342   7.771   4.715 -1.0562  0.2170 -1.3145
  112MOL    H3337995   6.215   7.587   4.828 -1.2940  0.0590 -2.8864
  112MOL    H3437996   5.834   7.701   4.963 -3.6598 -1.3794  0.5341
  112MOL    H3537997   5.856   7.693   5.130 -1.9414 -0.6325 -0.5613
  112MOL    C3637998   5.793   7.498   5.037  0.0705 -0.1796  0.0184
  112MOL    C3737999   5.781   7.441   4.899 -0.0456  0.5262 -0.1172
  112MOL    C3838000   5.757   7.523   4.779 -0.1457 -0.4074  0.8162
  112MOL    C3938001   5.737   7.455   4.656 -0.2969  0.5515  0.5894
  112MOL    C4038002   5.745   7.317   4.643  0.0847 -0.7890 -0.0447
  112MOL    O4138003   5.729   7.269   4.519  0.3003  0.1200 -0.0267
  112MOL    C4238004   5.777   7.244   4.760  0.2010  0.4293  0.0927
  112MOL    C4338005   5.787   7.303   4.885  0.6349  0.2986 -0.1001
  112MOL    C4438006   5.655   7.514   5.110  0.0554  0.3748 -0.2373
  112MOL    H4538007   5.848   7.432   5.104 -1.2725 -0.3105  0.9982
  112MOL    H4638008   5.741   7.630   4.785 -1.6263 -0.4763 -1.2210
  112MOL    H4738009   5.717   7.510   4.565  0.0652 -1.3231 -0.6442
  112MOL    H4838010   5.706   7.179   4.534 -0.0540  0.1689 -0.2825
  112MOL    H4938011   5.789   7.138   4.744  0.6800  0.5075 -0.0687
  112MOL    H5038012   5.804   7.245   4.974  0.9047  0.0584 -0.3096
  112MOL    H5138013   5.671   7.559   5.208 -1.7347  1.6142 -0.4846
  112MOL    H5238014   5.595   7.575   5.044 -0.3806 -1.6478 -1.7638
  112MOL    C5338015   5.569   7.385   5.136 -0.3159  0.3847  0.0915
  112MOL    C5438016   5.638   7.280   5.218  0.5073 -0.1619  0.9762
  112MOL    C5538017   5.702   7.311   5.341 -0.6240 -0.2074 -0.2659
  112MOL    C5638018   5.752   7.207   5.420  0.3958 -0.1160 -0.4775
  112MOL    C5738019   5.732   7.071   5.384 -0.6373  0.1666 -0.2779
  112MOL    O5838020   5.776   6.973   5.476  0.0182 -0.8577  0.5053
  112MOL    C5938021   5.672   7.043   5.261 -0.9059  0.0308 -0.0034
  112MOL    C6038022   5.626   7.147   5.176  0.7637 -0.2887 -0.2401
  112MOL    C6138023   5.428   7.407   5.195 -0.0730  0.5267 -0.4344
  112MOL    H6238024   5.552   7.342   5.037  0.4037 -0.4522  0.3281
  112MOL    H6338025   5.702   7.412   5.378  1.5382 -0.6241  0.9697
  112MOL    H6438026   5.792   7.238   5.515 -1.5854  0.2669  0.2679
  112MOL    H6538027   5.784   7.019   5.559 -1.7551 -0.4994  0.4991
  112MOL    H6638028   5.662   6.938   5.237  0.8902  0.2041 -1.6801
  112MOL    H6738029   5.570   7.113   5.091 -0.4666  0.2263  0.3534
  112MOL    H6838030   5.380   7.496   5.156 -0.7179 -0.3778 -1.7538
  112MOL    H6938031   5.451   7.442   5.296 -0.0640  0.1808 -0.3162
  112MOL    C7038032   5.322   7.292   5.188  0.3891 -0.2578  0.5412
  112MOL    C7138033   5.256   7.281   5.050 -0.5004 -0.4482 -0.3542
  112MOL    C7238034   5.231   7.147   5.001 -0.6793  0.1630  0.5065
  112MOL    C7338035   5.163   7.140   4.875 -1.2547 -0.3834  0.4626
  112MOL    C7438036   5.119   7.259   4.809  0.3476 -0.5605 -0.5455
  112MOL    O7538037   5.050   7.250   4.692  0.3331  0.3201 -0.1841
  112MOL    C7638038   5.140   7.385   4.864  0.0826  0.4271  0.0477
  112MOL    C7738039   5.212   7.399   4.980 -0.4296 -0.1558  0.2832
  112MOL    C7838040   5.209   7.318   5.291  0.1195  0.2630 -0.3766
  112MOL    H7938041   5.365   7.198   5.225 -0.5809 -2.0522 -2.7498
  112MOL    H8038042   5.254   7.055   5.052 -1.0487  0.3315  0.9837
  112MOL    H8138043   5.159   7.039   4.837  0.7978 -0.8492  1.3868
  112MOL    H8238044   5.066   7.166   4.654  2.8018  0.6114  0.1647
  112MOL    H8338045   5.104   7.467   4.803  1.6898 -1.1491 -3.1435
  112MOL    H8438046   5.235   7.495   5.025 -1.1311 -0.3797  1.1387
  112MOL    H8538047   5.109   7.334   5.251 -1.1550  3.8801  3.9323
  112MOL    H8638048   5.217   7.421   5.324 -3.6220  0.3049  0.5884
  112MOL    C8738049   5.217   7.236   5.420 -0.0595  0.5298  0.6384
  112MOL    C8838050   5.176   7.089   5.398 -0.2642 -0.7082  0.1589
  112MOL    C8938051   5.269   6.987   5.414 -0.1690 -0.3048 -0.4272
  112MOL    C9038052   5.239   6.855   5.382 -0.8867  0.5155  0.5159
  112MOL    C9138053   5.112   6.823   5.327  0.7048  0.0553 -0.1695
  112MOL    O9238054   5.081   6.699   5.278  0.0797  0.0351  0.4082
  112MOL    C9338055   5.015   6.921   5.331 -0.3101 -0.2336  0.2237
  112MOL    C9438056   5.048   7.056   5.355  0.5586 -0.2641 -0.2526
  112MOL    C9538057   5.136   7.303   5.543 -0.5571  0.4158  0.0728
  112MOL    H9638058   5.323   7.239   5.447  0.3349  3.5619 -1.0636
  112MOL    H9738059   5.366   7.014   5.452  0.2184 -0.1517 -1.5078
  112MOL    H9838060   5.318   6.781   5.379  0.5352  1.9737  1.2882
  112MOL    H9938061   5.151   6.638   5.295 -0.7923 -0.8728  0.8667
  112MOL   H10038062   4.915   6.895   5.300 -0.6410  1.4276 -0.1706
  112MOL   H10138063   4.975   7.136   5.350  0.7032  0.0321  1.7973
  112MOL   H10238064   5.035   7.327   5.511 -0.3113  1.1442 -0.1480
  112MOL   H10338065   5.123   7.228   5.622  1.6406  0.5656  0.6057
  112MOL   C10438066   5.199   7.420   5.624  0.7037 -0.2926  0.5216
  112MOL   C10538067   5.345   7.410   5.654 -0.1668 -0.4174 -0.1861
  112MOL   C10638068   5.435   7.495   5.588 -0.7047 -0.5079  0.0816
  112MOL   C10738069   5.571   7.483   5.613 -0.2756 -0.5023  0.0576
  112MOL   C10838070   5.618   7.386   5.703 -0.0343  0.6318  0.0554
  112MOL   O10938071   5.747   7.383   5.742  0.0052  0.5232  0.3861
  112MOL   C11038072   5.531   7.302   5.768 -0.9757  0.1751  0.5040
  112MOL   C11138073   5.393   7.322   5.748 -0.4264  0.2644  0.3148
  112MOL   C11238074   5.110   7.438   5.750  0.5728  0.2062  0.1200
  112MOL   H11338075   5.192   7.502   5.553  0.9331 -1.2001 -0.5762
  112MOL   H11438076   5.402   7.575   5.522 -1.4506 -0.0441  1.0026
  112MOL   H11538077   5.640   7.552   5.568 -0.3211  0.0648  0.8458
  112MOL   H11638078   5.792   7.461   5.715 -0.4181 -0.1396 -2.3979
  112MOL   H11738079   5.562   7.220   5.831 -0.8400  0.0252  0.2454
  112MOL   H11838080   5.323   7.256   5.797 -1.8686  1.2871 -0.3118
  112MOL   H11938081   5.119   7.368   5.833 -2.2882 -0.4909 -0.0924
  112MOL   H12038082   5.007   7.424   5.717  0.5536 -1.8845  0.9478
  112MOL   C12138083   5.115   7.583   5.810  0.4631 -0.0831 -0.1049
  112MOL   C12238084   4.977   7.614   5.870  0.1823 -0.7109 -0.4227
  112MOL   C12338085   4.890   7.702   5.805 -0.3769  0.7594 -0.0585
  112MOL   C12438086   4.764   7.743   5.857 -0.4553  0.3328 -0.9527
  112MOL   C12538087   4.728   7.691   5.982 -0.0241  0.2576  0.2627
  112MOL   O12638088   4.618   7.749   6.041 -0.1319  0.7270  0.1018
  112MOL   C12738089   4.809   7.592   6.041  0.2279  0.4410  0.2442
  112MOL   C12838090   4.935   7.561   5.993  0.2157  0.3378  0.6440
  112MOL   C12938091   5.233   7.617   5.907 -0.1699 -0.8776 -0.0311
  112MOL   H13038092   5.120   7.657   5.730  0.5856 -0.3380 -0.3350
  112MOL   H13138093   4.919   7.740   5.708  0.6001 -0.7261 -0.3520
  112MOL   H13238094   4.687   7.807   5.815  0.7046  3.1531  1.0029
  112MOL   H13338095   4.595   7.709   6.124  0.8832 -0.0066  0.0427
  112MOL   H13438096   4.779   7.549   6.136 -1.7912  0.3875 -0.4086
  112MOL   H13538097   4.994   7.487   6.047  1.4984  0.5442 -0.4478
  112MOL   H13638098   5.327   7.576   5.872 -0.2980 -0.6884 -0.5981
  112MOL   H13738099   5.207   7.578   6.006  0.1348 -1.9463 -0.3669
  112MOL   C13838100   5.250   7.771   5.937  0.1213 -0.0739 -0.2142
  112MOL   C13938101   5.313   7.833   5.813 -0.5449  0.0743  0.2046
  112MOL   C14038102   5.448   7.801   5.770  0.0701  0.1395  0.5686
  112MOL   C14138103   5.511   7.856   5.659 -0.0744  0.0020  0.9038
  112MOL   C14238104   5.437   7.951   5.591  0.2278  0.5062 -0.2418
  112MOL   O14338105   5.493   8.009   5.485  0.1239 -0.8615 -0.3089
  112MOL   C14438106   5.303   7.979   5.627  1.0413  0.5287 -0.3193
  112MOL   C14538107   5.241   7.919   5.736  0.4150  1.0390  0.2465
  112MOL   C14638108   5.331   7.821   6.065  0.2816  0.0106  0.6961
  112MOL   H14738109   5.151   7.814   5.952 -0.1684 -0.1890 -1.7183
  112MOL   H14838110   5.506   7.730   5.827  1.3690  2.0573  1.6761
  112MOL   H14938111   5.615   7.844   5.633 -0.0165 -1.2976  1.7181
  112MOL   H15038112   5.461   7.961   5.410  3.5990 -0.7319 -1.9981
  112MOL   H15138113   5.252   0.018   5.570  0.4551  0.4039  0.0357
  112MOL   H15238114   5.144   7.954   5.768  0.5136  0.8685  0.7371
  112MOL   H15338115   5.434   7.788   6.051 -0.9673 -3.1020 -1.6951
  112MOL   H15438116   5.297   7.765   6.152  2.0746 -0.7262  0.9425
  112MOL   C15538117   5.333   7.967   6.130 -0.2401  0.4558  0.3229
  112MOL   C15638118   5.190   7.995   6.172  0.3140  0.6039 -0.3810
  112MOL   C15738119   5.157   7.989   6.308 -0.0881 -0.6548 -0.1803
  112MOL   C15838120   5.026   8.001   6.352  0.3353  0.6857 -0.6634
  112MOL   C15938121   4.929   8.035   6.257  0.1261 -0.0219  1.2949
  112MOL   O16038122   4.795   0.018   6.287 -0.1385  0.4544  0.7337
  112MOL   C16138123   4.962   0.016   6.119  0.4597 -0.4617  0.3220
  112MOL   C16238124   5.093   8.033   6.081 -0.6146  0.1275  0.6061
  112MOL   C16338125   5.411   0.041   6.052  0.3802 -0.8128  0.0282
  112MOL   H16438126   5.384   7.941   6.222  1.6163 -0.5978 -0.9682
  112MOL   H16538127   5.238   7.964   6.376 -1.3993 -0.7859  1.3551
  112MOL   H16638128   4.997   7.991   6.455  1.4576 -0.7919 -0.4649
  112MOL   H16738129   4.738   8.031   6.216 -0.4220 -1.7059  1.6927
  112MOL   H16838130   4.880   0.048   6.056  1.5493  0.3507 -0.7163
  112MOL   H16938131   5.123   0.017   5.979 -2.9860 -1.0890 -0.3974
  112MOL   H17038132   5.376   0.131   6.102  0.6125 -1.1088  0.7272
  112MOL   H17138133   5.372   0.053   5.951  2.2072 -0.3458 -0.6355
  112MOL   C17238134   5.560   0.045   6.082  0.2696  0.2719  0.9759
  112MOL   C17338135   5.601   0.182   6.132  0.1982 -0.4515 -0.4305
  112MOL   C17438136   5.613   0.193   6.270  0.0877 -0.4550  0.3080
  112MOL   C17538137   5.619   0.321   6.325  0.2611 -1.0449  0.1786
  112MOL   C17638138   5.617   0.435   6.241 -0.2449 -0.9542  0.8470
  112MOL   O17738139   5.631   0.563   6.293 -0.3357 -0.2485  0.4532
  112MOL   C17838140   5.598   0.421   6.104  0.3685  0.1082 -0.3476
  112MOL   C17938141   5.594   0.297   6.052  0.0576  0.3424  0.1665
  112MOL   C18038142   5.646   0.007   5.953  1.0933  0.1376  1.1354
  112MOL   H18138143   5.580   8.010   6.161  1.5915  0.4011  0.7750
  112MOL   H18238144   5.620   0.110   6.338  0.3210  0.1408  1.0121
  112MOL   H18338145   5.613   0.335   6.432  4.4779  2.5809  0.0570
  112MOL   H18438146   5.635   0.564   6.387 -1.4445 -1.4709  0.5285
  112MOL   H18538147   5.588   0.501   6.032 -1.7663  2.0092  1.9898
  112MOL   H18638148   5.589   0.285   5.945 -1.0409  0.6133  0.1773
  112MOL   H18738149   5.628   0.072   5.867  0.3476 -0.3892  0.8952
  112MOL   H18838150   5.608   7.955   5.905 -1.2891  2.2665 -1.1181
  112MOL   C18938151   5.795   8.027   5.976  0.0791 -0.0881 -0.0347
  112MOL   C19038152   5.847   7.897   5.901 -0.9859 -0.5918 -0.2690
  112MOL   C19138153   5.903   7.903   5.774 -1.1567 -0.5105 -0.0098
  112MOL   C19238154   5.942   7.790   5.707 -0.0282  0.4966  0.6535
  112MOL   C19338155   5.929   7.663   5.762 -0.5176 -0.2335  0.5744
  112MOL   O19438156   5.970   7.547   5.702 -0.2385 -0.0571  0.0303
  112MOL   C19538157   5.873   7.659   5.896  0.1459 -0.2402  0.7895
  112MOL   C19638158   5.839   7.773   5.963  0.4483  0.2836  0.1278
  112MOL   C19738159   5.882   0.116   5.959  0.3503 -0.5202  0.7468
  112MOL   H19838160   5.805   8.010   6.083 -2.0688 -0.7944  0.0613
  112MOL   H19938161   5.930   7.993   5.722  1.1858 -1.0817  0.1290
  112MOL   H20038162   6.003   7.799   5.618 -0.2250 -0.4945  0.4146
  112MOL   H20138163   6.040   7.551   5.639 -2.3093 -0.9680 -2.4046
  112MOL   H20238164   5.860   7.565   5.947  1.0488 -1.4245 -1.0866
  112MOL   H20338165   5.802   7.756   6.063  0.4770  1.1056  0.2816
  112MOL   H20438166   5.840   0.202   6.011 -0.5529 -1.9326  2.4150
  112MOL   H20538167   5.881   0.145   5.854  0.1272 -1.0460  0.6022
  112MOL   C20638168   6.030   0.089   6.009  0.4591  0.1930  0.1494
  112MOL   C20738169   6.020   0.053   6.158  0.2118  0.6324  0.3482
  112MOL   C20838170   6.033   7.959   6.208  0.2848 -0.6439 -0.7425
  112MOL   C20938171   6.020   7.932   6.344  0.5805  0.0840  0.3286
  112MOL   C21038172   6.001   8.032   6.434  0.3789  0.1548 -0.7523
  112MOL   O21138173   5.978   8.008   6.566  0.3858 -0.8057 -0.1689
  112MOL   C21238174   5.976   0.123   6.392  0.0808  0.7944 -0.3362
  112MOL   C21338175   5.986   0.157   6.254  0.2121  0.4541 -0.1912
  112MOL   C21438176   6.130   0.204   5.982 -0.5153 -0.1832 -0.1672
  112MOL   H21538177   6.075   8.037   5.966 -0.1882  0.3691 -0.9202
  112MOL   H21638178   6.045   7.880   6.136  0.7424 -0.6870 -0.6180
  112MOL   H21738179   6.021   7.830   6.380  2.6821 -0.6451 -1.6562
  112MOL   H21838180   5.918   0.033   6.602  2.1994  0.7339  0.2955
  112MOL   H21938181   5.951   0.204   6.460 -2.1531  1.6773 -2.1355
  112MOL   H22038182   5.986   0.261   6.226  0.5866  0.8163  1.1390
  112MOL   H22138183   6.219   0.183   6.041  0.1138 -0.6403 -1.2605
  112MOL   H22238184   6.080   0.295   6.014  1.2401 -0.2469  2.9263
  112MOL   C22338185   6.157   0.208   5.824 -0.0439  0.5631 -0.0653
  112MOL   C22438186   6.278   0.128   5.782  0.0011  0.3770  0.4235
  112MOL   C22538187   6.409   0.154   5.820 -0.5591 -0.1089  0.4187
  112MOL   C22638188   6.520   0.073   5.806  0.2043  0.1012  0.2311
  112MOL   C22738189   6.505   8.003   5.717 -0.3764  0.2150 -0.1382
  112MOL   O22838190   6.612   7.923   5.687  0.7201  0.0774  0.1122
  112MOL   C22938191   6.376   7.973   5.659  0.0658  0.1002 -0.6364
  112MOL   C23038192   6.264   0.015   5.697 -0.8365  0.2279  0.4166
  112MOL   C23138193   6.170   0.351   5.768 -0.4048  0.1765  0.5024
  112MOL   H23238194   6.078   0.153   5.774 -0.4864  1.3662 -0.2530
  112MOL   H23338195   6.424   0.241   5.883 -1.7675 -0.3701  1.0855
  112MOL   H23438196   6.617   0.096   5.847 -0.0377 -0.7749  1.3074
  112MOL   H23538197   6.698   7.959   5.675  0.4916  1.5619  2.7348
  112MOL   H23638198   6.366   7.885   5.597 -1.7130 -1.1784  1.4052
  112MOL   H23738199   6.165   8.029   5.660 -0.7803  1.2236 -0.3639
  112MOL   H23838200   6.100   0.403   5.834 -0.3019 -1.5474  2.0125
  112MOL   H23938201   6.267   0.398   5.780 -0.8672  1.8432 -1.8953
  112MOL   C24038202   6.119   0.367   5.624  0.2395 -0.3757 -0.0777
  112MOL   C24138203   5.968   0.334   5.602  0.7141 -0.1113  1.0226
  112MOL   C24238204   5.866   0.409   5.662 -0.1849  0.0064 -0.0733
  112MOL   C24338205   5.731   0.372   5.643 -0.2165  0.0256  0.6276
  112MOL   C24438206   5.695   0.255   5.563  0.2496  0.4784 -0.3304
  112MOL   O24538207   5.565   0.215   5.551  0.4855  0.0932  0.4769
  112MOL   C24638208   5.796   0.190   5.497 -0.1302  1.5387  0.0376
  112MOL   C24738209   5.933   0.225   5.515  0.3956 -0.4411 -0.0648
  112MOL   C24838210   6.170   0.508   5.573  0.3920 -0.3641  0.6585
  112MOL   H24938211   6.169   0.293   5.561 -1.4123 -2.4189  0.9276
  112MOL   H25038212   5.887   0.492   5.729  0.7053 -0.1964 -0.0966
  112MOL   H25138213   5.645   0.419   5.687 -1.4213 -0.8333 -0.7863
  112MOL   H25238214   5.555   0.124   5.525 -3.2520  0.3080  0.9113
  112MOL   H25338215   5.767   0.112   5.428  0.7484  1.5001 -0.3001
  112MOL   H25438216   6.012   0.185   5.453  0.6158 -0.7893  0.4345
  112MOL   H25538217   6.091   0.583   5.571  0.6298 -0.0459  2.3932
  112MOL   H25638218   6.233   0.557   5.647 -0.7364  1.9541  0.1287
  112MOL   C25738219   6.257   0.493   5.448 -0.2094 -0.1682 -0.0491
  112MOL   C25838220   6.275   0.616   5.360 -0.1780 -0.3193 -0.5289
  112MOL   C25938221   6.336   0.729   5.425  0.3206  0.4195 -0.0512
  112MOL   C26038222   6.364   0.844   5.346  0.2003  0.1201 -0.4850
  112MOL   C26138223   6.320   0.853   5.213  0.8529 -0.1264  0.1583
  112MOL   O26238224   6.346   0.971   5.147 -0.0870  0.5624 -0.2896
  112MOL   C26338225   6.246   0.746   5.155  0.5130  0.8902  0.3173
  112MOL   C26438226   6.227   0.621   5.226 -0.9239 -0.5752 -0.2258
  112MOL   C26538227   6.396   0.435   5.480  0.3087  0.3733  0.0861
  112MOL   H26638228   6.197   0.429   5.382 -0.4337  0.1423 -0.1470
  112MOL   H26738229   6.362   0.731   5.530 -0.4478 -3.7106  0.2893
  112MOL   H26838230   6.413   0.928   5.392 -0.4889  0.9253 -1.1938
  112MOL   H26938231   6.298   0.979   5.066 -0.5082  0.7584 -0.0219
  112MOL   H27038232   6.213   0.753   5.053  0.8200  0.0247  0.1558
  112MOL   H27138233   6.171   0.538   5.185 -0.1008 -1.8778  1.2325
  112MOL   H27238234   6.385   0.359   5.557  3.4031  0.3018  0.5250
  112MOL   H27338235   6.456   0.517   5.519  0.0818  0.8141 -0.4713
  112MOL   C27438236   6.470   0.393   5.355 -0.7277  0.5496 -0.6024
  112MOL   C27538237   6.439   0.256   5.301  0.0967 -0.0518 -0.2975
  112MOL   C27638238   6.385   0.250   5.173 -0.7679  0.4307  0.1828
  112MOL   C27738239   6.374   0.125   5.110  0.4975  0.1599  0.3058
  112MOL   C27838240   6.402   0.009   5.180  0.7335  0.8111  0.3923
  112MOL   O27938241   6.370   7.923   5.122 -0.4461  0.5789 -0.6240
  112MOL   C28038242   6.464   0.015   5.310 -0.3652  0.7170 -0.3877
  112MOL   C28138243   6.486   0.141   5.365  0.0481  0.6525  0.1455
  112MOL   C28238244   6.625   0.405   5.368  0.0343  0.1948  0.1676
  112MOL   H28338245   6.439   0.463   5.277  0.1291 -0.2530 -1.6829
  112MOL   H28438246   6.358   0.337   5.116 -0.3367 -0.2110 -1.0233
  112MOL   H28538247   6.321   0.123   5.016 -1.1671 -0.3329  1.2334
  112MOL   H28638248   6.291   7.920   5.071 -0.2361 -3.6869 -0.8328
  112MOL   H28738249   6.495   7.964   5.362  1.2429  2.0320  0.9583
  112MOL   H28838250   6.540   0.147   5.458  1.1095 -0.1015 -0.4103
  112MOL   H28938251   6.660   0.374   5.466 -0.9030 -0.6051  0.2637
  112MOL   H29038252   6.664   0.335   5.294  1.3274 -1.6965  2.5890
  112MOL   C29138253   6.678   0.552   5.344  0.0313  0.1294  0.7200
  112MOL   C29238254   6.680   0.587   5.194 -0.1284 -0.0195  0.1260
  112MOL   C29338255   6.636   0.720   5.158 -0.1495 -0.7700 -0.1817
  112MOL   C29438256   6.635   0.770   5.025  0.2586  0.1068 -0.0058
  112MOL   C29538257   6.690   0.681   4.920  0.0137  0.7330 -0.6481
  112MOL   O29638258   6.700   0.729   4.793  0.1850 -0.7924 -0.2314
  112MOL   C29738259   6.734   0.552   4.961 -0.5757 -1.3698  0.7144
  112MOL   C29838260   6.734   0.503   5.090 -0.2124 -0.7152  0.0517
  112MOL   C29938261   6.817   0.569   5.405 -0.7729 -0.0568  0.0345
  112MOL   H30038262   6.599   0.615   5.384 -0.7588 -0.0017 -0.5868
  112MOL   H30138263   6.602   0.786   5.237  3.6047  1.0508  0.0634
  112MOL   H30238264   6.601   0.871   5.010  1.6287  0.2817 -2.2859
  112MOL   H30338265   6.686   0.664   4.727  1.8132 -0.1513 -1.2190
  112MOL   H30438266   6.797   0.486   4.904 -0.0042 -0.8993  0.8094
  112MOL   H30538267   6.779   0.409   5.115  0.3566 -0.0140  1.7212
  112MOL   H30638268   6.893   0.541   5.331  0.8555  3.4153  0.2949
  112MOL   H30738269   6.842   0.523   5.500 -1.5529 -2.2886 -0.8089
  112MOL   C30838270   6.840   0.717   5.431  0.7869 -0.0595  0.1782
  112MOL   C30938271   6.989   0.739   5.467 -0.1931  0.2556  0.6221
  112MOL   C31038272   7.048   0.737   5.598 -0.0264 -0.8072 -0.2773
  112MOL   C31138273   7.181   0.772   5.617 -0.1074  0.7838  0.0733
  112MOL   C31238274   7.261   0.802   5.511  0.6263 -0.1061  0.7283
  112MOL   O31338275   7.385   0.845   5.537  0.3779 -0.2746 -0.2673
  112MOL   C31438276   7.206   0.804   5.382 -0.6981  0.9341 -0.0013
  112MOL   C31538277   7.072   0.777   5.356  0.2070  0.3784  0.2980
  112MOL   C31638278   6.747   0.780   5.541  0.4006  0.3987 -0.4575
  112MOL   H31738279   6.826   0.767   5.335  2.5282  0.0865 -0.0242
  112MOL   H31838280   6.973   0.721   5.674  0.4528 -0.3129  0.2989
  112MOL   H31938281   7.229   0.777   5.713  0.7562  2.4686 -0.4299
  112MOL   H32038282   7.388   0.896   5.617 -2.2398 -1.1809  0.4779
  112MOL   H32138283   7.273   0.826   5.301 -0.3388 -1.1424 -0.2950
  112MOL   H32238284   7.030   0.776   5.257 -0.6220  2.5804  0.6135
  112MOL   H32338285   6.745   0.705   5.619 -3.6872  1.5993  0.7172
  112MOL   H32438286   6.641   0.783   5.516  0.5585 -0.2777 -1.2387
  112MOL   C32538287   6.772   0.927   5.594  0.0637 -0.0267 -0.2150
  112MOL   C32638288   6.676   0.953   5.707  0.3477  0.5108  0.4089
  112MOL   C32738289   6.719   0.934   5.841  0.1546  0.1974 -0.1583
  112MOL   C32838290   6.626   0.963   5.942  0.0033 -0.5025 -0.5370
  112MOL   C32938291   6.491   0.999   5.913  0.0054 -0.2826  0.2121
  112MOL   O33038292   6.393   1.005   6.013  0.1919  0.1956  0.2551
  112MOL   C33138293   6.449   1.021   5.784 -0.4592  0.0115 -0.0614
  112MOL   C33238294   6.535   0.989   5.678 -0.1815 -0.6640  0.3451
  112MOL   C33338295   6.751   1.024   5.479 -0.3137  0.0688 -0.2940
  112MOL   H33438296   6.872   0.935   5.635 -0.9602 -0.2686  2.4309
  112MOL   H33538297   6.813   0.904   5.885  0.9112  1.2393 -1.0415
  112MOL   H33638298   6.653   0.943   6.044  0.2572 -1.2564 -0.7513
  112MOL   H33738299   6.304   1.026   5.988  1.2681  2.7694 -1.6056
  112MOL   H33838300   6.347   1.048   5.762 -1.1129 -2.9587 -0.8708
  112MOL   H33938301   6.508   0.986   5.574 -0.6068  0.1900  0.4243
  112MOL   H34038302   6.826   1.013   5.401  1.7503 -2.2186  1.8921
  112MOL   H34138303   6.745   1.127   5.514 -1.8202  0.2888 -1.2018
  112MOL   H34238304   6.660   1.003   5.424 -1.6044  0.6763  1.5601
  113MOL     C138305   5.835   7.937   0.659 -0.5319 -0.1819  0.4148
  113MOL     C238306   5.849   0.033   0.588 -0.3248  0.4511 -0.1322
  113MOL     C338307   5.734   0.101   0.542  0.0566  0.2537  0.2189
  113MOL     C438308   5.753   0.223   0.475 -0.2056  0.2765  0.6327
  113MOL     C538309   5.869   0.300   0.483  0.6268  0.2820 -0.4907
  113MOL     O638310   5.884   0.419   0.422 -0.0309  0.8429  0.2704
  113MOL     C738311   5.984   0.234   0.542  0.1590  0.2961 -0.3990
  113MOL     C838312   5.976   0.098   0.584  0.4583  0.1596 -0.0990
  113MOL     C938313   5.864   7.814   0.573 -0.3508  0.4811 -0.2870
  113MOL    H1038314   5.907   7.943   0.741 -1.7052  1.1148  1.3745
  113MOL    H1138315   5.639   0.049   0.544 -0.7473  1.7130  1.3519
  113MOL    H1238316   5.667   0.267   0.427 -0.8104 -0.3940  1.0910
  113MOL    H1338317   5.972   0.448   0.402 -0.5061  1.3817 -1.0825
  113MOL    H1438318   6.080   0.283   0.545  0.1050  0.3352  1.6848
  113MOL    H1538319   6.057   0.049   0.636 -1.7886 -1.7043  1.7882
  113MOL    H1638320   5.949   7.837   0.507  0.2087  0.4307  0.4126
  113MOL    H1738321   5.776   7.802   0.509 -0.9790 -0.6880  0.7794
  113MOL    H1838322   5.738   7.933   0.708 -1.8416 -0.9187 -2.1751
  113MOL    C1938323   5.890   7.677   0.642 -0.1969 -0.4920  0.8416
  113MOL    C2038324   5.971   7.707   0.765 -0.1519 -0.2764  0.1583
  113MOL    C2138325   6.106   7.760   0.766 -0.2952  0.0886  0.1329
  113MOL    C2238326   6.182   7.785   0.883 -0.0032 -0.2199 -0.1277
  113MOL    C2338327   6.122   7.764   1.009 -0.0125  0.1995 -0.3594
  113MOL    O2438328   6.193   7.807   1.115  0.3788 -0.3617  0.2859
  113MOL    C2538329   5.991   7.712   1.014 -0.2195  0.0156  0.0262
  113MOL    C2638330   5.921   7.681   0.898  0.2854  0.5700 -0.5132
  113MOL    C2738331   5.973   7.578   0.550  0.3715  0.7478  0.4961
  113MOL    H2838332   5.794   7.640   0.677 -0.6802 -0.1999 -0.1757
  113MOL    H2938333   6.163   7.776   0.677  1.0030 -0.5452  0.8427
  113MOL    H3038334   6.281   7.828   0.879  0.9760 -2.4294 -0.4119
  113MOL    H3138335   6.137   7.796   1.190  0.8085  1.6257  0.9387
  113MOL    H3238336   5.944   7.682   1.107 -0.5811  0.9099  0.1439
  113MOL    H3338337   5.834   7.620   0.915  0.9353  0.4457  2.5992
  113MOL    H3438338   5.990   7.484   0.603  0.4386  0.5728  0.1622
  113MOL    H3538339   6.072   7.620   0.529 -0.4101  1.5485 -1.7220
  113MOL    C3638340   5.912   7.534   0.413  0.0383  0.5021 -0.2440
  113MOL    C3738341   5.771   7.482   0.419 -0.3227 -0.6930  0.3431
  113MOL    C3838342   5.671   7.532   0.337 -0.7047 -0.7072 -0.0525
  113MOL    C3938343   5.540   7.469   0.343  0.3540 -0.3797 -0.0375
  113MOL    C4038344   5.516   7.362   0.435  0.2717 -0.0397  0.4208
  113MOL    O4138345   5.386   7.317   0.451 -0.0886 -0.0625  0.5636
  113MOL    C4238346   5.623   7.315   0.511 -0.0913 -0.4078 -0.0654
  113MOL    C4338347   5.749   7.376   0.507 -0.0019 -0.1093 -0.2564
  113MOL    C4438348   6.012   7.443   0.336  0.4425 -0.6885 -0.6830
  113MOL    H4538349   5.912   7.630   0.361  0.0876  0.7295  0.1728
  113MOL    H4638350   5.681   7.611   0.263  0.2660 -1.5997 -0.9026
  113MOL    H4738351   5.459   7.500   0.278 -1.1721 -0.8884  1.5760
  113MOL    H4838352   5.325   7.337   0.382  0.3881 -1.6158 -0.3428
  113MOL    H4938353   5.613   7.228   0.574  1.0498 -2.1759 -2.2270
  113MOL    H5038354   5.823   7.342   0.577  0.3274 -0.4500 -0.7661
  113MOL    H5138355   6.106   7.497   0.323 -0.4518  0.9855 -0.2793
  113MOL    H5238356   6.042   7.362   0.403 -1.3650  1.3160  2.6775
  113MOL    C5338357   5.963   7.384   0.200 -0.6374 -0.7256 -0.2605
  113MOL    C5438358   6.087   7.371   0.112 -0.6246 -0.3774 -0.7876
  113MOL    C5538359   6.084   7.429   8.019 -0.4960 -0.5486  0.0315
  113MOL    C5638360   6.198   7.435   7.944 -0.6184  0.0287 -0.3991
  113MOL    C5738361   6.316   7.371   7.993  0.1085 -0.4344  0.4047
  113MOL    O5838362   6.429   7.389   7.918 -0.2690  0.0138 -0.0197
  113MOL    C5938363   6.316   7.304   0.079 -0.1237  0.3674 -0.2121
  113MOL    C6038364   6.203   7.303   0.159 -0.2109 -0.1777  0.6710
  113MOL    C6138365   5.890   7.249   0.214  0.3093 -0.3782  0.3509
  113MOL    H6238366   5.904   7.465   0.155 -0.3985 -0.3862  0.0299
  113MOL    H6338367   5.994   7.484   7.998  1.1123  2.0076 -0.4266
  113MOL    H6438368   6.205   7.487   7.849  3.1901  0.0805 -0.1501
  113MOL    H6538369   6.507   7.361   7.963 -1.0239 -0.2211  1.1687
  113MOL    H6638370   6.403   7.251   0.116  0.5018  0.2326 -1.8236
  113MOL    H6738371   6.208   7.257   0.257  2.3531  0.2471  0.7744
  113MOL    H6838372   5.802   7.253   0.278  0.9623  2.1723  1.1287
  113MOL    H6938373   5.956   7.190   0.278 -1.9634 -2.5879  0.7739
  113MOL    C7038374   5.874   7.170   0.083 -0.5064  0.4121 -0.2010
  113MOL    C7138375   5.773   7.236   8.031 -0.1414  0.0364  0.6264
  113MOL    C7238376   5.811   7.276   7.898  0.1957  0.1123 -0.7215
  113MOL    C7338377   5.728   7.345   7.810  0.4351  0.5330  0.5002
  113MOL    C7438378   5.604   7.385   7.858 -1.2903  0.4134 -0.1442
  113MOL    O7538379   5.533   7.467   7.776 -0.6642  0.0653 -0.4175
  113MOL    C7638380   5.564   7.349   7.989  0.1068  0.1504 -0.4123
  113MOL    C7738381   5.651   7.287   0.039 -0.2943 -0.7046 -0.6823
  113MOL    C7838382   5.839   7.022   0.106  0.1683 -0.3511 -0.1187
  113MOL    H7938383   5.963   7.167   0.020  0.1261 -1.6958  0.7636
  113MOL    H8038384   5.912   7.258   7.865  0.7401 -0.9099  1.3868
  113MOL    H8138385   5.761   7.372   7.711 -0.5345 -1.5542 -0.4198
  113MOL    H8238386   5.475   7.526   7.822  0.9372  1.2411  0.1335
  113MOL    H8338387   5.469   7.390   8.020  1.2134  1.9949  0.6079
  113MOL    H8438388   5.630   7.279   0.145  0.1171  0.7681 -0.4858
  113MOL    H8538389   5.826   6.983   0.004  0.5402  0.6695 -0.5638
  113MOL    H8638390   5.749   7.031   0.166  0.7752 -0.4533  0.8059
  113MOL    C8738391   5.931   6.926   0.172 -0.3096  0.1873 -0.4378
  113MOL    C8838392   6.076   6.949   0.147 -0.4545 -1.1816 -0.5400
  113MOL    C8938393   6.171   6.970   0.248 -0.3447  0.6902 -0.1227
  113MOL    C9038394   6.307   6.984   0.203  0.6736  0.0866 -0.3943
  113MOL    C9138395   6.340   6.986   0.070  0.0209 -0.7523 -0.0347
  113MOL    O9238396   6.471   6.992   0.034 -0.2481  0.0961 -0.3400
  113MOL    C9338397   6.240   6.984   8.005  0.4829  0.2284  0.4179
  113MOL    C9438398   6.107   6.963   0.012 -0.0542 -0.4574  0.2807
  113MOL    C9538399   5.878   6.782   0.144 -0.1771 -0.2956 -0.0179
  113MOL    H9638400   5.914   6.938   0.279 -1.6147  1.1577 -0.7433
  113MOL    H9738401   6.143   6.969   0.352 -0.0557  1.0750 -0.0396
  113MOL    H9838402   6.384   7.008   0.275 -0.2034  1.1693  0.2127
  113MOL    H9938403   6.484   6.983   7.978  1.2101  1.5079 -0.2895
  113MOL   H10038404   6.260   6.990   7.899 -2.2080  0.3599 -0.1237
  113MOL   H10138405   6.028   6.961   7.976  0.5180  1.3930 -0.4226
  113MOL   H10238406   5.770   6.776   0.133 -0.0861 -2.3518 -0.0166
  113MOL   H10338407   5.925   6.755   0.049  0.7087  1.0183  0.0355
  113MOL   C10438408   5.924   6.673   0.242  0.2975 -0.3152  0.2674
  113MOL   C10538409   5.897   6.535   0.177 -0.1903  0.1102 -0.0148
  113MOL   C10638410   5.981   6.428   0.200  0.2691 -0.1463  0.3568
  113MOL   C10738411   5.949   6.303   0.145  0.6319 -0.8945  0.2095
  113MOL   C10838412   5.836   6.276   0.065 -0.5732  0.2933 -0.3801
  113MOL   O10938413   5.815   6.157   0.018 -0.2303 -0.0447  0.4022
  113MOL   C11038414   5.746   6.385   0.051  0.0176 -0.5776 -0.4089
  113MOL   C11138415   5.781   6.515   0.101 -0.0541 -0.0359 -0.1496
  113MOL   C11238416   5.864   6.681   0.384  0.6758  0.1966 -0.3300
  113MOL   H11338417   6.032   6.667   0.255 -0.1070 -3.7693  2.6434
  113MOL   H11438418   6.067   6.436   0.265  0.2076  5.3730  0.0151
  113MOL   H11538419   6.016   6.224   0.175  1.9431  0.3075  0.5211
  113MOL   H11638420   5.724   6.153   8.029  0.4304 -0.7396 -1.9177
  113MOL   H11738421   5.660   6.398   8.026  0.4771 -0.8490 -1.1001
  113MOL   H11838422   5.714   6.598   0.084 -0.1680 -0.1514 -0.2614
  113MOL   H11938423   5.798   6.600   0.418  0.0230  0.2678 -1.4072
  113MOL   H12038424   5.793   6.763   0.384 -1.2633 -1.3903  1.7694
  113MOL   C12138425   5.975   6.706   0.494  0.8928 -0.7902  0.3220
  113MOL   C12238426   5.911   6.783   0.607 -0.0682  0.5004  0.5030
  113MOL   C12338427   5.950   6.914   0.628 -0.2690 -0.3682 -0.7601
  113MOL   C12438428   5.888   6.992   0.728  0.4984 -0.0478 -0.4658
  113MOL   C12538429   5.777   6.937   0.792 -0.0286  0.2836 -1.0931
  113MOL   O12638430   5.717   7.020   0.880 -0.0550  0.1006 -0.3601
  113MOL   C12738431   5.735   6.801   0.775 -0.1059  0.4982  0.0031
  113MOL   C12838432   5.803   6.724   0.679 -0.2642  0.0300 -0.3161
  113MOL   C12938433   6.042   6.576   0.540  0.1407 -0.2816 -0.1049
  113MOL   H13038434   6.059   6.766   0.459  0.9686  0.5472  2.7191
  113MOL   H13138435   6.029   6.951   0.564  0.6453 -0.6289  0.1985
  113MOL   H13238436   5.922   7.095   0.733 -0.0202  0.0484  1.8480
  113MOL   H13338437   5.683   6.972   0.954 -1.7084  3.3436  1.0900
  113MOL   H13438438   5.643   6.764   0.817  0.5998 -2.5535 -1.0095
  113MOL   H13538439   5.772   6.627   0.645  1.2488 -0.5929  0.0214
  113MOL   H13638440   6.084   6.520   0.457  1.9410  1.7630 -0.6306
  113MOL   H13738441   5.964   6.508   0.574 -0.6047  0.9620  0.7131
  113MOL   C13838442   6.153   6.588   0.647  0.2697  0.0584 -0.3518
  113MOL   C13938443   6.266   6.678   0.602  0.4778 -0.0747  0.1751
  113MOL   C14038444   6.272   6.815   0.634 -0.1142  0.0580  0.2757
  113MOL   C14138445   6.377   6.896   0.582  0.0691  0.1118  0.3511
  113MOL   C14238446   6.477   6.837   0.493  0.5161 -0.2591 -0.3357
  113MOL   O14338447   6.573   6.915   0.430 -0.1560  0.5596  0.5971
  113MOL   C14438448   6.471   6.699   0.466 -0.0349 -0.8383 -0.6408
  113MOL   C14538449   6.371   6.620   0.516 -0.6332  0.5925  0.3812
  113MOL   C14638450   6.202   6.452   0.694  0.0111  0.5757  0.4598
  113MOL   H14738451   6.113   6.638   0.735  0.1994  0.5386 -0.6566
  113MOL   H14838452   6.203   6.869   0.697 -0.2169  1.0993 -0.7124
  113MOL   H14938453   6.380   7.001   0.604 -1.4876  0.1994  0.2552
  113MOL   H15038454   6.618   6.875   0.357  0.5632  0.2952  1.1826
  113MOL   H15138455   6.543   6.659   0.397 -1.4811 -1.5607 -1.7408
  113MOL   H15238456   6.376   6.518   0.482 -0.4546  0.7925 -0.2108
  113MOL   H15338457   6.289   6.466   0.759 -0.0637 -0.5858  0.8167
  113MOL   H15438458   6.228   6.397   0.603  0.8417  0.8091  0.5549
  113MOL   C15538459   6.113   6.357   0.766 -0.1228  0.9471  0.4514
  113MOL   C15638460   6.064   6.414   0.895  0.0469 -0.4630 -0.4054
  113MOL   C15738461   5.927   6.423   0.922  0.3377  0.2867 -0.1643
  113MOL   C15838462   5.883   6.472   1.051 -0.1307  0.7004  0.5848
  113MOL   C15938463   5.982   6.512   1.147  0.4063  0.5710 -0.4783
  113MOL   O16038464   5.947   6.558   1.265  0.3352 -0.2364  0.4628
  113MOL   C16138465   6.116   6.517   1.116  0.1398  0.2199 -0.8033
  113MOL   C16238466   6.159   6.466   0.990 -0.4813  0.1460 -0.5684
  113MOL   C16338467   6.153   6.212   0.766  0.1908  0.3869  0.4692
  113MOL   H16438468   6.022   6.362   0.705  0.1377  1.7802  0.1257
  113MOL   H16538469   5.859   6.394   0.843 -0.0830 -1.6389  0.8773
  113MOL   H16638470   5.777   6.481   1.066 -1.0852 -0.9866 -4.3567
  113MOL   H16738471   5.860   6.593   1.260 -0.0559 -1.0914  1.0964
  113MOL   H16838472   6.190   6.549   1.188 -0.3364  1.1439 -0.7169
  113MOL   H16938473   6.265   6.465   0.972 -0.7516 -1.4441 -2.2597
  113MOL   H17038474   6.106   6.169   0.677  0.8821  0.2130  0.1848
  113MOL   H17138475   6.096   6.160   0.843  0.0107  0.1340  0.1665
  113MOL   C17238476   6.309   6.160   0.762  0.0893 -0.5261  0.2646
  113MOL   C17338477   6.328   6.032   0.687 -0.1623  0.0583  0.0600
  113MOL   C17438478   6.423   6.020   0.587 -0.1423 -0.0603  0.3261
  113MOL   C17538479   6.439   5.899   0.524 -0.7275 -0.1210 -0.6811
  113MOL   C17638480   6.366   5.782   0.559 -0.0567 -0.0511  0.4462
  113MOL   O17738481   6.400   5.656   0.510 -0.2013 -0.0586 -0.3923
  113MOL   C17838482   6.269   5.795   0.656  0.3955  0.1802 -0.7778
  113MOL   C17938483   6.255   5.917   0.720 -0.0753  0.2939 -0.0340
  113MOL   C18038484   6.371   6.149   0.906 -0.1472 -0.1011 -0.0961
  113MOL   H18138485   6.362   6.242   0.714 -0.2649 -0.7464 -0.5037
  113MOL   H18238486   6.485   6.093   0.537 -0.7177 -0.6043 -1.2284
  113MOL   H18338487   6.516   5.894   0.448 -1.0165 -0.4412 -0.9565
  113MOL   H18438488   6.490   5.642   0.485 -0.1825  2.2007 -1.6471
  113MOL   H18538489   6.218   5.705   0.690 -2.8764  1.6318 -1.6169
  113MOL   H18638490   6.183   5.932   0.799 -2.7360  0.3936 -2.3706
  113MOL   H18738491   6.322   6.064   0.953  0.2393  0.8200  2.0426
  113MOL   H18838492   6.340   6.231   0.972  1.3265  0.9195 -0.6518
  113MOL   C18938493   6.525   6.137   0.901 -1.1221  0.2035  0.1151
  113MOL   C19038494   6.587   6.270   0.852  0.7855 -0.1550 -0.2591
  113MOL   C19138495   6.666   6.268   0.730  0.1277  0.2831 -0.4942
  113MOL   C19238496   6.710   6.387   0.667  0.0043 -0.2873 -0.3995
  113MOL   C19338497   6.679   6.509   0.728  0.1036  0.1245  0.0578
  113MOL   O19438498   6.704   6.627   0.666  0.1908 -0.5026 -0.0471
  113MOL   C19538499   6.611   6.521   0.853  0.1263  0.4998  0.3229
  113MOL   C19638500   6.569   6.396   0.916  0.3676  0.1590 -0.2147
  113MOL   C19738501   6.579   6.083   1.031 -0.0317  0.3525 -0.6841
  113MOL   H19838502   6.544   6.078   0.812  0.8457 -0.5096  0.9865
  113MOL   H19938503   6.689   6.172   0.686 -1.7439  0.3696 -1.7160
  113MOL   H20038504   6.777   6.375   0.583 -0.5008 -0.7951 -0.7324
  113MOL   H20138505   6.631   6.687   0.667  0.3920 -0.2113 -1.4673
  113MOL   H20238506   6.602   6.617   0.901  1.3630 -0.3779  2.3835
  113MOL   H20338507   6.514   6.408   1.008 -0.4039  0.3283 -0.6954
  113MOL   H20438508   6.518   5.995   1.052 -0.4897  0.8207 -0.0515
  113MOL   H20538509   6.560   6.160   1.106 -0.2984  0.0676 -0.4564
  113MOL   C20638510   6.734   6.051   1.047  0.5059 -0.7141 -0.5495
  113MOL   C20738511   6.795   5.986   0.919  0.7716  0.0855  0.0846
  113MOL   C20838512   6.911   6.036   0.866  0.1149 -0.1489 -0.4833
  113MOL   C20938513   6.960   5.990   0.741 -0.1532 -0.2843  0.3899
  113MOL   C21038514   6.885   5.895   0.668  0.4982 -0.7317 -0.3898
  113MOL   O21138515   6.933   5.850   0.544  0.2625 -0.0507  0.0199
  113MOL   C21238516   6.766   5.842   0.728 -0.9886  0.3310  0.7947
  113MOL   C21338517   6.719   5.883   0.851 -0.2569 -0.4290 -0.0150
  113MOL   C21438518   6.754   5.961   1.165 -0.3986 -0.1451 -0.2146
  113MOL   H21538519   6.780   6.149   1.056  0.8543 -0.6475 -2.6654
  113MOL   H21638520   6.969   6.111   0.918  0.8214 -1.4726  0.6531
  113MOL   H21738521   7.057   6.019   0.705 -0.3351  0.1195  0.2181
  113MOL   H21838522   7.024   5.864   0.523  0.4007  1.0330  1.2722
  113MOL   H21938523   6.717   5.760   0.677  1.3183 -0.0751 -0.8367
  113MOL   H22038524   6.637   5.834   0.902 -1.0475  1.1219  0.2386
  113MOL   H22138525   6.862   5.960   1.182 -0.5336  0.1148  0.6852
  113MOL   H22238526   6.708   5.864   1.145 -3.0845  0.3224  3.3022
  113MOL   C22338527   6.686   6.011   1.298 -0.0028 -0.1214 -0.0377
  113MOL   C22438528   6.721   6.152   1.337  0.4663 -0.1344 -0.1496
  113MOL   C22538529   6.852   6.176   1.375  0.0846  0.1365 -0.3205
  113MOL   C22638530   6.881   6.305   1.429  0.4104  0.0225  0.5347
  113MOL   C22738531   6.786   6.407   1.454  0.4653  0.0311 -0.2532
  113MOL   O22838532   6.828   6.528   1.508  0.2964 -0.2458 -0.0050
  113MOL   C22938533   6.657   6.382   1.408 -0.9748 -0.4225 -0.1777
  113MOL   C23038534   6.621   6.251   1.361 -1.0642 -0.2358 -0.0875
  113MOL   C23138535   6.702   5.913   1.422 -0.5929 -0.4174  1.0607
  113MOL   H23238536   6.578   6.008   1.284 -0.1387 -0.2259  1.0229
  113MOL   H23338537   6.933   6.107   1.358  1.5429  1.1421  2.2116
  113MOL   H23438538   6.985   6.317   1.456  0.1664  1.0586  1.0284
  113MOL   H23538539   6.916   6.518   1.541 -0.2308 -2.6386  0.8108
  113MOL   H23638540   6.581   6.456   1.426  0.9440  1.2649  1.1983
  113MOL   H23738541   6.515   6.237   1.348 -1.3843  1.3411  0.7076
  113MOL   H23838542   6.800   5.867   1.407 -0.1851  1.3031 -1.9010
  113MOL   H23938543   6.716   5.966   1.516  0.6726  1.3952 -0.1109
  113MOL   C24038544   6.592   5.801   1.445  0.4036 -0.0761  0.2278
  113MOL   C24138545   6.559   5.730   1.314  0.2166  0.5428  0.3672
  113MOL   C24238546   6.636   5.623   1.269 -0.3985 -0.3218  0.3627
  113MOL   C24338547   6.621   5.577   1.135 -0.6297 -0.6726  0.4503
  113MOL   C24438548   6.518   5.626   1.055 -0.4145  0.3594 -0.4021
  113MOL   O24538549   6.487   5.578   0.928 -0.3153  0.5114  0.0980
  113MOL   C24638550   6.440   5.739   1.102  0.9358  0.5143 -0.8788
  113MOL   C24738551   6.452   5.781   1.235  0.5899  0.8418 -0.7558
  113MOL   C24838552   6.639   5.713   1.562  0.5060  0.0785 -0.2072
  113MOL   H24938553   6.500   5.852   1.475  0.6732  0.4060  0.2442
  113MOL   H25038554   6.712   5.576   1.330  0.8763 -1.8270 -2.2825
  113MOL   H25138555   6.685   5.496   1.103  1.7140  1.9296 -1.7201
  113MOL   H25238556   6.541   5.502   0.913 -2.0344 -0.9262  1.0097
  113MOL   H25338557   6.363   5.787   1.043 -0.4371 -1.2667 -0.5679
  113MOL   H25438558   6.415   5.878   1.265  0.1093 -0.1369  2.0014
  113MOL   H25538559   6.727   5.655   1.533 -0.6683 -1.0358 -1.6317
  113MOL   H25638560   6.664   5.782   1.642  1.1180  0.1139 -0.4244
  113MOL   C25738561   6.538   5.608   1.618 -0.0671  0.3585 -0.2315
  113MOL   C25838562   6.609   5.481   1.659 -0.8505  0.1550 -0.2751
  113MOL   C25938563   6.730   5.481   1.731 -0.1654  0.4369 -0.2242
  113MOL   C26038564   6.785   5.360   1.765 -0.7568  0.3531  0.1437
  113MOL   C26138565   6.721   5.237   1.740  0.1563 -0.4164 -1.1317
  113MOL   O26238566   6.773   5.132   1.807 -0.0865  0.0423  1.0738
  113MOL   C26338567   6.594   5.238   1.678  0.3782 -0.6990  0.1529
  113MOL   C26438568   6.541   5.363   1.633 -0.2540  0.2900  0.2712
  113MOL   C26538569   6.444   5.654   1.731 -0.2079  0.0680  0.3719
  113MOL   H26638570   6.466   5.581   1.540  0.5156  0.7217 -0.9005
  113MOL   H26738571   6.781   5.576   1.743  0.9370  0.1082 -2.0207
  113MOL   H26838572   6.873   5.356   1.827 -0.3871 -2.8030 -0.5208
  113MOL   H26938573   6.856   5.157   1.846 -0.0931  0.2930  0.9301
  113MOL   H27038574   6.540   5.145   1.664  0.4685 -0.3954 -2.4760
  113MOL   H27138575   6.445   5.361   1.582 -0.6718  1.1492  1.0120
  113MOL   H27238576   6.492   5.743   1.772 -2.4638  0.6176  1.8972
  113MOL   H27338577   6.448   5.584   1.815  2.9707  0.1378  0.3401
  113MOL   C27438578   6.295   5.680   1.685 -0.1205 -0.1383  1.3914
  113MOL   C27538579   6.267   5.791   1.594  0.2656  0.0592 -0.1138
  113MOL   C27638580   6.299   5.920   1.642 -0.2249 -0.8217  0.0911
  113MOL   C27738581   6.283   6.038   1.558 -0.3676 -0.7146  0.4874
  113MOL   C27838582   6.217   6.021   1.437 -0.2978  0.2962  0.3199
  113MOL   O27938583   6.199   6.120   1.344  0.2101 -0.1880 -0.5694
  113MOL   C28038584   6.169   5.900   1.395 -0.0227  0.0604  0.2812
  113MOL   C28138585   6.201   5.783   1.468  0.2169 -0.3331 -0.3636
  113MOL   C28238586   6.203   5.672   1.799  0.2794 -0.1842 -0.6049
  113MOL   H28338587   6.265   5.598   1.620  1.0069 -0.5332  1.3473
  113MOL   H28438588   6.348   5.939   1.736  1.4745 -0.4054 -0.8691
  113MOL   H28538589   6.310   6.134   1.600 -1.1879 -0.0417 -0.5149
  113MOL   H28638590   6.219   6.204   1.381  3.6030 -1.8464  1.5748
  113MOL   H28738591   6.118   5.902   1.300 -0.5979 -0.7442  0.5689
  113MOL   H28838592   6.173   5.687   1.428  3.2604 -1.9456  1.1431
  113MOL   H28938593   6.236   5.588   1.859  1.3984 -0.6909 -1.8985
  113MOL   H29038594   6.211   5.763   1.859 -1.8077 -0.2287 -0.2292
  113MOL   C29138595   6.050   5.649   1.770  0.2801 -0.4225 -0.7888
  113MOL   C29238596   5.965   5.742   1.855  0.7851 -0.0060  0.1840
  113MOL   C29338597   5.873   5.835   1.798  0.3141 -0.1053  0.1267
  113MOL   C29438598   5.798   5.926   1.870 -0.0030  0.4473  0.2191
  113MOL   C29538599   5.811   5.914   2.013 -0.4775 -0.2372 -0.0652
  113MOL   O29638600   5.739   6.003   2.085 -0.1817 -0.3098  0.4685
  113MOL   C29738601   5.893   5.813   2.073 -0.2675  0.1511 -0.2411
  113MOL   C29838602   5.970   5.732   1.993 -0.6329 -0.4632  0.6692
  113MOL   C29938603   6.010   5.498   1.805 -0.1747 -0.4744 -0.2111
  113MOL   H30038604   6.031   5.680   1.667  1.8190 -0.8694 -1.2090
  113MOL   H30138605   5.869   5.832   1.690  1.8795  1.4004  0.0006
  113MOL   H30238606   5.727   5.998   1.830  0.2649  1.3962  1.4171
  113MOL   H30338607   5.687   6.046   2.018  0.5025 -0.4494 -0.1516
  113MOL   H30438608   5.898   5.807   2.181 -3.3892  0.2546 -0.0447
  113MOL   H30538609   6.031   5.655   2.039 -0.3338 -0.1969  0.7271
  113MOL   H30638610   5.902   5.493   1.794 -0.5746 -0.7713  3.2644
  113MOL   H30738611   6.021   5.477   1.912 -0.8193  0.4478  0.0370
  113MOL   C30838612   6.072   5.385   1.709 -0.2587  0.8382 -0.4026
  113MOL   C30938613   6.044   5.394   1.557  0.0956  0.2433 -0.1826
  113MOL   C31038614   6.144   5.400   1.459 -0.4096  0.0166 -0.7090
  113MOL   C31138615   6.120   5.410   1.324 -0.0056 -0.0565  0.3778
  113MOL   C31238616   5.984   5.401   1.277  0.0618 -0.4424  0.3343
  113MOL   O31338617   5.951   5.411   1.142 -0.7400 -0.3621 -0.3892
  113MOL   C31438618   5.879   5.406   1.369  0.2007 -0.3657 -0.4376
  113MOL   C31538619   5.909   5.408   1.507  0.0800  1.1344 -0.1800
  113MOL   C31638620   6.043   5.232   1.752  0.0070 -0.0488  0.0188
  113MOL   H31738621   6.180   5.382   1.719 -0.2642 -0.1543 -0.5445
  113MOL   H31838622   6.243   5.391   1.500 -0.0951  1.8487 -1.0541
  113MOL   H31938623   6.200   5.409   1.252  0.3100  0.7927  0.7082
  113MOL   H32038624   6.032   5.419   1.093 -1.9732  0.3120 -2.3906
  113MOL   H32138625   5.776   5.415   1.339  0.1875 -0.3840 -0.3964
  113MOL   H32238626   5.825   5.423   1.573 -1.7525 -0.1848 -2.1701
  113MOL   H32338627   6.104   5.171   1.685  1.1374 -0.6112  1.5481
  113MOL   H32438628   5.945   5.195   1.723  0.2784 -0.3149 -0.5714
  113MOL   C32538629   6.073   5.190   1.892 -0.1113  0.5623  0.2540
  113MOL   C32638630   6.221   5.211   1.925 -0.0873 -0.1213  0.8378
  113MOL   C32738631   6.316   5.125   1.880  0.3540 -0.3512  0.8406
  113MOL   C32838632   6.449   5.141   1.927 -0.3739  0.7128  0.5466
  113MOL   C32938633   6.486   5.250   2.010 -0.0061 -0.1203 -0.1433
  113MOL   O33038634   6.619   5.276   2.042 -0.6310  0.2359  0.1991
  113MOL   C33138635   6.388   5.334   2.057 -0.1584  0.1307 -0.6603
  113MOL   C33238636   6.256   5.312   2.013  0.0387  0.0604  0.2329
  113MOL   C33338637   6.026   5.051   1.935 -0.2093 -0.0757 -0.2193
  113MOL   H33438638   6.021   5.263   1.954 -1.1999 -0.4162  0.5012
  113MOL   H33538639   6.291   5.045   1.812 -1.7577  1.2450 -0.3098
  113MOL   H33638640   6.534   5.082   1.896  0.6174  1.6591  1.4317
  113MOL   H33738641   6.669   5.211   1.995 -0.9077 -0.3773  0.7580
  113MOL   H33838642   6.424   5.415   2.119  1.4393  0.8374 -2.4686
  113MOL   H33938643   6.187   5.377   2.066 -0.9017  0.1901 -1.1342
  113MOL   H34038644   6.090   4.974   1.892 -0.4227 -2.4289  3.4069
  113MOL   H34138645   5.926   5.027   1.898 -0.2372 -0.3956  0.0531
  113MOL   H34238646   6.032   5.051   2.044  0.5288 -0.4413 -0.2575
  114MOL     C138647   6.825   3.479   7.138  0.3184  0.4075 -0.0737
  114MOL     C238648   6.799   3.621   7.112  0.1429  0.0824  0.4555
  114MOL     C338649   6.700   3.668   7.022 -0.2659  1.2295  0.0466
  114MOL     C438650   6.669   3.802   7.003 -0.1749  0.3452  0.1860
  114MOL     C538651   6.742   3.896   7.067  0.1393  0.7000  0.2226
  114MOL     O638652   6.701   4.031   7.055 -0.1865  0.2570 -0.0229
  114MOL     C738653   6.855   3.857   7.146  0.4751  0.1705 -0.2367
  114MOL     C838654   6.872   3.721   7.171  0.4566  0.8682 -0.5137
  114MOL     C938655   6.866   3.458   7.283 -0.5741  0.3618  0.2490
  114MOL    H1038656   6.735   3.423   7.117 -0.0414  0.6211  0.9150
  114MOL    H1138657   6.632   3.596   6.978 -0.4657  0.8917  0.9018
  114MOL    H1238658   6.588   3.833   6.938  0.8751  1.7613 -0.4702
  114MOL    H1338659   6.734   4.093   7.118 -2.5096 -1.7938  3.4148
  114MOL    H1438660   6.913   3.939   7.188  0.9150  0.8086 -2.0458
  114MOL    H1538661   6.956   3.709   7.238 -1.1460 -0.1214  1.3951
  114MOL    H1638662   6.804   3.524   7.345 -1.3877  1.0654 -1.2986
  114MOL    H1738663   6.966   3.494   7.308 -0.3678  0.5854 -0.8703
  114MOL    H1838664   6.902   3.451   7.065  0.2748 -0.5038  0.2290
  114MOL    C1938665   6.867   3.310   7.341 -0.1007 -0.3021  0.2378
  114MOL    C2038666   6.738   3.236   7.301  0.1546 -0.4207 -0.1364
  114MOL    C2138667   6.739   3.136   7.201  0.2865 -0.5350 -0.1983
  114MOL    C2238668   6.623   3.056   7.190  0.4153 -0.2777  0.7401
  114MOL    C2338669   6.504   3.080   7.259 -0.7096  0.4750 -0.0710
  114MOL    O2438670   6.387   3.016   7.235  0.1042  0.1808  0.7195
  114MOL    C2538671   6.509   3.182   7.355 -0.0073 -0.3321  0.1738
  114MOL    C2638672   6.622   3.257   7.378  0.0574 -0.3629  0.4147
  114MOL    C2738673   6.915   3.284   7.484  0.5616 -0.6626 -0.8687
  114MOL    H2838674   6.948   3.263   7.286 -0.4739  0.9290 -1.4372
  114MOL    H2938675   6.825   3.114   7.140  1.2312 -1.3301  1.4133
  114MOL    H3038676   6.620   2.982   7.111  1.4888  0.0737  0.3684
  114MOL    H3138677   6.316   3.069   7.269 -1.9429 -2.5416  0.8216
  114MOL    H3238678   6.421   3.206   7.413 -1.5006 -1.5423 -1.5539
  114MOL    H3338679   6.638   3.321   7.464 -0.5636  0.5474 -0.1361
  114MOL    H3438680   6.851   3.342   7.550 -1.0469 -0.4751 -2.5424
  114MOL    H3538681   7.015   3.326   7.490  0.3439 -0.5508  2.5931
  114MOL    C3638682   6.924   3.138   7.533  0.4295 -0.0275 -0.0424
  114MOL    C3738683   6.929   3.124   7.690  0.0956 -0.5538  0.4197
  114MOL    C3838684   6.814   3.095   7.770 -0.6867  0.0427  0.0534
  114MOL    C3938685   6.830   3.056   7.906 -0.3020  0.1291  0.3805
  114MOL    C4038686   6.949   3.088   7.974  0.6701 -0.0383 -0.2944
  114MOL    O4138687   6.962   3.078   0.072  0.1547  0.6495  0.3294
  114MOL    C4238688   7.063   3.125   7.898  0.3158 -0.5868  0.2486
  114MOL    C4338689   7.053   3.146   7.757  0.1055 -0.2143  0.0604
  114MOL    C4438690   7.043   3.057   7.467 -0.3362 -0.7252 -0.5553
  114MOL    H4538691   6.829   3.088   7.514 -0.5550  0.6876  2.8422
  114MOL    H4638692   6.713   3.091   7.731 -1.7030 -1.6613  2.7103
  114MOL    H4738693   6.744   3.031   7.966 -1.1895 -0.2015 -1.0156
  114MOL    H4838694   7.032   3.116   0.123 -0.9558  2.0703  0.8472
  114MOL    H4938695   7.156   3.136   7.951 -0.5431  0.1140  1.6620
  114MOL    H5038696   7.140   3.184   7.706  0.5619  2.6774  2.8298
  114MOL    H5138697   7.023   3.065   7.360  0.3261  1.4070 -0.5474
  114MOL    H5238698   7.129   3.122   7.487 -1.0781 -0.7026  2.7854
  114MOL    C5338699   7.076   2.913   7.509  0.4165  1.0524  0.2576
  114MOL    C5438700   6.963   2.817   7.479  0.0369  0.3443 -0.5897
  114MOL    C5538701   6.892   2.755   7.586  0.5423 -0.3374 -0.3158
  114MOL    C5638702   6.779   2.671   7.558  0.2189 -0.5135  0.4444
  114MOL    C5738703   6.747   2.647   7.424  0.0140 -0.0616 -0.5367
  114MOL    O5838704   6.630   2.580   7.399 -0.0537  0.1116 -0.5427
  114MOL    C5938705   6.812   2.702   7.320  0.6073 -0.5970 -0.3349
  114MOL    C6038706   6.918   2.792   7.346 -0.0510  0.3165  0.0725
  114MOL    C6138707   7.215   2.858   7.452 -0.4801  0.0186 -0.9302
  114MOL    H6238708   7.084   2.908   7.618  1.7484 -2.5926  0.0546
  114MOL    H6338709   6.906   2.776   7.691 -0.0708  0.4292 -0.3799
  114MOL    H6438710   6.715   2.615   7.624  0.0890  0.7272  1.3987
  114MOL    H6538711   6.616   2.618   7.313  1.3649  0.9137 -0.4402
  114MOL    H6638712   6.783   2.678   7.219 -0.6972 -0.5470  0.0235
  114MOL    H6738713   6.967   2.832   7.258  2.7621  2.3616  2.4836
  114MOL    H6838714   7.291   2.936   7.448  0.9285 -1.2940 -0.3643
  114MOL    H6938715   7.216   2.836   7.345 -0.3324 -0.4733 -0.8279
  114MOL    C7038716   7.265   2.741   7.541 -0.0818  0.1475 -0.0248
  114MOL    C7138717   7.301   2.800   7.672  0.5610 -0.3284  0.0674
  114MOL    C7238718   7.228   2.765   7.790 -0.8215  0.7789  0.4615
  114MOL    C7338719   7.282   2.805   7.914 -0.2910 -0.7275 -0.8078
  114MOL    C7438720   7.392   2.895   7.917  0.1564  1.2003 -0.0870
  114MOL    O7538721   7.439   2.943   8.035 -0.1621  0.2467  0.1150
  114MOL    C7638722   7.465   2.925   7.797  0.2821  0.2465 -0.0237
  114MOL    C7738723   7.419   2.883   7.676 -0.5964 -0.5608  0.3550
  114MOL    C7838724   7.380   2.672   7.469  0.3949  0.2269 -0.2094
  114MOL    H7938725   7.192   2.661   7.555  0.1159  0.1173  0.8632
  114MOL    H8038726   7.136   2.710   7.778  0.2347 -1.1903  1.2113
  114MOL    H8138727   7.227   2.776   8.002 -0.3468 -1.6353 -1.1313
  114MOL    H8238728   7.416   2.899   0.079  1.2768 -0.2901  0.2391
  114MOL    H8338729   7.548   2.993   7.794 -2.1258  3.2822 -0.3410
  114MOL    H8438730   7.471   2.914   7.586 -1.8223 -1.7022 -0.7866
  114MOL    H8538731   7.445   2.745   7.420 -1.4621  2.8962  1.1383
  114MOL    H8638732   7.335   2.634   7.377  1.3739 -0.8643 -0.2421
  114MOL    C8738733   7.462   2.575   7.564 -0.6596  0.4371  0.1383
  114MOL    C8838734   7.584   2.631   7.628  0.9598  0.5711 -0.0229
  114MOL    C8938735   7.590   2.637   7.771  0.2117  0.2307  0.4033
  114MOL    C9038736   7.714   2.668   7.831  0.3460 -0.3593  0.1424
  114MOL    C9138737   7.826   2.697   7.748 -0.0121 -0.4271  0.2546
  114MOL    O9238738   7.952   2.720   7.808  0.7156  0.1128  0.6661
  114MOL    C9338739   7.809   2.712   7.609  0.6308 -0.0656  0.1026
  114MOL    C9438740   7.688   2.683   7.550  0.1606  0.1461  0.6196
  114MOL    C9538741   7.512   2.442   7.498  0.2965  0.4363 -0.1109
  114MOL    H9638742   7.396   2.557   7.649 -0.4386  0.5246  0.3304
  114MOL    H9738743   7.507   2.612   7.835  0.5374  1.5842  1.3703
  114MOL    H9838744   7.734   2.655   7.936 -0.8356  0.1571  0.4432
  114MOL    H9938745   7.972   2.690   7.896  0.3404 -1.0338  0.3699
  114MOL   H10038746   7.889   2.757   7.552  0.1960  0.2595 -0.2557
  114MOL   H10138747   7.675   2.694   7.444 -0.5371 -2.8504  0.3366
  114MOL   H10238748   7.432   2.404   7.434  0.2944 -0.0398  0.1728
  114MOL   H10338749   7.596   2.462   7.431 -0.9644  0.7611 -1.6326
  114MOL   C10438750   7.559   2.333   7.600 -0.6564 -0.3736 -0.3341
  114MOL   C10538751   7.662   2.242   7.540  0.7801  0.1615  0.5548
  114MOL   C10638752   7.796   2.261   7.578  0.1390  0.3256 -0.3589
  114MOL   C10738753   7.898   2.187   7.509  0.1312  0.2373 -0.1623
  114MOL   C10838754   7.864   2.083   7.425  0.2781 -0.0145 -0.1541
  114MOL   O10938755   7.960   2.011   7.361 -0.3820  0.4878  0.6777
  114MOL   C11038756   7.733   2.062   7.390 -0.0042 -0.0323 -0.3815
  114MOL   C11138757   7.627   2.143   7.444  0.4259  0.2760  0.4983
  114MOL   C11238758   7.438   2.252   7.648  0.0254 -0.0250  0.8763
  114MOL   H11338759   7.595   2.382   7.690 -0.4152 -1.4513  0.1697
  114MOL   H11438760   7.824   2.338   7.649 -2.1345 -0.6681  1.7125
  114MOL   H11538761   8.004   2.199   7.525  0.5184 -2.6737 -0.1141
  114MOL   H11638762   7.936   1.920   7.355  2.4506 -0.2123 -1.2917
  114MOL   H11738763   7.720   1.990   7.310 -1.8389 -0.8052  0.5795
  114MOL   H11838764   7.523   2.135   7.416 -0.0252  1.2242  1.8117
  114MOL   H11938765   7.397   2.197   7.563  3.2583 -1.6890  0.2843
  114MOL   H12038766   7.361   2.320   7.685  2.9062  3.5950  0.5414
  114MOL   C12138767   7.459   2.164   7.773  0.4432  0.5476  0.3434
  114MOL   C12238768   7.523   2.249   7.889 -0.1789 -0.3143 -0.1017
  114MOL   C12338769   7.456   2.345   7.965  0.0951 -0.0493  0.3651
  114MOL   C12438770   7.520   2.424   0.024 -0.0959  1.1785 -0.0462
  114MOL   C12538771   7.660   2.417   0.044 -0.0851  0.4879  0.4913
  114MOL   O12638772   7.712   2.487   0.147  0.1106 -0.8471 -0.1287
  114MOL   C12738773   7.733   2.327   7.992 -0.2567  0.2200 -0.5618
  114MOL   C12838774   7.664   2.240   7.908 -0.0519  0.0739 -0.6255
  114MOL   C12938775   7.336   2.080   7.816  0.4880  0.7285  0.1414
  114MOL   H13038776   7.538   2.103   7.731  0.6765  1.5302 -0.6722
  114MOL   H13138777   7.350   2.365   7.953 -0.1923 -0.2811  2.3962
  114MOL   H13238778   7.465   2.490   0.090 -1.9717 -1.0798  0.7495
  114MOL   H13338779   7.803   2.466   0.160 -0.0643 -1.7703 -0.3884
  114MOL   H13438780   7.839   2.319   8.006 -0.8186 -1.6000  3.4509
  114MOL   H13538781   7.721   2.175   7.843  1.0886  0.7147 -0.2878
  114MOL   H13638782   7.255   2.131   7.764 -0.9502  0.4537  2.0430
  114MOL   H13738783   7.325   2.074   7.925 -1.7623  2.1688  0.0315
  114MOL   C13838784   7.337   1.937   7.754 -0.6557  0.1871  0.5642
  114MOL   C13938785   7.352   1.928   7.599 -0.1661  0.5151 -0.0396
  114MOL   C14038786   7.251   1.986   7.519  0.4043 -0.0307 -0.5526
  114MOL   C14138787   7.250   1.987   7.382 -0.1580  0.4363 -1.0086
  114MOL   C14238788   7.358   1.931   7.316  0.1671 -0.1037  1.0139
  114MOL   O14338789   7.370   1.942   7.178 -0.1998  0.5956 -0.7121
  114MOL   C14438790   7.446   1.853   7.390 -0.1674  0.0977 -0.1646
  114MOL   C14538791   7.452   1.857   7.532  0.2164  0.6846 -0.2975
  114MOL   C14638792   7.208   1.856   7.792  0.1817  0.0839 -0.1585
  114MOL   H14738793   7.422   1.886   7.799 -1.0083 -1.3080 -0.4247
  114MOL   H14838794   7.172   2.042   7.566 -0.0898 -1.0560 -0.1503
  114MOL   H14938795   7.175   2.040   7.326  1.1360  3.2070 -0.2555
  114MOL   H15038796   7.417   1.879   7.126  0.0839  0.9869 -0.9383
  114MOL   H15138797   7.525   1.803   7.336  1.0500  2.0444 -0.2706
  114MOL   H15238798   7.525   1.795   7.581 -1.8234 -0.6099  1.1834
  114MOL   H15338799   7.127   1.885   7.725  0.1714 -0.3593 -0.3410
  114MOL   H15438800   7.179   1.892   7.890  1.4056 -0.5297  0.4410
  114MOL   C15538801   7.228   1.706   7.799  0.1797  0.6650  0.5870
  114MOL   C15638802   7.107   1.618   7.752  0.1041 -0.3701  0.2505
  114MOL   C15738803   6.982   1.636   7.809 -0.6292  0.3475  0.5202
  114MOL   C15838804   6.878   1.544   7.784 -0.1385 -0.1267 -0.8910
  114MOL   C15938805   6.895   1.426   7.705  0.0534 -0.4242 -0.3199
  114MOL   O16038806   6.795   1.332   7.695  0.1615  0.5779 -0.6001
  114MOL   C16138807   7.022   1.420   7.637  0.7105  0.6000  1.0786
  114MOL   C16238808   7.123   1.515   7.662  0.1880 -0.1212  1.3076
  114MOL   C16338809   7.271   1.661   7.940 -0.0648  0.2833 -0.1383
  114MOL   H16438810   7.317   1.691   7.738 -2.0927 -3.5890 -1.8663
  114MOL   H16538811   6.951   1.716   7.874  0.6512  0.9214  0.4527
  114MOL   H16638812   6.779   1.556   7.825  1.3667  3.7393  1.8553
  114MOL   H16738813   6.828   1.248   7.723 -0.4188  0.5911  0.1273
  114MOL   H16838814   7.031   1.335   7.571 -2.3573  1.6702 -0.8627
  114MOL   H16938815   7.219   1.492   7.618  0.1033  0.5692  0.7478
  114MOL   H17038816   7.177   1.661   7.995 -0.6637  1.6132 -1.1498
  114MOL   H17138817   7.325   1.743   7.988 -0.3719  0.4961 -0.1580
  114MOL   C17238818   7.341   1.520   7.953  0.2564  0.4141 -0.4930
  114MOL   C17338819   7.293   1.450   0.044  0.4350  0.2371  0.1808
  114MOL   C17438820   7.260   1.315   0.036  0.6266  0.2275 -0.5383
  114MOL   C17538821   7.206   1.251   0.153 -0.3705  0.3491  0.8812
  114MOL   C17638822   7.218   1.316   0.281 -0.3948  0.7611  0.9183
  114MOL   O17738823   7.192   1.253   0.393  0.4136  0.0115  0.3011
  114MOL   C17838824   7.261   1.451   0.287  0.3766  0.0940 -0.1918
  114MOL   C17938825   7.298   1.513   0.172 -0.0910  0.3906  0.3400
  114MOL   C18038826   7.491   1.537   7.966  0.3400 -0.1627  0.6045
  114MOL   H18138827   7.314   1.460   7.866  2.3320 -0.4913 -0.5288
  114MOL   H18238828   7.276   1.264   7.979  4.0769 -1.6740  0.9864
  114MOL   H18338829   7.163   1.153   0.140  1.0526 -0.4175  1.8013
  114MOL   H18438830   7.155   1.312   0.458  1.9706 -1.2212  2.3552
  114MOL   H18538831   7.277   1.503   0.380 -0.3993 -1.0104  0.5717
  114MOL   H18638832   7.325   1.617   0.175  0.7093  0.3115 -2.7986
  114MOL   H18738833   7.514   1.589   0.021  0.2672  1.9449 -0.5363
  114MOL   H18838834   7.527   1.605   7.889 -1.0747  0.1960  0.2538
  114MOL   C18938835   7.572   1.406   7.960  0.4203  0.0939  0.1143
  114MOL   C19038836   7.569   1.344   7.818  0.1545  0.1532 -0.1582
  114MOL   C19138837   7.583   1.416   7.700  0.7163 -0.2366  0.3928
  114MOL   C19238838   7.573   1.353   7.575  0.1888  1.1161  0.4702
  114MOL   C19338839   7.558   1.211   7.569  0.1849  0.2903 -0.1453
  114MOL   O19438840   7.565   1.137   7.451 -0.1559  0.3391 -0.3147
  114MOL   C19538841   7.541   1.146   7.693 -0.3679 -0.2702  0.4081
  114MOL   C19638842   7.549   1.203   7.814 -0.3763  0.0137  0.2787
  114MOL   C19738843   7.713   1.428   8.009  0.1014 -0.0992 -0.4625
  114MOL   H19838844   7.532   1.327   8.024  0.2836 -0.8387 -1.1080
  114MOL   H19938845   7.612   1.520   7.703  1.5526 -0.4294 -1.0643
  114MOL   H20038846   7.570   1.403   7.480  1.4093  1.5209  0.6409
  114MOL   H20138847   7.633   1.073   7.463 -1.5260 -1.3275 -1.2921
  114MOL   H20238848   7.545   1.038   7.690 -0.9414 -0.2876  0.2976
  114MOL   H20338849   7.559   1.138   7.900  1.5045 -1.1586 -0.7778
  114MOL   H20438850   7.712   1.501   0.053  3.8471  0.0121 -0.4076
  114MOL   H20538851   7.755   1.503   7.942  0.6606 -0.3818 -0.4309
  114MOL   C20638852   7.814   1.315   8.025  0.3075  0.9395 -0.1547
  114MOL   C20738853   7.761   1.198   0.079 -0.0379 -0.5948  0.0842
  114MOL   C20838854   7.802   1.062   0.056 -0.2514  0.0624  0.0977
  114MOL   C20938855   7.753   0.958   0.140 -0.3933  0.3000 -0.1797
  114MOL   C21038856   7.674   0.987   0.249  0.4931 -0.3889 -0.7687
  114MOL   O21138857   7.609   0.890   0.314 -0.0758 -0.1127 -0.7041
  114MOL   C21238858   7.639   1.115   0.280 -0.6690 -0.1300  0.1813
  114MOL   C21338859   7.679   1.222   0.193 -0.3928  0.6531 -0.3171
  114MOL   C21438860   7.954   1.356   0.041  0.4181  0.2244 -0.0659
  114MOL   H21538861   7.826   1.261   7.931  0.9328  0.2662  0.3050
  114MOL   H21638862   7.862   1.041   8.006  1.8525  1.1682  1.2405
  114MOL   H21738863   7.782   0.855   0.124 -1.3412  0.3983 -2.9167
  114MOL   H21838864   7.535   0.928   0.359 -0.2896 -0.3824 -0.8244
  114MOL   H21938865   7.573   1.131   0.364 -0.3501 -1.5062  0.7083
  114MOL   H22038866   7.646   1.321   0.219  2.4182  1.2411  1.2045
  114MOL   H22138867   8.007   1.262   0.050 -0.7313 -0.4453 -0.2448
  114MOL   H22238868   7.948   1.403   0.139  1.1813  0.0541  0.0657
  114MOL   C22338869   8.026   1.450   7.979 -0.2773  0.3841  0.2629
  114MOL   C22438870   8.015   1.401   7.833  0.0337  0.2470  0.9571
  114MOL   C22538871   0.001   1.259   7.803 -0.1718 -0.0093 -0.1374
  114MOL   C22638872   8.028   1.216   7.673  0.0360  0.1312 -0.7064
  114MOL   C22738873   7.972   1.294   7.574  1.3340 -0.1313  0.4403
  114MOL   O22838874   7.945   1.242   7.447  0.0721 -0.0704  0.3887
  114MOL   C22938875   7.942   1.431   7.601  0.1658  0.1354  0.4218
  114MOL   C23038876   7.960   1.481   7.733 -0.5753 -0.2170  0.3575
  114MOL   C23138877   0.141   1.480   8.006 -0.3101  0.2250 -0.3877
  114MOL   H23238878   7.968   1.542   7.986  0.6915  0.9989  0.3880
  114MOL   H23338879   0.057   1.196   7.870  3.3719  2.2244 -0.8582
  114MOL   H23438880   0.026   1.115   7.657 -1.7444 -0.6043 -0.2423
  114MOL   H23538881   7.948   1.149   7.464  1.3439  0.1984  1.6978
  114MOL   H23638882   7.903   1.494   7.522  0.1145  0.6354  0.8436
  114MOL   H23738883   7.918   1.577   7.757 -1.3933 -0.9373  1.8943
  114MOL   H23838884   0.186   1.383   7.989  3.6250  1.6757  1.2123
  114MOL   H23938885   0.182   1.548   7.932 -1.5461  0.8954 -0.4820
  114MOL   C24038886   0.186   1.520   0.108 -0.0725 -0.3725  0.2403
  114MOL   C24138887   0.343   1.515   0.118 -0.4936  0.4875 -0.0738
  114MOL   C24238888   0.393   1.412   0.195 -0.3434 -0.0357  0.4021
  114MOL   C24338889   0.533   1.414   0.203  0.4037 -0.7556 -0.0356
  114MOL   C24438890   0.618   1.483   0.113  0.5300  0.2636  0.0959
  114MOL   O24538891   0.750   1.475   0.117  0.5304 -0.5058 -0.7305
  114MOL   C24638892   0.561   1.570   0.022 -1.2783 -0.5139 -0.5691
  114MOL   C24738893   0.422   1.591   0.026  0.0490 -0.1131  0.0537
  114MOL   C24838894   0.134   1.658   0.132 -0.0009 -0.8699  0.5285
  114MOL   H24938895   0.139   1.448   0.175  0.1226 -0.4078  0.3381
  114MOL   H25038896   0.325   1.354   0.255 -0.9521  0.8669  0.5939
  114MOL   H25138897   0.579   1.347   0.275 -3.7161 -2.1647  1.4272
  114MOL   H25238898   0.775   1.397   0.164  4.0275  0.8560 -0.2355
  114MOL   H25338899   0.614   1.626   7.985 -0.7390 -0.9681 -0.5271
  114MOL   H25438900   0.369   1.659   7.999  1.3772  0.4608 -0.4472
  114MOL   H25538901   0.166   1.718   0.046 -1.3845 -0.3013  0.4022
  114MOL   H25638902   0.025   1.655   0.137 -0.0982  2.2482  1.6370
  114MOL   C25738903   0.183   1.725   0.265 -0.2239  0.6432 -0.1950
  114MOL   C25838904   0.189   1.880   0.257 -0.9523  0.4453 -0.1912
  114MOL   C25938905   0.314   1.937   0.278 -0.5345 -1.3359  0.2681
  114MOL   C26038906   0.326   2.076   0.296 -0.2655 -0.4889  0.1247
  114MOL   C26138907   0.209   2.161   0.276  0.7151 -0.0834 -0.5362
  114MOL   O26238908   0.208   2.291   0.305 -0.0563 -0.1367 -0.0281
  114MOL   C26338909   0.082   2.105   0.240 -0.4637  0.1933  0.0662
  114MOL   C26438910   0.072   1.962   0.237  0.6074 -0.7825 -0.0385
  114MOL   C26538911   0.103   1.684   0.391  0.8834 -0.0137 -0.2378
  114MOL   H26638912   0.286   1.694   0.282 -0.2904  0.7348  0.3655
  114MOL   H26738913   0.403   1.879   0.298  0.8450  0.9968  1.1928
  114MOL   H26838914   0.422   2.110   0.332  0.5534 -0.0848 -2.3283
  114MOL   H26938915   0.294   2.325   0.326  0.0816  0.2643 -1.1856
  114MOL   H27038916   8.033   2.167   0.220  0.9272  1.9873 -0.6400
  114MOL   H27138917   8.018   1.917   0.203  0.5711 -2.5897  2.3033
  114MOL   H27238918   0.112   1.576   0.385  2.3198 -0.1189  2.5498
  114MOL   H27338919   8.034   1.702   0.386  0.5498 -1.1274  2.0215
  114MOL   C27438920   0.158   1.736   0.525  0.0477 -0.7962 -0.8356
  114MOL   C27538921   0.308   1.720   0.544  1.1562 -0.5234  0.1639
  114MOL   C27638922   0.394   1.824   0.577 -0.9811  0.3256 -0.0955
  114MOL   C27738923   0.533   1.811   0.581 -0.8210 -0.5751 -0.0909
  114MOL   C27838924   0.587   1.688   0.557 -0.2114 -0.5181  0.3646
  114MOL   O27938925   0.721   1.678   0.556  0.1782 -0.1773  0.2515
  114MOL   C28038926   0.502   1.577   0.527  0.1313 -0.2135  0.2451
  114MOL   C28138927   0.362   1.597   0.517  0.2996  0.4155  0.1530
  114MOL   C28238928   0.084   1.674   0.645  0.3899 -0.4893  0.0590
  114MOL   H28338929   0.134   1.843   0.532 -3.9115 -1.7261  1.3788
  114MOL   H28438930   0.355   1.922   0.600  0.5323  0.6105  1.4626
  114MOL   H28538931   0.593   1.900   0.595 -3.2662  0.7596  2.4273
  114MOL   H28638932   0.741   1.588   0.536  1.8616  0.1437  0.4741
  114MOL   H28738933   0.551   1.482   0.508 -0.4052 -0.2699 -0.8419
  114MOL   H28838934   0.302   1.520   0.471 -0.1275 -0.3953  2.0150
  114MOL   H28938935   8.015   1.692   0.630  0.5701  1.4742  1.0589
  114MOL   H29038936   0.103   1.567   0.652  0.8060 -0.3537  1.1401
  114MOL   C29138937   0.092   1.728   0.792 -0.3038 -0.3559 -0.1748
  114MOL   C29238938   0.230   1.713   0.860  0.0058 -0.1615  0.9821
  114MOL   C29338939   0.271   1.586   0.902  0.0202  0.1536 -0.1407
  114MOL   C29438940   0.391   1.564   0.974 -0.1735  0.1700  0.2003
  114MOL   C29538941   0.473   1.670   0.999 -0.1437  0.1861 -0.5385
  114MOL   O29638942   0.589   1.657   1.071 -0.3505  0.3614 -0.3066
  114MOL   C29738943   0.440   1.797   0.946 -0.0991 -0.1193 -0.1233
  114MOL   C29838944   0.318   1.824   0.878 -0.5388 -0.0103  0.2831
  114MOL   C29938945   8.018   1.673   0.889  0.3258  0.2241  0.0502
  114MOL   H30038946   0.082   1.836   0.782 -2.3893 -0.7316 -2.3673
  114MOL   H30138947   0.202   1.504   0.888 -1.1974  1.4813 -2.2332
  114MOL   H30238948   0.408   1.463   1.009 -0.5432  0.5062  1.3615
  114MOL   H30338949   0.591   1.574   1.116 -1.9479  0.9671  0.9354
  114MOL   H30438950   0.489   1.892   0.956 -2.9851  1.4941 -0.6737
  114MOL   H30538951   0.279   1.924   0.862  0.9673  0.2861 -1.7002
  114MOL   H30638952   7.995   1.568   0.875 -0.5380  0.0993  2.1947
  114MOL   H30738953   7.925   1.721   0.858  0.2642 -0.6257 -1.1119
  114MOL   C30838954   8.029   1.705   1.039  0.5628  0.6876  0.0253
  114MOL   C30938955   7.928   1.618   1.119  0.0310  0.2589  0.0942
  114MOL   C31038956   7.796   1.667   1.136  0.8718  0.1670  0.1066
  114MOL   C31138957   7.710   1.584   1.221  0.0681 -0.2423  0.8271
  114MOL   C31238958   7.755   1.470   1.284  0.1487 -0.4900 -0.4968
  114MOL   O31338959   7.665   1.406   1.364 -0.4475  0.6672 -0.0969
  114MOL   C31438960   7.887   1.423   1.267  0.3531 -0.6314  0.9610
  114MOL   C31538961   7.972   1.499   1.186 -0.4125 -0.0770  0.0324
  114MOL   C31638962   0.003   1.853   1.068 -0.0409 -0.2355  0.4351
  114MOL   H31738963   0.092   1.669   1.062  0.0028 -1.1124 -0.2609
  114MOL   H31838964   7.765   1.757   1.086  0.0386 -0.3759 -0.3585
  114MOL   H31938965   7.608   1.618   1.225  0.1694  0.3292 -0.8108
  114MOL   H32038966   7.589   1.459   1.381 -0.8432  0.7316 -1.9323
  114MOL   H32138967   7.925   1.338   1.322  1.7778 -0.7726 -0.2183
  114MOL   H32238968   0.032   1.457   1.165 -0.0826  1.9379 -2.6879
  114MOL   H32338969   7.954   1.903   1.026 -0.2019  0.6225  1.7549
  114MOL   H32438970   0.085   1.897   1.012 -0.1327 -0.0397  0.4538
  114MOL   C32538971   0.037   1.888   1.217 -0.8407 -0.3759 -0.5043
  114MOL   C32638972   0.026   2.037   1.258  0.3106 -0.0639  0.1054
  114MOL   C32738973   0.001   2.080   1.389 -0.6372  0.3043  0.7208
  114MOL   C32838974   0.003   2.212   1.425 -0.7435 -0.8456 -0.4872
  114MOL   C32938975   0.013   2.311   1.323  0.9233  0.9200  0.5125
  114MOL   O33038976   0.007   2.441   1.357  0.1635 -0.0432 -0.1918
  114MOL   C33138977   0.035   2.268   1.187 -0.6612  0.2774 -0.3539
  114MOL   C33238978   0.038   2.131   1.157 -0.2751 -0.7160 -0.1938
  114MOL   C33338979   0.181   1.833   1.255  0.0610 -0.3728  0.0362
  114MOL   H33438980   8.002   1.835   1.279 -0.7453  0.7205  0.5592
  114MOL   H33538981   8.026   2.011   1.472  1.1608 -0.0727  0.6925
  114MOL   H33638982   0.003   2.246   1.528  0.1717  2.3571 -1.4711
  114MOL   H33738983   8.014   2.503   1.292 -0.5469 -0.4858 -0.2830
  114MOL   H33838984   0.039   2.339   1.105 -1.6980  0.3653 -0.3321
  114MOL   H33938985   0.052   2.109   1.053  1.5114 -0.9596  0.0912
  114MOL   H34038986   0.255   1.846   1.176 -0.7746 -0.2452 -0.7162
  114MOL   H34138987   0.191   1.727   1.277 -1.4708 -1.1384 -2.8010
  114MOL   H34238988   0.213   1.882   1.347 -2.6187  0.5699  0.5039
  115MOL     C138989   6.848   3.877   6.568 -0.6041 -0.1684  0.1754
  115MOL     C238990   6.699   3.853   6.592 -0.3894  0.4464 -0.3056
  115MOL     C338991   6.606   3.956   6.563  1.0002 -0.2060  0.3777
  115MOL     C438992   6.468   3.933   6.597 -0.1590 -0.5859  0.4773
  115MOL     C538993   6.428   3.819   6.664  0.1801  0.3516  0.3097
  115MOL     O638994   6.293   3.806   6.692  0.4698  0.4991  0.6191
  115MOL     C738995   6.519   3.715   6.690 -0.1440  0.0885  0.5477
  115MOL     C838996   6.653   3.739   6.652  1.3411  0.5455  0.3861
  115MOL     C938997   6.925   3.932   6.687 -0.6885 -0.0535 -0.3690
  115MOL    H1038998   6.898   3.788   6.530  0.2429 -0.0815  1.0620
  115MOL    H1138999   6.630   4.044   6.505  1.6606 -1.2486 -0.9743
  115MOL    H1239000   6.397   4.008   6.563 -0.1855 -0.0578  1.6918
  115MOL    H1339001   6.278   3.714   6.705 -0.2839  0.4565 -0.4760
  115MOL    H1439002   6.492   3.625   6.744 -0.7539  0.2665  0.5413
  115MOL    H1539003   6.721   3.661   6.683  0.0667 -0.9974 -0.6589
  115MOL    H1639004   6.925   3.854   6.763 -1.3486 -2.1671 -2.5138
  115MOL    H1739005   6.857   4.012   6.717  1.5999  1.9461 -0.2724
  115MOL    H1839006   6.841   3.957   6.494  2.0150 -0.6436 -0.6358
  115MOL    C1939007   7.072   3.977   6.655  0.5815  0.7597  0.1588
  115MOL    C2039008   7.156   3.998   6.783  0.7426  0.5757  0.3527
  115MOL    C2139009   7.287   3.960   6.790 -0.0517 -0.3221 -0.3096
  115MOL    C2239010   7.361   3.967   6.912  0.3208  1.0181  0.2628
  115MOL    C2339011   7.294   3.996   7.029  0.1998 -1.0062  0.0326
  115MOL    O2439012   7.357   3.995   7.148  0.5305 -0.3036 -0.3678
  115MOL    C2539013   7.164   4.044   7.022 -0.0491  0.4624  0.2951
  115MOL    C2639014   7.096   4.049   6.903 -0.3480  0.0833 -0.4512
  115MOL    C2739015   7.095   4.079   6.544  0.1103  0.0569 -0.2217
  115MOL    H2839016   7.120   3.887   6.618  0.6817 -0.0175  2.1063
  115MOL    H2939017   7.347   3.932   6.704 -1.5721  1.9091 -2.1535
  115MOL    H3039018   7.464   3.934   6.922  0.4123  1.6929  1.6313
  115MOL    H3139019   7.432   3.938   7.145  0.1218 -0.9150  0.6243
  115MOL    H3239020   7.123   4.074   7.118 -0.6607  0.0061  0.1838
  115MOL    H3339021   6.995   4.087   6.898  0.1440  1.2996 -1.1541
  115MOL    H3439022   7.057   4.027   6.456 -1.9320 -1.5210  1.5540
  115MOL    H3539023   7.202   4.094   6.530  0.5471 -2.1312  0.5671
  115MOL    C3639024   7.022   4.222   6.549  0.4354  0.6532  0.5187
  115MOL    C3739025   6.972   4.270   6.412  0.2902 -0.8008  1.2619
  115MOL    C3839026   7.062   4.303   6.311 -0.2508  0.1127  0.1075
  115MOL    C3939027   7.014   4.358   6.187 -0.7470 -0.2988  0.0291
  115MOL    C4039028   6.871   4.361   6.158 -0.2660  0.3864 -0.0927
  115MOL    O4139029   6.828   4.400   6.031 -0.0591  0.1996 -0.1026
  115MOL    C4239030   6.781   4.314   6.259 -0.4571  0.4047 -0.0930
  115MOL    C4339031   6.829   4.265   6.384 -0.2676  0.0302 -0.4130
  115MOL    C4439032   7.103   4.332   6.630  0.2125 -0.0827  0.4178
  115MOL    H4539033   6.928   4.214   6.604  0.2657  2.4963  0.5438
  115MOL    H4639034   7.168   4.295   6.329 -0.0749  1.2966 -0.3573
  115MOL    H4739035   7.084   4.381   6.108  0.0081 -0.4114  0.6574
  115MOL    H4839036   6.873   4.477   5.999  2.5824 -0.5790  1.5145
  115MOL    H4939037   6.677   4.311   6.229 -0.5558  0.3933  0.2404
  115MOL    H5039038   6.753   4.241   6.456 -1.0564  2.8696 -0.2698
  115MOL    H5139039   7.108   4.293   6.732 -3.1402 -2.0450 -0.0963
  115MOL    H5239040   7.203   4.342   6.589 -0.3075 -0.4284 -0.9425
  115MOL    C5339041   7.055   4.473   6.633 -0.0921 -0.3371 -0.4669
  115MOL    C5439042   6.909   4.493   6.667  0.4087  0.6089 -0.3188
  115MOL    C5539043   6.839   4.594   6.595  0.0413 -0.0591  0.2554
  115MOL    C5639044   6.705   4.616   6.617  0.5537 -0.1662 -0.2084
  115MOL    C5739045   6.642   4.549   6.723 -0.0692  0.1599  0.3184
  115MOL    O5839046   6.514   4.588   6.756  0.4646  0.5543 -0.0475
  115MOL    C5939047   6.715   4.452   6.798 -0.0503  0.6477  0.8396
  115MOL    C6039048   6.848   4.430   6.776 -0.3063 -0.4138  0.5762
  115MOL    C6139049   7.142   4.562   6.731 -0.6148  0.5531 -0.1007
  115MOL    H6239050   7.057   4.515   6.533 -2.1343  2.1694  0.5055
  115MOL    H6339051   6.903   4.643   6.523  0.5003  1.0440  1.3976
  115MOL    H6439052   6.662   4.698   6.560  3.8279  1.3555 -0.5811
  115MOL    H6539053   6.482   4.556   6.839  1.9494 -0.1740  0.2667
  115MOL    H6639054   6.666   4.406   6.883 -0.0685 -0.4604  0.2304
  115MOL    H6739055   6.901   4.357   6.835 -0.4031 -2.0800 -1.3214
  115MOL    H6839056   7.247   4.535   6.718 -1.1341 -1.7851  0.2468
  115MOL    H6939057   7.120   4.536   6.835  1.1559  0.9894  0.4039
  115MOL    C7039058   7.120   4.716   6.712  0.3519 -0.0324 -0.4334
  115MOL    C7139059   7.189   4.764   6.576 -0.0685  0.0768  0.5957
  115MOL    C7239060   7.115   4.846   6.487 -0.4681 -0.4296 -0.4184
  115MOL    C7339061   7.172   4.897   6.367  0.1497 -0.7290 -0.1473
  115MOL    C7439062   7.310   4.883   6.351  0.1603  0.2020  0.6484
  115MOL    O7539063   7.359   4.926   6.233 -0.3197  0.2576 -0.8054
  115MOL    C7639064   7.386   4.796   6.430 -0.1881 -0.6513  0.2959
  115MOL    C7739065   7.326   4.737   6.544 -0.2830  0.3457  0.5540
  115MOL    C7839066   7.174   4.802   6.828 -0.1792 -0.4119  0.1657
  115MOL    H7939067   7.013   4.738   6.708  0.2537 -0.6610 -1.1961
  115MOL    H8039068   7.010   4.865   6.500  0.0427  2.6885 -0.5717
  115MOL    H8139069   7.115   4.945   6.288 -1.3177 -2.0196  0.1057
  115MOL    H8239070   7.321   5.006   6.201 -0.4168  0.7312  0.4508
  115MOL    H8339071   7.488   4.776   6.402  0.3707 -0.4987  2.1442
  115MOL    H8439072   7.383   4.673   6.609 -1.2300  0.2717  1.3268
  115MOL    H8539073   7.191   4.900   6.783  0.0336 -2.7170 -5.1168
  115MOL    H8639074   7.268   4.760   6.865 -0.1379 -0.4037  0.0682
  115MOL    C8739075   7.075   4.829   6.946 -0.1328  0.3270  0.1438
  115MOL    C8839076   6.959   4.915   6.893  0.0827 -0.5933 -0.0435
  115MOL    C8939077   6.975   5.054   6.873 -0.4306  0.7315  0.7456
  115MOL    C9039078   6.861   5.137   6.839 -0.3443 -0.0398 -0.1070
  115MOL    C9139079   6.734   5.077   6.827  0.1572  0.2989 -0.1738
  115MOL    O9239080   6.624   5.156   6.807 -0.1938 -0.3629 -0.4568
  115MOL    C9339081   6.717   4.936   6.834  0.2196 -0.0391  0.2171
  115MOL    C9439082   6.825   4.859   6.879 -0.1710 -0.3473  0.0681
  115MOL    C9539083   7.145   4.895   7.077  0.1484 -0.4202  0.3074
  115MOL    H9639084   7.034   4.732   6.974  0.4577  0.2856  0.8819
  115MOL    H9739085   7.070   5.103   6.884  0.0858 -0.0784 -0.0582
  115MOL    H9839086   6.872   5.244   6.839 -0.5228 -0.0245 -0.7634
  115MOL    H9939087   6.547   5.113   6.841  0.0814  0.4747  1.2990
  115MOL   H10039088   6.622   4.886   6.824  1.3589 -2.1171 -0.6012
  115MOL   H10139089   6.811   4.754   6.899 -0.8609 -0.0311  1.2964
  115MOL   H10239090   7.214   4.816   7.104 -0.2733 -0.9104 -0.0325
  115MOL   H10339091   7.203   4.978   7.038 -0.9707 -0.2585 -1.0653
  115MOL   C10439092   7.057   4.944   7.194  0.0810  0.3556  0.5275
  115MOL   C10539093   7.155   4.999   7.300  0.0136 -0.3602  0.5288
  115MOL   C10639094   7.132   5.128   7.351 -0.4486  0.1184 -0.6649
  115MOL   C10739095   7.221   5.186   7.443  0.7358 -0.1074  0.2280
  115MOL   C10839096   7.320   5.105   7.502  0.4307  0.0383 -0.4420
  115MOL   O10939097   7.405   5.149   7.598 -0.1028  0.3437 -0.4544
  115MOL   C11039098   7.344   4.975   7.461  0.2118  0.2244  0.0470
  115MOL   C11139099   7.269   4.927   7.351  0.7218  0.2637 -0.0876
  115MOL   C11239100   6.986   4.827   7.265 -0.2868 -0.0015 -0.7967
  115MOL   H11339101   6.988   5.022   7.163  2.4917  2.3498 -0.0399
  115MOL   H11439102   7.048   5.189   7.321 -0.5959  1.1521  1.7507
  115MOL   H11539103   7.195   5.285   7.477  1.8025  0.7335 -1.3723
  115MOL   H11639104   7.368   5.231   7.628 -0.8599 -0.4391  0.8002
  115MOL   H11739105   7.425   4.914   7.498  0.1241  1.0178  1.6053
  115MOL   H11839106   7.289   4.828   7.313  2.9372  1.5888 -2.5737
  115MOL   H11939107   7.065   4.764   7.306 -1.4067 -0.3026  0.9798
  115MOL   H12039108   6.931   4.770   7.191  0.2816  0.3746 -1.5127
  115MOL   C12139109   6.867   4.860   7.352 -0.7564 -0.5218  0.5151
  115MOL   C12239110   6.752   4.932   7.275  0.2830 -0.2731  0.3868
  115MOL   C12339111   6.747   5.074   7.270 -0.0367  0.2277  0.5702
  115MOL   C12439112   6.639   5.141   7.210  0.0309  0.4590 -0.4621
  115MOL   C12539113   6.553   5.071   7.132  0.3196  0.0490 -0.3424
  115MOL   O12639114   6.466   5.143   7.057  0.1482 -0.2676  0.0557
  115MOL   C12739115   6.549   4.927   7.126 -0.2591  0.1124 -1.1125
  115MOL   C12839116   6.647   4.860   7.200  0.0229 -0.4901  0.1680
  115MOL   C12939117   6.818   4.731   7.420 -0.0574  0.2813  0.6364
  115MOL   H13039118   6.907   4.924   7.431  1.6268 -0.2387 -0.8554
  115MOL   H13139119   6.826   5.136   7.309  0.3678 -2.0470  3.5372
  115MOL   H13239120   6.642   5.248   7.223 -0.0766  0.2991  0.9020
  115MOL   H13339121   6.484   5.236   7.056  0.5984 -0.3544 -0.4672
  115MOL   H13439122   6.468   4.876   7.076 -0.2238 -0.7376 -0.3248
  115MOL   H13539123   6.636   4.753   7.192  1.9918 -0.6913  0.0949
  115MOL   H13639124   6.854   4.648   7.360  0.9664  1.8870 -1.0672
  115MOL   H13739125   6.711   4.732   7.403 -0.1070  0.4120  0.9550
  115MOL   C13839126   6.847   4.717   7.578 -0.9488  0.0359 -0.4317
  115MOL   C13939127   6.992   4.719   7.610  0.7853 -1.0092 -0.1168
  115MOL   C14039128   7.031   4.805   7.714 -0.5561  0.5675 -0.5745
  115MOL   C14139129   7.170   4.812   7.742  0.3738  0.4974  0.5785
  115MOL   C14239130   7.261   4.738   7.673 -0.3248 -0.8899  0.1332
  115MOL   O14339131   7.388   4.736   7.713  0.5309 -0.1335  0.2246
  115MOL   C14439132   7.216   4.649   7.573  0.6010  0.3883 -0.4703
  115MOL   C14539133   7.085   4.644   7.535  0.4554 -0.4113 -0.0098
  115MOL   C14639134   6.773   4.593   7.640  1.0445  0.9651  0.0874
  115MOL   H14739135   6.804   4.808   7.620 -1.0589 -0.0744 -0.3073
  115MOL   H14839136   6.963   4.842   7.789 -0.7705 -1.7898  0.4530
  115MOL   H14939137   7.216   4.874   7.817  0.1960  0.0288  1.0776
  115MOL   H15039138   7.412   4.810   7.767  1.5913 -1.1400  1.1573
  115MOL   H15139139   7.296   4.599   7.521  1.8506 -0.6873  2.3423
  115MOL   H15239140   7.060   4.589   7.445  0.4391 -1.4742  0.6440
  115MOL   H15339141   6.803   4.575   7.743 -0.4409  1.3661  0.5864
  115MOL   H15439142   6.802   4.508   7.578 -0.5620  0.9651 -0.6890
  115MOL   C15539143   6.620   4.599   7.625  0.1769  0.4484 -0.3097
  115MOL   C15639144   6.568   4.739   7.669  0.3175 -0.3396 -0.9412
  115MOL   C15739145   6.559   4.773   7.803 -0.0532  0.5785 -0.4507
  115MOL   C15839146   6.500   4.896   7.843 -0.6342 -0.4010 -0.3310
  115MOL   C15939147   6.453   4.985   7.740  0.8466  0.0596  0.1415
  115MOL   O16039148   6.397   5.107   7.766 -0.4256  0.3671 -0.3568
  115MOL   C16139149   6.472   4.957   7.605 -0.0283  0.6223  0.1903
  115MOL   C16239150   6.522   4.828   7.569 -0.0238 -0.6621  0.8356
  115MOL   C16339151   6.537   4.481   7.698 -0.0601  0.5851 -0.2680
  115MOL   H16439152   6.583   4.592   7.523 -0.4988 -0.0975 -0.0270
  115MOL   H16539153   6.581   4.702   7.881 -0.5699 -0.4196 -1.2079
  115MOL   H16639154   6.498   4.917   7.949  1.3667  0.0164 -0.3594
  115MOL   H16739155   6.433   5.140   7.846  1.4536 -1.1139 -0.5605
  115MOL   H16839156   6.445   5.032   7.532  3.1685  3.1900  1.5519
  115MOL   H16939157   6.536   4.796   7.467  1.7840  2.6428 -0.0568
  115MOL   H17039158   6.445   4.530   7.730  0.4601  1.0188  0.5997
  115MOL   H17139159   6.596   4.450   7.785 -1.5868 -1.3061  0.1219
  115MOL   C17239160   6.505   4.363   7.607  0.0869 -0.6872  0.9971
  115MOL   C17339161   6.381   4.291   7.648 -0.0395  0.6198 -0.2317
  115MOL   C17439162   6.286   4.245   7.552 -0.1100  1.1220  0.6298
  115MOL   C17539163   6.166   4.190   7.596 -0.3413 -0.2022  0.0941
  115MOL   C17639164   6.134   4.172   7.730 -0.1870 -0.4157 -0.8312
  115MOL   O17739165   6.024   4.113   7.777 -0.0231  0.1181 -0.2746
  115MOL   C17839166   6.226   4.211   7.830 -0.2366  0.8778  0.2611
  115MOL   C17939167   6.348   4.277   7.788 -0.2468  0.3468  0.4255
  115MOL   C18039168   6.627   4.270   7.592  0.6877  0.1109  0.3291
  115MOL   H18139169   6.483   4.406   7.509  0.4447 -1.3626  0.6228
  115MOL   H18239170   6.312   4.243   7.447  1.2185 -0.0797  0.9796
  115MOL   H18339171   6.104   4.139   7.523  1.4560  1.0482 -2.3899
  115MOL   H18439172   6.006   4.149   7.863  1.0396  0.7125 -0.2917
  115MOL   H18539173   6.209   4.192   7.935 -1.2869 -1.1582 -0.2543
  115MOL   H18639174   6.417   4.301   7.867 -0.5666  0.2361  0.7416
  115MOL   H18739175   6.606   4.184   7.657  0.2782  2.6050  3.6110
  115MOL   H18839176   6.720   4.315   7.627 -0.9720  2.3588  2.0010
  115MOL   C18939177   6.638   4.199   7.458  0.3171  0.0248 -0.0107
  115MOL   C19039178   6.708   4.286   7.359 -0.3551 -0.3905  0.5799
  115MOL   C19139179   6.646   4.349   7.254  0.3669  0.3470  0.6258
  115MOL   C19239180   6.716   4.419   7.156 -0.9801 -0.5388  0.5802
  115MOL   C19339181   6.859   4.435   7.165 -0.1221 -0.0424 -0.0989
  115MOL   O19439182   6.929   4.497   7.066  0.4279 -0.1111  0.7257
  115MOL   C19539183   6.926   4.382   7.282 -0.0304  0.0268 -0.2844
  115MOL   C19639184   6.847   4.303   7.376 -0.7447  0.1554 -0.3709
  115MOL   C19739185   6.710   4.058   7.469  0.2512 -0.4820 -0.4733
  115MOL   H19839186   6.541   4.185   7.410 -0.3369  2.6478  0.4329
  115MOL   H19939187   6.540   4.349   7.236  0.3980  2.1243  0.2877
  115MOL   H20039188   6.652   4.460   7.079 -1.6064 -0.4736  1.1438
  115MOL   H20139189   7.009   4.450   7.044  0.8319  0.8667  0.0382
  115MOL   H20239190   7.027   4.416   7.300 -0.9901  2.4751  0.7330
  115MOL   H20339191   6.908   4.277   7.461  1.7029 -0.2035 -2.1840
  115MOL   H20439192   6.795   4.073   7.535 -1.4248  0.6126  1.4910
  115MOL   H20539193   6.751   4.027   7.372  0.5174  0.9451 -0.8271
  115MOL   C20639194   6.620   3.936   7.513 -0.1665 -0.5142  0.8173
  115MOL   C20739195   6.707   3.826   7.578 -0.4797 -0.4631  0.2127
  115MOL   C20839196   6.672   3.755   7.694  0.1638  0.4826  0.1581
  115MOL   C20939197   6.759   3.653   7.745  0.1905 -0.3770  0.6810
  115MOL   C21039198   6.882   3.623   7.681  0.4725 -0.8593  0.3930
  115MOL   O21139199   6.960   3.525   7.738  0.6128 -0.2460 -0.1131
  115MOL   C21239200   6.908   3.686   7.557  0.4577 -0.6020  0.1714
  115MOL   C21339201   6.821   3.782   7.508 -0.3109 -0.2465  0.1125
  115MOL   C21439202   6.540   3.874   7.393  0.1512  0.6204  0.5334
  115MOL   H21539203   6.551   3.971   7.590  0.2144 -0.8711  1.3245
  115MOL   H21639204   6.579   3.783   7.742  1.1591  2.2578  1.1143
  115MOL   H21739205   6.736   3.597   7.835  0.3508  0.5053  1.2795
  115MOL   H21839206   6.945   3.514   7.830  1.3575 -1.0595 -0.0770
  115MOL   H21939207   6.995   3.661   7.498  1.4105  1.4613  0.6535
  115MOL   H22039208   6.851   3.824   7.414  0.3930  1.4797  1.0975
  115MOL   H22139209   6.617   3.842   7.323  1.1947 -0.9502  2.3536
  115MOL   H22239210   6.494   3.958   7.340 -1.2739 -1.0941 -1.0444
  115MOL   C22339211   6.429   3.767   7.427  0.4831  0.1510 -0.1399
  115MOL   C22439212   6.393   3.683   7.304  0.2631 -0.2234  0.7642
  115MOL   C22539213   6.408   3.545   7.314 -0.6068  0.1708 -0.8464
  115MOL   C22639214   6.375   3.457   7.210  0.2011 -0.2276  0.2167
  115MOL   C22739215   6.334   3.519   7.085 -0.5335 -0.2118 -0.3604
  115MOL   O22839216   6.299   3.446   6.974 -0.2260 -0.4054 -0.1479
  115MOL   C22939217   6.326   3.658   7.069 -0.7429 -1.1453 -0.1466
  115MOL   C23039218   6.351   3.739   7.178 -0.5075 -0.1200  0.0714
  115MOL   C23139219   6.312   3.827   7.501  0.1050 -0.1909  0.1471
  115MOL   H23239220   6.478   3.696   7.493 -0.3522  1.3865  1.8407
  115MOL   H23339221   6.449   3.509   7.408 -3.6041  0.5864  0.6991
  115MOL   H23439222   6.378   3.349   7.218 -0.3432 -0.1452  1.6788
  115MOL   H23539223   6.322   3.355   6.963 -0.5136 -0.6245  0.9842
  115MOL   H23639224   6.295   3.709   6.979 -1.3213  0.5581  0.9890
  115MOL   H23739225   6.333   3.845   7.167 -1.1020 -0.4483 -2.3460
  115MOL   H23839226   6.336   3.900   7.578 -0.3562 -2.4328  2.4734
  115MOL   H23939227   6.249   3.885   7.434 -1.1376 -0.5914  0.9584
  115MOL   C24039228   6.219   3.726   7.571  0.3545 -0.4985  0.0006
  115MOL   C24139229   6.289   3.660   7.700 -0.0494  0.0515  0.4004
  115MOL   C24239230   6.306   3.736   7.812 -0.0606 -0.2863  0.3563
  115MOL   C24339231   6.367   3.691   7.932  0.0407 -0.5467 -0.4253
  115MOL   C24439232   6.406   3.550   7.929  0.6033 -0.5875  0.5286
  115MOL   O24539233   6.439   3.495   0.008  0.2739 -0.2846 -0.0662
  115MOL   C24639234   6.397   3.472   7.813 -0.1500 -0.1708  0.3316
  115MOL   C24739235   6.338   3.526   7.698  0.2452 -0.8505 -0.0044
  115MOL   C24839236   6.081   3.783   7.621  0.5141  0.0228  0.4325
  115MOL   H24939237   6.196   3.637   7.511 -1.9713  0.3006 -0.3374
  115MOL   H25039238   6.269   3.838   7.803  1.7218  0.4176  0.7825
  115MOL   H25139239   6.372   3.762   8.014 -0.0827  1.6852 -2.3066
  115MOL   H25239240   6.435   3.544   0.088 -0.2317 -0.2431 -0.1151
  115MOL   H25339241   6.440   3.373   7.815  0.7527  0.2242  0.6645
  115MOL   H25439242   6.332   3.466   7.608 -0.7000  0.1944 -0.6544
  115MOL   H25539243   6.038   3.694   7.668  0.7400 -0.7746 -0.8496
  115MOL   H25639244   6.079   3.857   7.701  0.4789  0.4819  0.0043
  115MOL   C25739245   5.979   3.813   7.515  0.1072  0.8689 -0.1823
  115MOL   C25839246   5.962   3.701   7.415 -0.0496  0.1157  0.1026
  115MOL   C25939247   5.938   3.565   7.450  0.0290 -0.4837 -0.1791
  115MOL   C26039248   5.965   3.463   7.357 -0.2406 -0.0485  0.1066
  115MOL   C26139249   5.997   3.492   7.231 -0.0513 -0.3984  0.4894
  115MOL   O26239250   6.017   3.392   7.137 -0.1577 -0.0374 -0.3560
  115MOL   C26339251   6.018   3.624   7.192  0.2410 -0.0380  0.3720
  115MOL   C26439252   6.010   3.731   7.280  0.1247  0.0383  1.0927
  115MOL   C26539253   5.834   3.832   7.572  0.0048  0.0396 -0.0598
  115MOL   H26639254   6.002   3.909   7.470 -1.0922  0.0787 -2.5717
  115MOL   H26739255   5.917   3.542   7.554  1.4130  2.2309  0.7396
  115MOL   H26839256   5.972   3.359   7.386  2.6569 -0.3289 -1.4226
  115MOL   H26939257   6.026   3.305   7.174 -0.0474 -0.9010 -2.3273
  115MOL   H27039258   6.056   3.637   7.092  2.0309  0.8318  1.1464
  115MOL   H27139259   6.048   3.829   7.253 -0.3417  0.1874  0.9738
  115MOL   H27239260   5.836   3.898   7.659 -2.5516  0.4746 -0.2972
  115MOL   H27339261   5.810   3.740   7.625  0.4214  1.5626  2.8632
  115MOL   C27439262   5.729   3.887   7.478  0.8189 -0.3094  0.0762
  115MOL   C27539263   5.768   4.016   7.406  0.2051  0.0114 -0.3035
  115MOL   C27639264   5.741   4.030   7.266  0.6949 -0.3619 -0.2370
  115MOL   C27739265   5.776   4.151   7.197  0.1986 -0.2480 -0.3331
  115MOL   C27839266   5.851   4.249   7.263 -0.4317  0.1687  0.2523
  115MOL   O27939267   5.888   4.356   7.193 -0.0318  0.0055  0.5574
  115MOL   C28039268   5.874   4.241   7.407 -0.3543 -0.1518  0.5998
  115MOL   C28139269   5.839   4.122   7.469  0.9087  0.8010 -0.2958
  115MOL   C28239270   5.598   3.905   7.551 -0.0925 -0.9547 -0.0380
  115MOL   H28339271   5.715   3.817   7.396  1.6103  0.0634 -0.3875
  115MOL   H28439272   5.691   3.954   7.207  0.5544 -0.3541 -0.1283
  115MOL   H28539273   5.760   4.167   7.092  1.8296  2.4491 -0.2251
  115MOL   H28639274   5.902   4.427   7.253 -1.3841  0.9737 -0.2411
  115MOL   H28739275   5.922   4.317   7.466 -1.2167  0.4910  0.4968
  115MOL   H28839276   5.859   4.112   7.575 -0.0419 -2.1890 -0.3524
  115MOL   H28939277   5.598   3.982   7.628 -3.2571 -0.4984 -0.4429
  115MOL   H29039278   5.524   3.944   7.481 -0.5471 -1.0282  0.3966
  115MOL   C29139279   5.532   3.770   7.605  0.0232 -0.1872  0.1307
  115MOL   C29239280   5.557   3.642   7.520 -0.4639 -0.1525  0.9285
  115MOL   C29339281   5.582   3.520   7.585 -0.1892 -0.0227  0.0072
  115MOL   C29439282   5.575   3.402   7.508  0.7435 -0.0070  0.1737
  115MOL   C29539283   5.551   3.403   7.365  0.0187  0.4557  1.1886
  115MOL   O29639284   5.560   3.288   7.290  0.0847 -0.3101 -0.1788
  115MOL   C29739285   5.530   3.530   7.301  0.0393  0.6988 -0.2098
  115MOL   C29839286   5.529   3.649   7.382 -0.1775  0.4531  0.0691
  115MOL   C29939287   5.381   3.791   7.623 -0.1097  0.1312  0.1478
  115MOL   H30039288   5.567   3.748   7.706  1.1297 -1.6447 -0.5733
  115MOL   H30139289   5.595   3.520   7.692  1.1196  1.5343 -0.1376
  115MOL   H30239290   5.593   3.306   7.554  1.6287 -0.5426 -1.2449
  115MOL   H30339291   5.611   3.293   7.211 -0.2640  1.2081 -0.3292
  115MOL   H30439292   5.510   3.518   7.196  5.0620 -1.5994 -1.0837
  115MOL   H30539293   5.500   3.740   7.332  1.0103  0.1603 -1.1891
  115MOL   H30639294   5.321   3.703   7.600 -2.9706  2.2853 -0.8392
  115MOL   H30739295   5.342   3.854   7.543 -1.6914 -1.3882 -0.2960
  115MOL   C30839296   5.333   3.851   7.758 -0.3866  0.2960 -0.1219
  115MOL   C30939297   5.412   3.969   7.813 -0.6983  0.1969 -0.0878
  115MOL   C31039298   5.384   4.095   7.758  0.3075 -0.0075 -0.3552
  115MOL   C31139299   5.472   4.203   7.792 -0.4208  0.6849 -0.6331
  115MOL   C31239300   5.570   4.185   7.893  0.2054 -0.0888 -0.0520
  115MOL   O31339301   5.637   4.295   7.932  0.3255  0.1675 -0.3518
  115MOL   C31439302   5.591   4.061   7.955 -0.4400  0.0048  0.5433
  115MOL   C31539303   5.512   3.953   7.919  0.3023 -0.0891 -0.0854
  115MOL   C31639304   5.306   3.737   7.861 -0.4864  0.4605  0.0989
  115MOL   H31739305   5.239   3.895   7.725  0.1961 -1.0271 -3.7385
  115MOL   H31839306   5.309   4.109   7.682 -0.2349  0.9026  0.3434
  115MOL   H31939307   5.475   4.299   7.742  0.6326  1.8768  1.6179
  115MOL   H32039308   5.624   4.361   7.866  0.9743  1.1414  0.4713
  115MOL   H32139309   5.665   4.057   8.034 -0.2136 -1.6303  0.2557
  115MOL   H32239310   5.528   3.859   7.969  2.8602  1.7102  2.6413
  115MOL   H32339311   5.399   3.684   7.881  0.4067  1.7290 -0.5934
  115MOL   H32439312   5.254   3.658   7.806 -0.7629  1.0400 -0.4780
  115MOL   C32539313   5.219   3.791   7.973  0.2982 -0.0564  0.0952
  115MOL   C32639314   5.216   3.691   0.046  0.3167 -0.5529  0.4494
  115MOL   C32739315   5.174   3.563   0.017 -0.0585  0.0794 -0.7938
  115MOL   C32839316   5.168   3.464   0.118  0.2965 -0.1240 -0.0822
  115MOL   C32939317   5.192   3.504   0.249  0.2987 -0.0082 -0.1997
  115MOL   O33039318   5.175   3.416   0.349 -0.2358 -0.6849 -0.0845
  115MOL   C33139319   5.236   3.636   0.281 -0.5684 -0.5006 -0.9380
  115MOL   C33239320   5.253   3.730   0.178 -0.2038  0.3614 -0.6228
  115MOL   C33339321   5.069   3.820   7.936 -0.4033  0.3182  0.3912
  115MOL   H33439322   5.269   3.874   8.022 -0.1178  0.5258 -0.4589
  115MOL   H33539323   5.143   3.538   7.954  0.2172 -0.5794 -0.7187
  115MOL   H33639324   5.123   3.367   0.099  0.0373 -0.1740  0.7824
  115MOL   H33739325   5.107   3.460   0.398 -0.3551 -0.1031 -0.7668
  115MOL   H33839326   5.263   3.660   0.383  0.6544  0.6868 -1.5153
  115MOL   H33939327   5.287   3.828   0.208  0.6632 -0.2487  0.4184
  115MOL   H34039328   5.057   3.895   7.858 -1.1573 -2.9828 -2.7660
  115MOL   H34139329   5.019   3.856   8.027 -0.8312  0.6154  0.0453
  115MOL   H34239330   5.016   3.729   7.909  0.8917 -0.9601  2.0972
  116MOL     C139331   2.926   6.155   0.660  0.0895 -0.6408  0.8290
  116MOL     C239332   2.958   6.132   0.807  0.1299 -0.5211 -0.7415
  116MOL     C339333   2.997   6.234   0.893 -0.3581 -0.2519 -0.0377
  116MOL     C439334   3.009   6.210   1.030 -0.0139 -0.7738  0.0376
  116MOL     C539335   2.976   6.085   1.084 -0.9439  0.4000 -0.3296
  116MOL     O639336   2.974   6.068   1.220 -0.4834  0.0092  0.1727
  116MOL     C739337   2.948   5.980   1.000  0.5485  0.8199  1.0871
  116MOL     C839338   2.942   6.005   0.862  0.2693 -0.0967  0.5918
  116MOL     C939339   2.771   6.180   0.642 -0.4347  0.0622 -0.6886
  116MOL    H1039340   2.989   6.225   0.606 -1.2082 -0.7052 -0.8180
  116MOL    H1139341   3.024   6.332   0.855  1.0652 -0.5975  0.0720
  116MOL    H1239342   3.056   6.289   1.087 -1.0862  0.1338 -0.3276
  116MOL    H1339343   2.936   5.983   1.238  0.4699 -0.5607 -0.4379
  116MOL    H1439344   2.946   5.881   1.044 -2.3736  1.3394  2.2219
  116MOL    H1539345   2.904   5.925   0.800 -3.2657  1.3398  0.8193
  116MOL    H1639346   2.736   6.258   0.709 -1.8280 -1.7893  0.7908
  116MOL    H1739347   2.721   6.086   0.667 -1.1998  0.0907 -2.1174
  116MOL    H1839348   2.949   6.061   0.608  2.2478  0.6824 -0.6826
  116MOL    C1939349   2.747   6.222   0.494  0.1565  0.6776 -0.1294
  116MOL    C2039350   2.616   6.303   0.483  0.3395  0.3141 -0.5387
  116MOL    C2139351   2.613   6.431   0.429  0.7865 -0.2546  0.1261
  116MOL    C2239352   2.492   6.504   0.413  0.2089  0.0696  0.3348
  116MOL    C2339353   2.372   6.450   0.454 -0.0158 -0.3307 -0.4963
  116MOL    O2439354   2.261   6.529   0.440 -0.0166  0.1599  0.2682
  116MOL    C2539355   2.374   6.329   0.518 -0.1152  0.2039 -0.1663
  116MOL    C2639356   2.492   6.255   0.531 -0.1271 -0.2272  0.5750
  116MOL    C2739357   2.746   6.097   0.403  0.2933  0.4720  1.1275
  116MOL    H2839358   2.828   6.291   0.471  1.5594 -1.2394 -1.0574
  116MOL    H2939359   2.703   6.482   0.398 -0.0455  1.6983  0.7945
  116MOL    H3039360   2.504   6.605   0.376  2.7309  1.7960  5.3624
  116MOL    H3139361   2.276   6.612   0.398  0.1571  0.4118  0.8186
  116MOL    H3239362   2.278   6.287   0.546 -0.1730  1.0761  0.9709
  116MOL    H3339363   2.499   6.156   0.573  1.0205 -1.1733 -1.8015
  116MOL    H3439364   2.664   6.029   0.425 -0.5032  0.3105 -2.0969
  116MOL    H3539365   2.830   6.029   0.422 -1.3429 -2.3046 -1.1879
  116MOL    C3639366   2.756   6.129   0.244  0.3845  0.4381  0.3251
  116MOL    C3739367   2.689   6.016   0.165 -0.2864 -0.2400  0.4167
  116MOL    C3839368   2.774   5.924   0.094  0.2338 -0.2572  0.0945
  116MOL    C3939369   2.711   5.828   0.011  0.0490 -0.4875  0.1278
  116MOL    C4039370   2.569   5.824   8.034 -0.2627  0.8393  0.3522
  116MOL    O4139371   2.507   5.764   7.929 -0.1477 -1.1915 -0.2661
  116MOL    C4239372   2.492   5.912   0.077 -0.4985  0.2854  0.3230
  116MOL    C4339373   2.549   6.007   0.165 -0.2565  0.6552  0.2707
  116MOL    C4439374   2.895   6.181   0.196 -0.0396 -0.4337 -0.6330
  116MOL    H4539375   2.684   6.209   0.232  1.4197  0.9747 -2.9809
  116MOL    H4639376   2.881   5.928   0.099  0.2296  1.5339 -0.9127
  116MOL    H4739377   2.778   5.770   7.987  0.2375  0.7275 -0.8349
  116MOL    H4839378   2.560   5.739   7.855  0.3630  0.7283 -0.5899
  116MOL    H4939379   2.385   5.909   0.059 -0.4566 -0.4661  0.1676
  116MOL    H5039380   2.487   6.079   0.218 -2.3522 -0.3754 -0.7168
  116MOL    H5139381   2.923   6.266   0.259 -1.9696 -0.4729  0.3331
  116MOL    H5239382   2.972   6.104   0.203  0.0730 -0.2515  0.3020
  116MOL    C5339383   2.903   6.236   0.056 -0.3461  0.3454  0.5470
  116MOL    C5439384   2.803   6.351   0.021 -0.4340 -1.2942 -0.3235
  116MOL    C5539385   2.722   6.346   7.943  0.2698  0.1996 -0.0370
  116MOL    C5639386   2.646   6.462   7.909  0.1727  0.3085  0.3699
  116MOL    C5739387   2.655   6.573   7.988  0.1754  0.1083  0.3895
  116MOL    O5839388   2.595   6.688   7.945 -0.2586  0.0939 -0.0635
  116MOL    C5939389   2.726   6.580   0.067 -0.2273 -0.4223 -0.1147
  116MOL    C6039390   2.795   6.461   0.106 -0.0144  0.3594 -0.0133
  116MOL    C6139391   3.051   6.277   0.028 -0.0939 -0.3164  0.1476
  116MOL    H6239392   2.881   6.160   8.019  1.9660  0.7613 -0.5951
  116MOL    H6339393   2.717   6.255   7.885 -0.6441  1.6694 -2.3376
  116MOL    H6439394   2.585   6.463   7.820  1.0791 -2.1976 -0.3127
  116MOL    H6539395   2.537   6.674   7.871 -3.8481  0.0514  2.6120
  116MOL    H6639396   2.718   6.672   0.124  0.4787 -1.7729  2.1979
  116MOL    H6739397   2.860   6.457   0.191 -1.0074  1.5556  0.8160
  116MOL    H6839398   3.126   6.211   0.070 -0.4445 -0.5203  0.4582
  116MOL    H6939399   3.076   6.369   0.081  2.2190 -1.0541  0.4026
  116MOL    C7039400   3.079   6.299   7.915 -0.2418 -0.0200  0.6154
  116MOL    C7139401   3.057   6.183   7.826 -0.1655  0.2986  0.1460
  116MOL    C7239402   3.141   6.071   7.831 -1.3177 -0.5639  0.5416
  116MOL    C7339403   3.113   5.941   7.783 -0.0270 -0.1610  0.8418
  116MOL    C7439404   2.991   5.921   7.719 -0.1957  0.2080  0.4040
  116MOL    O7539405   2.972   5.793   7.679 -0.1371 -0.0320 -0.4224
  116MOL    C7639406   2.896   6.025   7.711 -0.3357  0.1738 -0.2756
  116MOL    C7739407   2.931   6.155   7.764  0.0028  0.2539  0.2996
  116MOL    C7839408   3.225   6.353   7.894 -0.5426 -0.2291  0.4280
  116MOL    H7939409   3.010   6.373   7.874 -0.0811 -0.6199 -0.7586
  116MOL    H8039410   3.240   6.078   7.872 -0.7256  0.6689 -1.0099
  116MOL    H8139411   3.181   5.858   7.794  1.2878  0.8637  0.5919
  116MOL    H8239412   2.884   5.774   7.651 -0.9979 -0.1075  2.1961
  116MOL    H8339413   2.799   6.011   7.667  0.7260 -1.0210 -2.3060
  116MOL    H8439414   2.868   6.241   7.751  0.7774  0.9901  1.3558
  116MOL    H8539415   3.259   6.357   7.791 -2.1204  0.3396 -0.0797
  116MOL    H8639416   3.307   6.297   7.940 -1.0424 -0.5818  0.8903
  116MOL    C8739417   3.245   6.503   7.942 -0.0940  0.4122  0.3803
  116MOL    C8839418   3.153   6.591   7.864 -0.0328 -0.7843 -0.4054
  116MOL    C8939419   3.025   6.635   7.920  0.4968  0.1520 -0.2496
  116MOL    C9039420   2.942   6.720   7.849 -0.2154 -0.2059 -0.2835
  116MOL    C9139421   2.971   6.752   7.717 -0.0881  0.8481  0.3330
  116MOL    O9239422   2.880   6.816   7.636  0.3319 -0.1167 -0.3786
  116MOL    C9339423   3.096   6.721   7.658  0.2987  0.6412 -0.1336
  116MOL    C9439424   3.187   6.639   7.732  0.0509 -0.7972 -0.0238
  116MOL    C9539425   3.392   6.551   7.949  0.0350 -0.2633 -0.2167
  116MOL    H9639426   3.206   6.502   0.006 -1.0329  0.1433  0.0222
  116MOL    H9739427   2.996   6.602   8.018  0.6470 -0.5446 -0.4344
  116MOL    H9839428   2.850   6.760   7.889  0.1542 -0.8105  1.2162
  116MOL    H9939429   2.802   6.850   7.677 -0.9112 -1.9101 -1.1931
  116MOL   H10039430   3.122   6.750   7.557 -2.2105 -0.2296 -1.0693
  116MOL   H10139431   3.284   6.617   7.689  0.6381 -2.7166  2.2046
  116MOL   H10239432   3.447   6.475   8.004 -0.9432  0.0519  1.2472
  116MOL   H10339433   3.443   6.546   7.853  2.4939  2.1977  0.8986
  116MOL   C10439434   3.408   6.677   8.036 -0.1047  0.3517 -0.2499
  116MOL   C10539435   3.368   6.803   7.966 -0.8416 -0.0888  0.1630
  116MOL   C10639436   3.428   6.860   7.850 -0.7691 -0.5098 -0.3967
  116MOL   C10739437   3.386   6.980   7.793  0.0815  0.4121 -0.8403
  116MOL   C10839438   3.274   7.048   7.854 -0.2296 -0.3686  0.8414
  116MOL   O10939439   3.238   7.167   7.800 -0.2578 -0.6991  0.0010
  116MOL   C11039440   3.212   6.993   7.969  0.4205 -0.0300  0.3270
  116MOL   C11139441   3.259   6.877   8.028 -0.0256  0.2467  0.1999
  116MOL   C11239442   3.542   6.690   0.071  0.5392  0.1459  0.9001
  116MOL   H11339443   3.327   6.662   0.070  0.9614  1.8957  1.3102
  116MOL   H11439444   3.515   6.815   7.806  0.3837 -0.0403  1.3568
  116MOL   H11539445   3.433   7.036   7.713 -0.8881  1.5022 -0.6465
  116MOL   H11639446   3.297   7.198   7.733 -0.3963  0.5096  0.4173
  116MOL   H11739447   3.131   7.047   8.017  0.4255  0.1646  0.1208
  116MOL   H11839448   3.211   6.843   0.081 -0.3383 -1.5149 -0.6075
  116MOL   H11939449   3.613   6.714   8.030 -1.1464 -1.0467 -1.0647
  116MOL   H12039450   3.562   6.588   0.105  0.3895 -0.1437  0.1391
  116MOL   C12139451   3.554   6.776   0.198 -0.1482 -0.4180 -0.4652
  116MOL   C12239452   3.451   6.748   0.303 -0.8205 -0.1966  0.1603
  116MOL   C12339453   3.353   6.838   0.342  0.3642  0.3832  0.2654
  116MOL   C12439454   3.255   6.800   0.438 -0.6766 -0.2360 -0.0962
  116MOL   C12539455   3.261   6.681   0.509 -0.4175  0.0165 -0.1702
  116MOL   O12639456   3.170   6.644   0.601  0.6881  0.4559 -0.5759
  116MOL   C12739457   3.373   6.597   0.479  0.2682 -0.1905  0.3433
  116MOL   C12839458   3.458   6.624   0.372  0.2637 -0.7162 -0.2905
  116MOL   C12939459   3.699   6.777   0.255 -0.4657 -0.0708  0.5390
  116MOL   H13039460   3.539   6.879   0.166 -2.5421 -0.6428 -0.1614
  116MOL   H13139461   3.345   6.928   0.284  0.9206 -0.8196 -1.7293
  116MOL   H13239462   3.177   6.871   0.462 -0.0679  1.0891 -1.9235
  116MOL   H13339463   3.197   6.566   0.647 -0.0571  0.3796 -0.2693
  116MOL   H13439464   3.389   6.505   0.534  2.6338 -0.1039 -0.1667
  116MOL   H13539465   3.542   6.556   0.361  0.0257 -1.0364 -0.1577
  116MOL   H13639466   3.754   6.788   0.162 -2.7479  0.7608 -0.7509
  116MOL   H13739467   3.754   6.689   0.288  0.5469 -0.5191 -2.2837
  116MOL   C13839468   3.726   6.892   0.346  0.3862  0.0335 -0.3524
  116MOL   C13939469   3.868   6.938   0.329 -0.5432 -0.3530  0.2122
  116MOL   C14039470   3.973   6.851   0.358  0.1425 -0.3560 -0.2140
  116MOL   C14139471   4.103   6.888   0.335  0.0458 -0.1823 -0.6087
  116MOL   C14239472   4.136   7.015   0.289  0.4359  0.0420 -0.1379
  116MOL   O14339473   4.261   7.058   0.281 -0.3262  0.0551  0.2888
  116MOL   C14439474   4.027   7.102   0.256 -0.2591  0.8466 -0.4881
  116MOL   C14539475   3.892   7.067   0.274  0.1766  0.1317  0.1119
  116MOL   C14639476   3.698   6.868   0.505 -0.0103  0.6157  0.6648
  116MOL   H14739477   3.661   6.978   0.326  0.2345  0.4068  1.6338
  116MOL   H14839478   3.952   6.756   0.406 -1.9717  0.0433 -0.3184
  116MOL   H14939479   4.181   6.818   0.362  1.5751  1.6212 -0.1593
  116MOL   H15039480   4.267   7.142   0.238  2.0466  0.2649  0.9425
  116MOL   H15139481   4.048   7.195   0.204 -1.9134  0.9043 -1.0686
  116MOL   H15239482   3.813   7.135   0.246 -0.9462 -0.8467  0.8334
  116MOL   H15339483   3.797   6.852   0.547  1.1134 -0.1327 -2.1285
  116MOL   H15439484   3.651   6.771   0.522  2.2643 -0.8441 -1.0955
  116MOL   C15539485   3.633   6.994   0.587  0.0074  0.1781  0.4173
  116MOL   C15639486   3.712   7.118   0.565  0.0027  0.1223  0.5495
  116MOL   C15739487   3.660   7.231   0.497 -0.1345 -0.4405 -0.0150
  116MOL   C15839488   3.730   7.352   0.481  0.2225  0.3444 -0.3959
  116MOL   C15939489   3.863   7.363   0.525 -0.1911  0.5236  0.4478
  116MOL   O16039490   3.945   7.474   0.502  0.0239 -0.0666  0.4077
  116MOL   C16139491   3.918   7.254   0.600 -0.3023 -0.1534 -0.3492
  116MOL   C16239492   3.846   7.130   0.615 -0.5360  0.0426  0.4643
  116MOL   C16339493   3.607   6.968   0.741  0.6286 -0.7709 -0.0769
  116MOL   H16439494   3.539   7.005   0.532  0.7304  2.8948 -0.3781
  116MOL   H16539495   3.555   7.224   0.473  0.0338 -1.7356 -0.3610
  116MOL   H16639496   3.669   7.429   0.436 -2.0134 -1.1875 -0.1092
  116MOL   H16739497   3.891   7.546   0.475 -1.4250 -1.5810 -0.8709
  116MOL   H16839498   4.017   7.245   0.642 -0.5327  1.2712  0.5077
  116MOL   H16939499   3.897   7.052   0.670 -1.5071 -0.3277  0.8475
  116MOL   H17039500   3.699   6.976   0.799  2.2797  0.7400 -2.8060
  116MOL   H17139501   3.584   6.862   0.753 -1.9234 -0.2478 -0.1852
  116MOL   C17239502   3.490   7.060   0.792  0.0701  0.7065  0.1690
  116MOL   C17339503   3.512   7.085   0.938  0.1927  0.3985 -0.3173
  116MOL   C17439504   3.494   6.983   1.029 -0.1427 -0.4249  0.6418
  116MOL   C17539505   3.503   7.022   1.161 -0.0496 -0.5015 -0.3857
  116MOL   C17639506   3.504   7.158   1.205  0.0493 -0.2337 -0.3141
  116MOL   O17739507   3.493   7.196   1.337 -0.0563 -0.3657  0.2439
  116MOL   C17839508   3.531   7.261   1.113 -0.6123 -0.2485 -0.4149
  116MOL   C17939509   3.534   7.226   0.978  0.1926  0.2455  0.0417
  116MOL   C18039510   3.353   7.013   0.761 -0.7879 -0.0758 -0.3961
  116MOL   H18139511   3.518   7.153   0.743  0.7596 -0.8661 -2.5393
  116MOL   H18239512   3.486   6.880   0.997  0.0471  0.6199 -2.9820
  116MOL   H18339513   3.500   6.951   1.243 -0.0264  0.4662  0.4715
  116MOL   H18439514   3.524   7.128   1.396 -2.4534 -0.4413  1.4687
  116MOL   H18539515   3.548   7.362   1.146  1.7526 -0.8154  0.2395
  116MOL   H18639516   3.567   7.305   0.913  0.7878 -0.0375 -0.0006
  116MOL   H18739517   3.336   6.918   0.812 -1.3313  0.0656 -0.3134
  116MOL   H18839518   3.363   6.974   0.660  0.7193 -1.8225  0.3938
  116MOL   C18939519   3.237   7.118   0.772 -0.0456  0.6170 -0.0859
  116MOL   C19039520   3.268   7.228   0.673  0.0015  0.5350  0.5748
  116MOL   C19139521   3.262   7.198   0.532  1.0089 -0.5977 -0.3867
  116MOL   C19239522   3.307   7.294   0.435 -0.0118 -0.5753  0.3803
  116MOL   C19339523   3.351   7.422   0.481 -0.3557  0.8487 -0.2856
  116MOL   O19439524   3.397   7.521   0.404  0.2210  0.7018 -0.3978
  116MOL   C19539525   3.358   7.451   0.619  0.1474 -0.6288 -0.0058
  116MOL   C19639526   3.323   7.353   0.714 -0.2321 -0.6090 -0.2656
  116MOL   C19739527   3.095   7.062   0.749  0.2934 -0.3877  0.0018
  116MOL   H19839528   3.239   7.153   0.875  0.1365 -2.2745  0.9445
  116MOL   H19939529   3.226   7.107   0.485  1.5272 -0.5755 -0.8369
  116MOL   H20039530   3.303   7.265   0.332 -1.4520 -1.5696  0.7010
  116MOL   H20139531   3.373   7.497   0.315  1.5673  2.9986 -1.4176
  116MOL   H20239532   3.383   7.549   0.656  0.9260 -0.9694  0.3681
  116MOL   H20339533   3.313   7.378   0.819 -1.8682  0.3942 -0.6446
  116MOL   H20439534   3.102   6.955   0.729 -0.0170 -0.5987  1.0046
  116MOL   H20539535   3.054   7.100   0.656 -0.8430 -1.1499  0.1667
  116MOL   C20639536   2.990   7.079   0.865 -0.2697 -0.0466  0.5781
  116MOL   C20739537   2.863   6.999   0.819  0.0945  0.1967  0.0900
  116MOL   C20839538   2.812   6.891   0.895 -0.6946  0.1887 -0.3753
  116MOL   C20939539   2.701   6.819   0.851  0.3042 -0.5236 -0.3641
  116MOL   C21039540   2.637   6.858   0.731  0.1225 -0.1891 -0.4557
  116MOL   O21139541   2.524   6.792   0.687  0.4566 -0.1496 -0.0906
  116MOL   C21239542   2.676   6.970   0.662 -0.0260 -0.0675  0.3037
  116MOL   C21339543   2.794   7.038   0.701  0.2125 -0.7363  0.2402
  116MOL   C21439544   2.948   7.224   0.902  0.1232 -0.2473 -0.3544
  116MOL   H21539545   3.020   7.045   0.964  0.4004 -1.7030 -0.1616
  116MOL   H21639546   2.867   6.860   0.982  0.0093  0.9855 -0.5283
  116MOL   H21739547   2.660   6.735   0.906  3.1677 -1.8797 -0.2183
  116MOL   H21839548   2.485   6.733   0.750  1.8310 -0.3891  0.5568
  116MOL   H21939549   2.615   6.995   0.576  2.4016 -0.8977 -1.7127
  116MOL   H22039550   2.816   7.134   0.656 -1.3785  0.7702  2.4983
  116MOL   H22139551   2.844   7.216   0.933  0.2673  0.7093  0.3847
  116MOL   H22239552   2.929   7.281   0.812 -0.4731  0.9865  0.5386
  116MOL   C22339553   3.018   7.304   1.008 -0.1703  0.2584  0.3017
  116MOL   C22439554   3.022   7.234   1.149  0.1968  0.1444  0.0701
  116MOL   C22539555   2.904   7.182   1.206  0.1956 -0.5605  0.1331
  116MOL   C22639556   2.909   7.129   1.333  0.0818 -0.2926 -0.1286
  116MOL   C22739557   3.033   7.115   1.405  0.0326  0.0187 -0.2526
  116MOL   O22839558   3.032   7.074   1.535  0.5702 -0.1978 -0.1188
  116MOL   C22939559   3.152   7.153   1.341 -0.5916  0.8712  0.5086
  116MOL   C23039560   3.146   7.220   1.218 -0.1033  1.1592 -0.1252
  116MOL   C23139561   2.987   7.457   0.992  0.4137  0.9433 -0.6148
  116MOL   H23239562   3.123   7.293   0.980 -0.1355  0.9504  0.1617
  116MOL   H23339563   2.807   7.194   1.162 -0.0709 -0.9491  0.6087
  116MOL   H23439564   2.824   7.095   1.390  1.1733 -0.6078  1.3291
  116MOL   H23539565   2.947   7.040   1.562  0.3703  0.4591  0.0882
  116MOL   H23639566   3.248   7.148   1.390 -0.6542  0.0620  0.5530
  116MOL   H23739567   3.238   7.241   1.166 -0.4605 -0.6335 -1.5426
  116MOL   H23839568   3.014   7.493   0.893  2.8774 -0.1127 -0.3764
  116MOL   H23939569   2.879   7.471   0.988  0.3374  1.0570  1.1776
  116MOL   C24039570   3.035   7.552   1.104 -0.6988  0.1347 -0.3776
  116MOL   C24139571   3.186   7.579   1.108  0.2131  0.5592 -0.1810
  116MOL   C24239572   3.270   7.613   1.000  0.4273  0.2691  0.3769
  116MOL   C24339573   3.408   7.639   1.024  0.2669 -0.2502  0.0218
  116MOL   C24439574   3.457   7.630   1.154 -0.3589 -0.0271  0.0909
  116MOL   O24539575   3.589   7.647   1.179  0.2678 -0.3906  0.2138
  116MOL   C24639576   3.377   7.588   1.261  0.2648 -0.2468 -0.0566
  116MOL   C24739577   3.238   7.572   1.242  0.0486 -0.8244 -0.9244
  116MOL   C24839578   2.949   7.685   1.100 -0.1356 -0.7569 -0.4555
  116MOL   H24939579   2.999   7.505   1.195 -1.1304  2.0669  0.4729
  116MOL   H25039580   3.218   7.634   0.908 -1.5214 -1.4418  1.0598
  116MOL   H25139581   3.474   7.674   0.945 -2.4331  1.0214 -1.7459
  116MOL   H25239582   3.627   7.587   1.241  0.2992 -1.5791 -0.9375
  116MOL   H25339583   3.418   7.584   1.361 -1.0841  1.1459  0.5821
  116MOL   H25439584   3.176   7.552   1.328  1.2798  0.7836  0.3639
  116MOL   H25539585   2.848   7.662   1.135 -0.1862  2.3829  1.6214
  116MOL   H25639586   2.969   7.757   1.179  0.5772 -0.9221 -0.4852
  116MOL   C25739587   2.947   7.779   0.975  0.0102 -0.4717 -1.0132
  116MOL   C25839588   2.809   7.849   0.978  0.1244 -0.0457 -0.7947
  116MOL   C25939589   2.779   7.973   1.034  0.4559 -0.4459  0.2395
  116MOL   C26039590   2.645   8.010   1.041 -0.3267  0.9720 -0.0675
  116MOL   C26139591   2.543   7.933   0.976  0.3267  0.7230  0.3832
  116MOL   O26239592   2.420   7.985   0.982 -0.3265  0.1806  0.2558
  116MOL   C26339593   2.572   7.816   0.913  0.5096 -0.8392 -0.0897
  116MOL   C26439594   2.707   7.776   0.907 -0.7445  0.0643  0.0529
  116MOL   C26539595   3.060   7.882   0.968 -0.8528  0.2636  0.3450
  116MOL   H26639596   2.954   7.714   0.887  1.1804 -1.9622  0.1640
  116MOL   H26739597   2.856   8.033   1.079  0.7862 -1.8196  1.5682
  116MOL   H26839598   2.616   0.067   1.085  0.6128  1.3684 -0.3009
  116MOL   H26939599   2.417   0.041   0.994 -0.0978  0.2876 -0.5465
  116MOL   H27039600   2.489   7.756   0.878 -1.1093  1.7287 -0.7089
  116MOL   H27139601   2.735   7.686   0.855  0.1005  0.9851 -1.0926
  116MOL   H27239602   3.156   7.830   0.953 -1.4698 -0.4610 -1.3070
  116MOL   H27339603   3.076   7.924   1.067 -0.7884  0.1169  0.3966
  116MOL   C27439604   3.061   7.997   0.862  0.0792  0.2509 -0.0646
  116MOL   C27539605   3.033   7.939   0.725  0.5587  0.3612  0.8772
  116MOL   C27639606   3.129   7.855   0.667 -1.1689  0.5753  1.3152
  116MOL   C27739607   3.104   7.797   0.541  0.3035 -0.2053  0.3671
  116MOL   C27839608   2.984   7.829   0.471  0.6116 -0.0783  0.6079
  116MOL   O27939609   2.957   7.762   0.352 -0.1029  0.7757  0.0214
  116MOL   C28039610   2.888   7.915   0.528  0.0607  0.1589  0.0448
  116MOL   C28139611   2.910   7.969   0.658 -0.4178 -0.4466 -0.2667
  116MOL   C28239612   3.174   0.063   0.853  0.3814 -0.1942 -0.5177
  116MOL   H28339613   2.973   0.020   0.882  1.6527  2.6140 -0.0486
  116MOL   H28439614   3.215   7.821   0.722 -1.1950  2.2543  2.4277
  116MOL   H28539615   3.174   7.722   0.507  0.4509  0.9518 -2.0178
  116MOL   H28639616   2.874   7.763   0.308  0.6872 -1.4413 -1.6093
  116MOL   H28739617   2.793   7.949   0.490 -0.8489 -1.0557  1.1835
  116MOL   H28839618   2.831   8.025   0.706  0.5993  1.1846 -0.4426
  116MOL   H28939619   3.266   0.006   0.841  2.0835  2.4297 -0.2140
  116MOL   H29039620   3.160   0.116   0.759 -0.9158  0.3609 -0.0196
  116MOL   C29139621   3.194   0.149   0.983  0.4462  0.3790  0.8126
  116MOL   C29239622   3.066   0.230   1.014 -0.5872 -0.2929 -0.3062
  116MOL   C29339623   2.994   0.212   1.135  0.0859  0.4516 -0.0218
  116MOL   C29439624   2.877   0.290   1.149  0.1910 -0.1434 -0.1559
  116MOL   C29539625   2.837   0.380   1.051 -0.1161  0.0479  0.6352
  116MOL   O29639626   2.727   0.457   1.064  0.2402  0.2768 -0.1419
  116MOL   C29739627   2.908   0.399   0.937  0.7709  0.1575  0.1790
  116MOL   C29839628   3.019   0.320   0.912  0.1922  0.5978 -0.0862
  116MOL   C29939629   3.316   0.236   0.952 -0.0973 -0.3195  0.3168
  116MOL   H30039630   3.220   0.081   1.064  0.5547 -0.6423 -0.0816
  116MOL   H30139631   3.028   0.147   1.213 -1.8202  0.9967  1.2942
  116MOL   H30239632   2.827   0.288   1.245  2.1118 -1.5997  0.8413
  116MOL   H30339633   2.724   0.527   1.001  0.6050 -1.5128 -2.2113
  116MOL   H30439634   2.875   0.470   0.862 -1.8773 -2.5477 -1.3416
  116MOL   H30539635   3.074   0.327   0.819  0.0223  0.3267 -0.2072
  116MOL   H30639636   3.314   0.303   0.866  0.0470 -0.5973  0.0985
  116MOL   H30739637   3.393   0.179   0.901 -0.1142 -0.6639  0.6742
  116MOL   C30839638   3.383   0.312   1.068 -0.1835  0.2015 -0.2920
  116MOL   C30939639   3.288   0.387   1.154  0.7124 -0.3224  0.3504
  116MOL   C31039640   3.242   0.517   1.128  0.1778 -0.6908 -0.0369
  116MOL   C31139641   3.177   0.597   1.225  0.1288  0.1895 -0.0509
  116MOL   C31239642   3.118   0.541   1.336 -0.1406 -0.0770 -0.3899
  116MOL   O31339643   3.053   0.615   1.429  0.5426 -0.0381  0.2857
  116MOL   C31439644   3.159   0.410   1.363  0.0709  0.5065  0.1413
  116MOL   C31539645   3.248   0.338   1.280  0.5484  0.0747  0.4951
  116MOL   C31639646   3.500   0.410   1.006  0.1649 -0.5152  0.6061
  116MOL   H31739647   3.430   0.231   1.124 -0.1991 -0.6338 -1.4731
  116MOL   H31839648   3.272   0.563   1.035 -0.8615 -1.2800 -0.6765
  116MOL   H31939649   3.169   0.703   1.204  2.0618  0.1492 -1.1623
  116MOL   H32039650   2.991   0.569   1.482 -1.4138  2.7675  0.5418
  116MOL   H32139651   3.134   0.363   1.457 -2.0062 -1.8352 -1.5256
  116MOL   H32239652   3.286   0.245   1.319  2.5363 -0.5255 -2.7131
  116MOL   H32339653   3.456   0.471   0.926 -1.7966 -2.3677  0.2090
  116MOL   H32439654   3.576   0.348   0.959  0.5356 -0.4116  1.0738
  116MOL   C32539655   3.567   0.512   1.099 -0.4367  0.6993 -0.4040
  116MOL   C32639656   3.652   0.615   1.015  0.1132  0.4532 -0.3639
  116MOL   C32739657   3.617   0.752   1.006 -0.1103  0.1921  0.6024
  116MOL   C32839658   3.697   0.844   0.937  1.0681 -0.3918 -0.4812
  116MOL   C32939659   3.818   0.799   0.880  0.3517 -1.1731 -0.4859
  116MOL   O33039660   3.895   0.880   0.802 -0.0715 -0.1624 -0.6446
  116MOL   C33139661   3.859   0.664   0.891 -0.3836  0.1196 -0.2665
  116MOL   C33239662   3.772   0.575   0.958 -1.0522 -0.0322  0.0339
  116MOL   C33339663   3.651   0.449   1.207  0.2549  0.3674 -0.4144
  116MOL   H33439664   3.497   0.578   1.150  2.4986  2.4406  1.5305
  116MOL   H33539665   3.525   0.782   1.054 -1.7506 -1.1734 -1.5681
  116MOL   H33639666   3.660   0.945   0.923  1.7016 -0.4670 -2.8760
  116MOL   H33739667   3.864   0.967   0.783  2.0978  0.6585 -0.5112
  116MOL   H33839668   3.953   0.630   0.850  0.2474  0.0180  1.2448
  116MOL   H33939669   3.804   0.472   0.966  0.5917  0.4612  0.0346
  116MOL   H34039670   3.728   0.378   1.179  0.3674 -0.1635  1.2181
  116MOL   H34139671   3.585   0.397   1.277  2.8478 -1.0901  1.0196
  116MOL   H34239672   3.702   0.527   1.262  2.6323 -0.7858 -0.9091
  117MOL     C139673   6.963   1.222   5.748 -0.1400 -0.4562 -1.3416
  117MOL     C239674   6.950   1.256   5.888 -0.0743 -0.5093 -0.0635
  117MOL     C339675   7.058   1.274   5.972 -0.2442  0.1176 -0.3470
  117MOL     C439676   7.039   1.311   6.103  0.3967 -0.1946  0.2033
  117MOL     C539677   6.908   1.326   6.155  0.4762  0.3792 -1.0815
  117MOL     O639678   6.882   1.374   6.277  0.1959 -0.6471  0.5833
  117MOL     C739679   6.797   1.297   6.077 -0.4327 -0.1267 -0.1144
  117MOL     C839680   6.814   1.262   5.940  0.3648  0.1577 -0.6978
  117MOL     C939681   7.074   1.292   5.671  0.0956  0.3288  0.8736
  117MOL    H1039682   6.965   1.113   5.748 -0.3824 -0.4914  1.1499
  117MOL    H1139683   7.161   1.269   5.939  0.7428  0.2869  2.5807
  117MOL    H1239684   7.124   1.329   6.167  0.1033 -0.0310  0.5477
  117MOL    H1339685   6.790   1.374   6.300 -0.1595  1.6876 -0.7401
  117MOL    H1439686   6.694   1.304   6.108  0.1162  2.7220  1.1711
  117MOL    H1539687   6.725   1.230   5.888 -1.5090 -0.1036  2.5339
  117MOL    H1639688   7.165   1.254   5.717  0.7075  0.2786 -0.3572
  117MOL    H1739689   7.067   1.400   5.682 -1.2331  0.0791  2.7647
  117MOL    H1839690   6.865   1.249   5.708  0.4306  2.0444 -1.1445
  117MOL    C1939691   7.075   1.258   5.518 -0.9395  0.3692 -0.1990
  117MOL    C2039692   7.217   1.284   5.468  0.7598 -0.1895  0.2924
  117MOL    C2139693   7.282   1.407   5.475 -0.9084  0.2671  0.1984
  117MOL    C2239694   7.415   1.422   5.430 -0.6307  0.1788  0.1566
  117MOL    C2339695   7.484   1.311   5.375  0.1745  0.2554 -0.0965
  117MOL    O2439696   7.615   1.324   5.336  0.6200  0.4754  0.0520
  117MOL    C2539697   7.416   1.189   5.360  0.0680 -0.6835 -0.0659
  117MOL    C2639698   7.283   1.177   5.404 -0.5935  0.0374  0.3420
  117MOL    C2739699   6.974   1.353   5.445  0.2000 -0.4038  0.2698
  117MOL    H2839700   7.048   1.157   5.490  1.2177 -0.2705 -0.0689
  117MOL    H2939701   7.246   1.501   5.515  2.8301  1.9802 -0.2359
  117MOL    H3039702   7.471   1.514   5.446 -0.3158 -0.6360  4.3565
  117MOL    H3139703   7.676   1.255   5.358  1.1929  1.4497  1.6351
  117MOL    H3239704   7.472   1.105   5.322 -0.7557 -0.0876 -2.6762
  117MOL    H3339705   7.238   1.079   5.394  1.8713 -1.0155 -0.7794
  117MOL    H3439706   7.000   1.453   5.478  0.0376  0.2345 -1.4462
  117MOL    H3539707   6.875   1.336   5.486  0.9620  0.7492  2.6547
  117MOL    C3639708   6.973   1.362   5.289  0.7315 -0.5937  0.1976
  117MOL    C3739709   6.898   1.479   5.240 -0.1933 -0.3837  0.9066
  117MOL    C3839710   6.979   1.583   5.191 -0.8404 -0.1558  0.9147
  117MOL    C3939711   6.934   1.715   5.187  0.2782 -0.6875  0.0650
  117MOL    C4039712   6.804   1.750   5.226  0.0969  0.5030  0.1134
  117MOL    O4139713   6.761   1.877   5.218 -0.2067  0.2273 -0.0561
  117MOL    C4239714   6.715   1.649   5.270 -0.2345 -0.8813 -0.1126
  117MOL    C4339715   6.762   1.514   5.283 -0.1139  0.1181  0.0524
  117MOL    C4439716   6.938   1.238   5.206  0.4163 -0.2835 -0.3399
  117MOL    H4539717   7.077   1.380   5.261  0.5059  0.4792  0.0396
  117MOL    H4639718   7.085   1.565   5.180 -0.6970  2.1229 -2.0600
  117MOL    H4739719   6.997   1.788   5.141  1.2890 -1.4202  0.2703
  117MOL    H4839720   6.807   1.931   5.156  2.4643 -2.0940 -0.1546
  117MOL    H4939721   6.617   1.683   5.299  0.2376 -2.0220  3.0573
  117MOL    H5039722   6.702   1.433   5.321  1.2684 -0.7948  0.3668
  117MOL    H5139723   6.993   1.156   5.254 -0.6190  0.0369  1.4522
  117MOL    H5239724   6.839   1.197   5.225  0.2448  0.3754  0.1928
  117MOL    C5339725   6.954   1.242   5.053 -0.8778  0.4821  0.3584
  117MOL    C5439726   7.084   1.309   5.013  0.0614 -0.6808 -0.0779
  117MOL    C5539727   7.208   1.277   5.080  0.5174  1.2917  0.0356
  117MOL    C5639728   7.329   1.340   5.034 -0.0207  0.7493 -0.0935
  117MOL    C5739729   7.325   1.447   4.938  0.4286 -0.0812 -0.4048
  117MOL    O5839730   7.433   1.523   4.907 -0.5965  0.0609 -0.1497
  117MOL    C5939731   7.199   1.470   4.872  0.2267 -0.3970 -0.0653
  117MOL    C6039732   7.079   1.409   4.913  0.6820  0.0921  0.1768
  117MOL    C6139733   6.953   1.092   4.994 -0.3892  0.2743 -0.0542
  117MOL    H6239734   6.876   1.299   5.003  0.1399  0.9026 -0.7488
  117MOL    H6339735   7.209   1.201   5.156  3.5921  0.3740 -0.8298
  117MOL    H6439736   7.414   1.319   5.097 -0.7663 -0.6791  0.4650
  117MOL    H6539737   7.493   1.526   4.980 -1.0347 -1.5560  0.2924
  117MOL    H6639738   7.176   1.542   4.795 -2.5322 -0.4019  0.6811
  117MOL    H6739739   6.982   1.428   4.868  0.9513  1.8985  0.3257
  117MOL    H6839740   6.852   1.052   4.985 -0.8342  1.5517 -0.7542
  117MOL    H6939741   7.004   1.026   5.064  2.0422  0.2718 -1.7484
  117MOL    C7039742   7.003   1.071   4.854 -0.2369  0.4523 -0.0303
  117MOL    C7139743   6.906   1.129   4.751  0.3330  0.4528 -0.2230
  117MOL    C7239744   6.955   1.238   4.677 -0.0809  0.2013 -0.1606
  117MOL    C7339745   6.876   1.280   4.569  0.2596  0.2131 -0.2893
  117MOL    C7439746   6.757   1.221   4.530  0.8111  0.3492 -0.4786
  117MOL    O7539747   6.681   1.260   4.425  0.5049  0.0305 -0.0247
  117MOL    C7639748   6.714   1.110   4.605 -0.5944  0.4702  0.0148
  117MOL    C7739749   6.779   1.066   4.725  0.4812 -0.2099  0.3219
  117MOL    C7839750   7.033   0.928   4.809  0.6013 -0.3431 -0.3419
  117MOL    H7939751   7.096   1.126   4.844  0.3357 -0.2479  1.3345
  117MOL    H8039752   7.055   1.275   4.692  0.0646  0.7644 -2.3580
  117MOL    H8139753   6.922   1.361   4.515  2.5679 -0.5309  0.4962
  117MOL    H8239754   6.626   1.194   4.387  1.2336 -1.5773  1.6224
  117MOL    H8339755   6.627   1.055   4.572  0.2467 -0.7588 -0.1712
  117MOL    H8439756   6.741   0.981   4.780 -0.3064 -0.5248 -0.7013
  117MOL    H8539757   6.975   0.899   4.722 -0.0163 -1.2564  0.3634
  117MOL    H8639758   7.007   0.874   4.900 -1.8429  1.7543  0.2532
  117MOL    C8739759   7.186   0.907   4.791  0.3266  0.0004 -0.5503
  117MOL    C8839760   7.255   1.001   4.695 -0.0451  0.5760  0.3485
  117MOL    C8939761   7.337   1.105   4.748 -0.0896 -0.0724 -0.2061
  117MOL    C9039762   7.401   1.190   4.658  0.0141 -0.4638 -0.5735
  117MOL    C9139763   7.387   1.177   4.521  0.1023 -0.3301  0.1388
  117MOL    O9239764   7.458   1.259   4.439  0.4052 -0.3935 -0.4871
  117MOL    C9339765   7.306   1.074   4.473  0.1619 -0.1831  0.4626
  117MOL    C9439766   7.241   0.986   4.555  0.6693 -0.6452 -1.1480
  117MOL    C9539767   7.212   0.755   4.765  0.2830 -0.5025 -0.5414
  117MOL    H9639768   7.231   0.916   4.890 -0.3710 -0.7245 -0.1620
  117MOL    H9739769   7.342   1.130   4.853  1.3265 -1.2243  0.0220
  117MOL    H9839770   7.450   1.276   4.701 -1.3087  1.6117 -3.0562
  117MOL    H9939771   7.501   1.330   4.484  1.3822 -0.4771 -1.2754
  117MOL   H10039772   7.301   1.062   4.365  0.0749 -2.0978  0.6673
  117MOL   H10139773   7.183   0.909   4.506 -0.8615 -0.5948  0.5229
  117MOL   H10239774   7.123   0.693   4.768 -1.0402  1.3408 -0.9859
  117MOL   H10339775   7.250   0.733   4.665 -0.5875 -1.4782 -0.6627
  117MOL   C10439776   7.314   0.693   4.863  0.2056  0.0529  0.2237
  117MOL   C10539777   7.436   0.777   4.886 -0.6874 -0.2000 -0.6000
  117MOL   C10639778   7.462   0.835   5.013 -0.7082  0.8702 -0.2977
  117MOL   C10739779   7.587   0.900   5.042  0.1264 -0.3796  0.1988
  117MOL   C10839780   7.679   0.905   4.942  0.3400 -0.0395  0.9341
  117MOL   O10939781   7.798   0.970   4.966  0.2030 -0.0611  0.0508
  117MOL   C11039782   7.655   0.845   4.815 -0.6782  0.1396  0.0929
  117MOL   C11139783   7.533   0.791   4.782  0.1374 -0.3827 -0.0065
  117MOL   C11239784   7.348   0.547   4.834  0.8692  0.4633  0.0680
  117MOL   H11339785   7.264   0.680   4.959  1.7791 -0.0457  1.0406
  117MOL   H11439786   7.388   0.827   5.091 -1.2388  0.0825 -0.8740
  117MOL   H11539787   7.603   0.943   5.140 -1.0905 -1.0034  0.6792
  117MOL   H11639788   7.840   0.996   4.885 -1.2837 -1.7966 -1.3286
  117MOL   H11739789   7.733   0.848   4.741  0.2580 -2.2163  0.9255
  117MOL   H11839790   7.511   0.759   4.681 -1.0507  0.1319  0.0808
  117MOL   H11939791   7.416   0.542   4.749 -0.6881  0.3995 -1.1914
  117MOL   H12039792   7.267   0.492   4.785 -1.6444  1.0450  3.3970
  117MOL   C12139793   7.421   0.473   4.940  0.3600  0.8762 -1.2747
  117MOL   C12239794   7.356   0.473   5.079  0.2879  0.1022  0.1413
  117MOL   C12339795   7.242   0.398   5.107 -0.4196 -0.0389 -0.1097
  117MOL   C12439796   7.173   0.391   5.230 -0.0497 -0.1115 -0.7853
  117MOL   C12539797   7.237   0.456   5.341 -0.0709 -1.3029 -0.0442
  117MOL   O12639798   7.186   0.449   5.466 -0.1965  0.3098 -0.2905
  117MOL   C12739799   7.358   0.522   5.315  0.2161  0.4712  0.2896
  117MOL   C12839800   7.411   0.541   5.186 -0.0436  0.3434  0.2088
  117MOL   C12939801   7.457   0.326   4.895 -0.1541  0.6544 -0.0480
  117MOL   H13039802   7.517   0.523   4.943  0.5682  0.4237  0.9750
  117MOL   H13139803   7.190   0.350   5.025  2.1937 -2.0812 -0.6051
  117MOL   H13239804   7.076   0.346   5.238 -1.6757  2.8087 -3.1751
  117MOL   H13339805   7.189   0.535   5.506  1.1015  1.0663 -1.9527
  117MOL   H13439806   7.411   0.574   5.394 -2.1104  3.3724  0.0424
  117MOL   H13539807   7.500   0.603   5.183  0.5575 -0.3977  2.0025
  117MOL   H13639808   7.360   0.286   4.867  0.5634 -0.1745 -1.4010
  117MOL   H13739809   7.490   0.268   4.981  1.0261  0.8040 -0.3827
  117MOL   C13839810   7.563   0.312   4.784  0.0221 -0.4590 -0.0649
  117MOL   C13939811   7.564   0.162   4.740 -0.5242 -0.1191 -0.1229
  117MOL   C14039812   7.628   0.055   4.810 -0.4526  0.1611  0.2071
  117MOL   C14139813   7.626   7.961   4.764  0.9936 -0.5475 -0.2750
  117MOL   C14239814   7.563   7.937   4.638  0.4124  0.1547 -0.2235
  117MOL   O14339815   7.548   7.814   4.587  0.0446 -0.3838  0.4788
  117MOL   C14439816   7.504   0.004   4.563  0.6561 -0.8855 -0.3530
  117MOL   C14539817   7.496   0.132   4.624 -0.1785  1.2900  0.0486
  117MOL   C14639818   7.704   0.371   4.825  0.6002 -0.2641 -0.6094
  117MOL   H14739819   7.530   0.364   4.694  1.4827 -1.7744 -1.4162
  117MOL   H14839820   7.686   0.079   4.899  0.0898 -0.5099  0.0396
  117MOL   H14939821   7.674   7.878   4.813  1.2378 -1.5258 -2.1284
  117MOL   H15039822   7.599   7.748   4.632  0.5260 -0.6164 -0.3829
  117MOL   H15139823   7.448   8.016   4.475  1.8931 -0.4642 -1.2730
  117MOL   H15239824   7.432   0.198   4.568  0.9374  0.0004 -2.8472
  117MOL   H15339825   7.729   0.361   4.931  0.3597  1.0058 -0.4266
  117MOL   H15439826   7.697   0.478   4.809 -0.0763 -0.3324 -0.7840
  117MOL   C15539827   7.825   0.314   4.752 -0.4902  0.2717  0.0734
  117MOL   C15639828   7.951   0.390   4.798 -0.4678  0.0120 -0.3251
  117MOL   C15739829   7.967   0.531   4.790 -0.3398 -0.1694 -0.4306
  117MOL   C15839830   0.049   0.590   4.828  0.3404 -0.1478  0.7509
  117MOL   C15939831   0.159   0.513   4.876 -0.2860 -0.5063  0.3733
  117MOL   O16039832   0.277   0.579   4.913  0.1120  0.0688  0.4404
  117MOL   C16139833   0.141   0.374   4.893 -0.5357  0.8162 -0.2283
  117MOL   C16239834   0.015   0.315   4.857 -0.9488 -0.7228 -0.2223
  117MOL   C16339835   7.805   0.341   4.600  0.2981 -0.4501 -0.5919
  117MOL   H16439836   7.840   0.208   4.770  0.8446  0.0374 -2.2409
  117MOL   H16539837   7.888   0.596   4.755 -1.7491 -0.2963  2.4133
  117MOL   H16639838   0.068   0.696   4.822  2.2398 -0.5056  0.0648
  117MOL   H16739839   0.284   0.673   4.906  1.9212  0.0036  1.0829
  117MOL   H16839840   0.215   0.304   4.928  0.0076  0.9949 -0.9984
  117MOL   H16939841   0.004   0.208   4.866 -1.1622 -0.4978  2.6649
  117MOL   H17039842   7.794   0.449   4.595  0.2706 -0.5316 -2.8444
  117MOL   H17139843   7.715   0.295   4.559  0.7623  0.2456 -2.4666
  117MOL   C17239844   7.926   0.299   4.511  0.4931 -0.5981  0.2100
  117MOL   C17339845   7.926   0.398   4.392  0.6072  0.4517  0.2278
  117MOL   C17439846   0.011   0.453   4.365  0.0990  0.0711 -0.3172
  117MOL   C17539847   0.024   0.534   4.251  0.1309 -0.5842  0.4292
  117MOL   C17639848   7.949   0.563   4.169  0.0226 -0.2603 -0.6014
  117MOL   O17739849   7.970   0.634   4.055 -0.0577 -0.0858 -0.3577
  117MOL   C17839850   7.824   0.510   4.204 -1.0620  0.6431  0.1064
  117MOL   C17939851   7.808   0.420   4.310 -0.4136 -0.0932 -0.3565
  117MOL   C18039852   7.915   0.146   4.461 -0.1506  0.0939 -0.4555
  117MOL   H18139853   8.019   0.310   4.566  1.1222  2.8426 -1.3669
  117MOL   H18239854   0.093   0.422   4.428 -1.4764  0.3002  1.9162
  117MOL   H18339855   0.120   0.570   4.219 -0.0712 -0.0773  0.3792
  117MOL   H18439856   0.023   0.659   4.066 -0.7466  0.9887  3.6284
  117MOL   H18539857   7.740   0.530   4.139 -0.9579 -3.4702 -1.4047
  117MOL   H18639858   7.712   0.384   4.342 -2.5535  1.8263 -4.2808
  117MOL   H18739859   7.843   0.142   4.379 -0.7759  1.2149  0.0150
  117MOL   H18839860   7.874   0.085   4.541  2.1336  0.1633  0.7862
  117MOL   C18939861   0.017   0.088   4.416  0.3327 -0.4887 -0.0086
  117MOL   C19039862   0.113   0.095   4.533 -0.7287 -0.3473  0.2163
  117MOL   C19139863   0.224   0.183   4.512  0.4874 -0.2876  0.2965
  117MOL   C19239864   0.312   0.201   4.619  0.2202 -1.0514  0.3986
  117MOL   C19339865   0.304   0.117   4.735 -0.0511 -0.0563 -0.4816
  117MOL   O19439866   0.402   0.118   4.829  0.0097 -0.1893  0.4401
  117MOL   C19539867   0.189   0.038   4.754 -0.2910 -0.2684  0.7150
  117MOL   C19639868   0.093   0.027   4.654 -0.7549  0.1365 -0.9514
  117MOL   C19739869   8.037   7.978   4.360 -0.2525  0.3504 -0.6962
  117MOL   H19839870   0.064   0.150   4.340  1.5017 -1.7821 -0.3787
  117MOL   H19939871   0.229   0.244   4.423 -1.0058 -1.4379 -0.5913
  117MOL   H20039872   0.392   0.273   4.609 -0.3678 -0.3610  0.6328
  117MOL   H20139873   0.469   0.177   4.798 -0.6527  1.6983  2.4151
  117MOL   H20239874   0.185   8.031   4.852 -0.2807 -0.6143  0.5572
  117MOL   H20339875   8.035   8.016   4.673 -0.5659  0.5979  1.4068
  117MOL   H20439876   7.964   7.927   4.422 -0.0522  2.2192  1.1694
  117MOL   H20539877   0.095   7.928   4.372 -1.3461 -2.4259 -3.0396
  117MOL   C20639878   8.003   7.968   4.208  0.1461 -0.9040 -0.1248
  117MOL   C20739879   7.911   7.853   4.173  0.8098 -1.0124 -0.3610
  117MOL   C20839880   7.775   7.872   4.158 -0.0324  0.0242  0.3605
  117MOL   C20939881   7.682   7.766   4.149 -0.2752  0.3295  0.4474
  117MOL   C21039882   7.739   7.634   4.143 -0.1370  0.1606 -0.7274
  117MOL   O21139883   7.657   7.523   4.131  0.7816 -0.3696 -0.5627
  117MOL   C21239884   7.876   7.614   4.163 -0.6417 -0.2286 -0.6633
  117MOL   C21339885   7.963   7.724   4.180  0.0475 -0.3377 -0.2226
  117MOL   C21439886   0.086   7.975   4.115 -0.8064  0.2377  0.4151
  117MOL   H21539887   7.940   0.014   4.177  0.3199 -0.2552  1.2705
  117MOL   H21639888   7.744   7.975   4.151  1.7005  0.7365  2.5456
  117MOL   H21739889   7.575   7.777   4.137 -0.2851  1.3102  1.4184
  117MOL   H21839890   7.566   7.543   4.150  0.9863  0.1733 -0.1239
  117MOL   H21939891   7.929   7.521   4.169 -0.1814 -0.0751 -2.1760
  117MOL   H22039892   0.029   7.702   4.204 -0.2259 -0.5782  0.7200
  117MOL   H22139893   0.078   7.894   4.042  1.0155 -0.0308  0.4827
  117MOL   H22239894   0.173   7.939   4.169  0.1461  1.0797 -0.5351
  117MOL   C22339895   0.115   0.074   4.048  0.5872 -0.4448 -0.7011
  117MOL   C22439896   8.029   0.139   3.982  0.4588 -1.6188  0.7873
  117MOL   C22539897   7.942   0.060   3.899 -0.4040  0.6466  0.1462
  117MOL   C22639898   7.828   0.113   3.830 -0.3307  0.3634 -0.3582
  117MOL   C22739899   7.805   0.246   3.856 -0.4115 -0.2861 -0.4006
  117MOL   O22839900   7.691   0.302   3.815  0.6671  0.1022 -0.3804
  117MOL   C22939901   7.886   0.329   3.936 -0.1413  0.1858 -0.2180
  117MOL   C23039902   7.995   0.276   4.007  0.4072  0.3803 -0.2788
  117MOL   C23139903   0.235   0.073   3.948  0.3933 -0.1764  0.2079
  117MOL   H23239904   0.141   0.136   4.133  1.0078  0.5635 -1.5579
  117MOL   H23339905   7.966   7.992   3.895 -1.2709  0.3745  1.5759
  117MOL   H23439906   7.760   0.054   3.771  1.3463 -2.0896  0.0747
  117MOL   H23539907   7.628   0.241   3.780 -1.1139 -0.0452  2.8726
  117MOL   H23639908   7.867   0.434   3.952 -2.7003 -0.0260 -1.6722
  117MOL   H23739909   0.018   0.333   4.076  2.0602 -2.0681  0.3545
  117MOL   H23839910   0.320   0.016   3.984  0.0982 -2.0483 -1.8769
  117MOL   H23939911   0.203   0.027   3.854  2.0864 -0.9560 -0.0028
  117MOL   C24039912   0.295   0.215   3.919 -0.6554 -0.0567 -0.3122
  117MOL   C24139913   0.344   0.281   4.044 -0.4067  0.4726  0.3166
  117MOL   C24239914   0.328   0.420   4.057 -0.3518 -0.3436 -0.0492
  117MOL   C24339915   0.366   0.488   4.175  0.3781 -0.0952  0.1809
  117MOL   C24439916   0.422   0.418   4.279 -0.2079 -0.4436 -0.0276
  117MOL   O24539917   0.463   0.489   4.385  0.2086  0.0536  0.0362
  117MOL   C24639918   0.442   0.280   4.268  0.2327 -0.0147  0.5225
  117MOL   C24739919   0.406   0.209   4.148 -0.1570  0.2173  0.0811
  117MOL   C24839920   0.397   0.215   3.802  0.2204 -0.1230  0.7357
  117MOL   H24939921   0.207   0.272   3.892  0.2346  1.6670  0.3611
  117MOL   H25039922   0.281   0.472   3.975 -0.8799 -1.7953 -0.6726
  117MOL   H25139923   0.347   0.594   4.176  1.2918  0.1194  3.9905
  117MOL   H25239924   0.426   0.576   4.385 -1.0293 -0.4001  2.4329
  117MOL   H25339925   0.478   0.218   4.349  2.2159  0.6050  0.1212
  117MOL   H25439926   0.434   0.105   4.141 -0.6317  0.0227  1.0409
  117MOL   H25539927   0.456   0.305   3.810  0.6424 -0.4191  0.9811
  117MOL   H25639928   0.465   0.134   3.831  0.6241 -0.2963 -0.6701
  117MOL   C25739929   0.325   0.200   3.665  0.2299  0.1685  0.5056
  117MOL   C25839930   0.253   0.323   3.623  0.0254  0.5705  0.1881
  117MOL   C25939931   0.303   0.454   3.641  0.0511 -0.0827 -0.3753
  117MOL   C26039932   0.229   0.568   3.609 -0.3320  0.4386 -0.7220
  117MOL   C26139933   0.094   0.547   3.557  0.0210 -0.4423 -0.4885
  117MOL   O26239934   0.014   0.650   3.525 -0.5941  0.4645 -0.0752
  117MOL   C26339935   0.042   0.418   3.545 -0.0871  0.2569  0.0735
  117MOL   C26439936   0.119   0.304   3.576 -0.2032 -0.5222 -0.4705
  117MOL   C26539937   0.421   0.165   3.550 -0.7371 -0.0807 -0.2734
  117MOL   H26639938   0.244   0.126   3.666 -0.8505  1.3221  0.2372
  117MOL   H26739939   0.405   0.471   3.674 -0.6370 -0.5093  2.0630
  117MOL   H26839940   0.272   0.667   3.598 -0.9709  0.6626 -1.1940
  117MOL   H26939941   7.959   0.636   3.530 -0.5255  0.0431  0.0224
  117MOL   H27039942   7.981   0.412   3.500  0.1390 -1.1668 -0.2550
  117MOL   H27139943   0.096   0.200   3.558  1.4700 -1.0009  0.0538
  117MOL   H27239944   0.492   0.247   3.532 -0.2749  0.1262  2.3028
  117MOL   H27339945   0.361   0.172   3.460 -1.2836 -1.0858  0.0091
  117MOL   C27439946   0.492   0.028   3.552 -0.2874 -0.0365  1.0272
  117MOL   C27539947   0.530   8.018   3.404 -1.1294 -0.6274 -0.0421
  117MOL   C27639948   0.659   7.963   3.385  0.2677  0.5368 -0.0466
  117MOL   C27739949   0.681   7.889   3.264 -0.0525  0.1431 -0.2706
  117MOL   C27839950   0.593   7.905   3.154 -0.3222  1.0397  0.4763
  117MOL   O27939951   0.627   7.842   3.038  0.0364 -0.2162 -0.3241
  117MOL   C28039952   0.470   7.972   3.169 -0.4009 -0.4120  1.3886
  117MOL   C28139953   0.437   8.022   3.297 -0.6432  0.4080 -0.9842
  117MOL   C28239954   0.429   7.960   3.643  0.0456 -0.7714  0.4988
  117MOL   H28339955   0.590   0.045   3.597 -0.1989  0.7764  0.5201
  117MOL   H28439956   0.726   7.963   3.469  0.2985 -2.0309 -0.0174
  117MOL   H28539957   0.778   7.844   3.248  0.8250  1.6498  0.6597
  117MOL   H28639958   0.598   7.902   2.971  2.1202  1.9499  0.6079
  117MOL   H28739959   0.411   7.993   3.081  0.1137  2.5873  1.6873
  117MOL   H28839960   0.342   0.033   3.317 -0.3353  0.6722 -0.1458
  117MOL   H28939961   0.439   7.975   3.750  0.7125 -2.7721  0.7421
  117MOL   H29039962   0.322   7.980   3.634  0.1852 -0.1267  0.2081
  117MOL   C29139963   0.449   7.810   3.616 -0.3267 -0.1107  0.1117
  117MOL   C29239964   0.342   7.752   3.519  0.8639  0.9010 -0.6196
  117MOL   C29339965   0.212   7.756   3.557  0.6348 -0.0527 -0.1949
  117MOL   C29439966   0.108   7.699   3.484 -0.5849  0.2523 -0.3881
  117MOL   C29539967   0.143   7.635   3.365  0.0281  0.3605 -0.3573
  117MOL   O29639968   0.051   7.568   3.288 -0.2326 -0.6000  0.0610
  117MOL   C29739969   0.277   7.640   3.321 -0.4972 -0.3045  1.0565
  117MOL   C29839970   0.382   7.692   3.398 -0.0808  0.4123  0.0889
  117MOL   C29939971   0.456   7.727   3.748  0.3753  0.0040  0.2829
  117MOL   H30039972   0.544   7.797   3.564 -1.0903 -1.2992 -1.0072
  117MOL   H30139973   0.186   7.804   3.651 -0.7029  0.9136 -1.0519
  117MOL   H30239974   0.006   7.716   3.517 -0.3712 -0.3263  0.5839
  117MOL   H30339975   0.077   7.540   3.201 -0.3448 -1.3202  0.2652
  117MOL   H30439976   0.312   7.580   3.239  1.6705  1.9113  0.2930
  117MOL   H30539977   0.487   7.680   3.378  0.0300  0.5856  0.5778
  117MOL   H30639978   0.373   7.656   3.754  1.8164 -1.5414  2.3995
  117MOL   H30739979   0.440   7.789   3.837 -2.0574 -0.6274  0.3276
  117MOL   C30839980   0.583   7.637   3.762 -0.5191  0.2230 -0.4137
  117MOL   C30939981   0.555   7.501   3.830 -0.2279  0.6401 -0.2070
  117MOL   C31039982   0.580   7.381   3.761  0.0856 -0.0711 -0.1315
  117MOL   C31139983   0.548   7.256   3.825  0.5492  0.0116  0.2138
  117MOL   C31239984   0.492   7.257   3.955  0.2156 -0.2115  0.0086
  117MOL   O31339985   0.463   7.137   4.011 -0.5491  0.1193 -0.1682
  117MOL   C31439986   0.471   7.379   4.022  0.1706  0.6407  0.3183
  117MOL   C31539987   0.502   7.503   3.964  0.3119  0.0249 -0.3929
  117MOL   C31639988   0.692   7.713   3.841  0.7001 -0.3947 -1.0549
  117MOL   H31739989   0.619   7.605   3.665 -2.3499 -0.9604 -0.7445
  117MOL   H31839990   0.619   7.384   3.660  1.4913  2.1099  0.4308
  117MOL   H31939991   0.564   7.165   3.770  0.6007 -0.9833  1.8663
  117MOL   H32039992   0.397   7.149   4.077 -3.6724 -1.7642 -2.8173
  117MOL   H32139993   0.425   7.364   4.119 -1.1939 -3.3780 -0.8563
  117MOL   H32239994   0.484   7.590   4.027  1.8307 -0.6608  1.0140
  117MOL   H32339995   0.736   7.640   3.909  3.0338  1.4549 -0.4963
  117MOL   H32439996   0.656   7.789   3.910  2.1731 -0.3747 -0.2843
  117MOL   C32539997   0.817   7.765   3.765  0.2042  0.9905  0.1585
  117MOL   C32639998   0.879   7.659   3.672 -0.0589  0.3544 -0.8812
  117MOL   C32739999   0.845   7.673   3.535  0.2038 -0.2207 -0.0384
  117MOL   C32840000   0.894   7.577   3.447  0.5194 -0.2799 -0.3587
  117MOL   C32940001   0.982   7.472   3.491 -0.3956 -1.1261 -0.3604
  117MOL   O33040002   1.039   7.387   3.400 -0.7397 -0.1377  0.9754
  117MOL   C33140003   1.021   7.465   3.623  0.3592  0.5087 -0.0760
  117MOL   C33240004   0.970   7.557   3.717 -0.0705  0.4397 -0.0317
  117MOL   C33340005   0.918   7.821   3.860 -0.4544 -0.2867 -0.3074
  117MOL   H33440006   0.769   7.837   3.698 -2.6073  0.7328  1.8358
  117MOL   H33540007   0.774   7.749   3.504 -0.5761 -1.6942 -1.9865
  117MOL   H33640008   0.862   7.584   3.344  0.3124  2.6975 -0.1348
  117MOL   H33740009   1.031   7.413   3.310  2.6251 -1.4703  0.2147
  117MOL   H33840010   1.097   7.393   3.653 -0.8198  0.1852  2.2773
  117MOL   H33940011   1.005   7.550   3.819  1.1971  2.4300 -0.3191
  117MOL   H34040012   0.956   7.745   3.928  0.3139  1.5619  1.3732
  117MOL   H34140013   0.888   7.899   3.930  0.0027  0.7246 -1.2204
  117MOL   H34240014   1.002   7.854   3.799 -0.5094  1.9361  0.7788
  118MOL     C140015   1.363   6.575   2.051  0.4402  0.2343  0.1931
  118MOL     C240016   1.446   6.464   2.107  0.0241 -0.2268 -0.0450
  118MOL     C340017   1.388   6.339   2.128 -0.1829  0.3955 -0.6779
  118MOL     C440018   1.463   6.229   2.181  0.5349 -0.2571  0.0375
  118MOL     C540019   1.604   6.242   2.198 -0.6490  0.3153  0.0182
  118MOL     O640020   1.672   6.130   2.234  0.1784  0.1075 -0.9997
  118MOL     C740021   1.661   6.367   2.186  0.1464  0.0844  0.6311
  118MOL     C840022   1.583   6.475   2.138 -0.0258  0.2834 -0.1007
  118MOL     C940023   1.325   6.568   1.903 -0.1671 -0.0665  0.1841
  118MOL    H1040024   1.266   6.572   2.100  0.8572 -2.4233  0.9886
  118MOL    H1140025   1.281   6.332   2.113 -0.3755 -0.3368  0.8890
  118MOL    H1240026   1.407   6.137   2.187 -0.1677  0.1345 -0.4308
  118MOL    H1340027   1.761   6.148   2.261  0.0481  2.3526 -1.9771
  118MOL    H1440028   1.767   6.374   2.206  1.0861 -1.3336 -3.3453
  118MOL    H1540029   1.646   6.562   2.127  2.4572 -1.6843 -2.1124
  118MOL    H1640030   1.331   6.460   1.891  2.5080  0.0698  0.0400
  118MOL    H1740031   1.413   6.611   1.856  1.0375 -0.3759  2.0921
  118MOL    H1840032   1.410   6.671   2.070  0.8836 -0.6100  3.8807
  118MOL    C1940033   1.186   6.627   1.860 -0.3497  0.6585 -0.2814
  118MOL    C2040034   1.152   6.572   1.726 -0.8884  0.2245  0.2641
  118MOL    C2140035   1.035   6.492   1.707  0.0895  0.3995  0.3739
  118MOL    C2240036   0.996   6.447   1.585 -1.2053  0.3221  0.1005
  118MOL    C2340037   1.082   6.474   1.476 -0.5774  0.0682 -0.4819
  118MOL    O2440038   1.037   6.439   1.355 -0.1217  0.0352 -0.1708
  118MOL    C2540039   1.192   6.558   1.486 -0.0545 -0.9503 -0.0470
  118MOL    C2640040   1.226   6.608   1.616 -0.4028  0.0581 -0.3331
  118MOL    C2740041   1.163   6.781   1.858  0.1311 -0.1351 -0.0062
  118MOL    H2840042   1.112   6.588   1.929  1.2093 -0.9089  0.5651
  118MOL    H2940043   0.976   6.473   1.795  0.4277 -2.0188  0.1091
  118MOL    H3040044   0.903   6.394   1.574 -1.3399  0.5100  0.3463
  118MOL    H3140045   0.965   6.378   1.354  0.8172 -1.1086 -1.5979
  118MOL    H3240046   1.243   6.585   1.395  0.4221 -2.4649 -0.2500
  118MOL    H3340047   1.309   6.674   1.635  0.8750 -1.5755 -0.1374
  118MOL    H3440048   1.172   6.823   1.758 -0.2281 -0.9964 -0.3995
  118MOL    H3540049   1.253   6.820   1.907  1.9891 -2.4076 -1.4770
  118MOL    C3640050   1.029   6.822   1.927  0.5108  0.1080 -0.5694
  118MOL    C3740051   0.908   6.761   1.852 -0.0725 -0.1614  0.0838
  118MOL    C3840052   0.817   6.670   1.913 -1.4623 -0.2082 -0.0948
  118MOL    C3940053   0.708   6.611   1.841  0.0807  0.5818  0.4477
  118MOL    C4040054   0.698   6.641   1.702 -0.0627 -0.9446 -0.6061
  118MOL    O4140055   0.597   6.579   1.631  0.3647 -0.0045  0.1763
  118MOL    C4240056   0.792   6.728   1.644  0.6583  0.4792 -0.1135
  118MOL    C4340057   0.898   6.783   1.718  0.4076  0.1641  0.2489
  118MOL    C4440058   1.027   6.970   1.944 -0.1024 -0.0950  0.1368
  118MOL    H4540059   1.030   6.769   2.023 -0.0789  2.6707  0.9056
  118MOL    H4640060   0.833   6.643   2.016  0.3708  3.9905  0.8037
  118MOL    H4740061   0.628   6.566   1.897  1.0388 -1.7000  0.0331
  118MOL    H4840062   0.604   6.605   1.541  2.7029 -1.6839 -0.1815
  118MOL    H4940063   0.793   6.748   1.538  1.0475 -1.3971 -0.4949
  118MOL    H5040064   0.972   6.846   1.670  1.0382 -0.3915  0.4700
  118MOL    H5140065   1.113   7.013   1.893 -0.2912  2.0139  1.5270
  118MOL    H5240066   0.941   7.013   1.894 -1.6253 -1.4004  1.5608
  118MOL    C5340067   1.025   7.012   2.090  0.1812  1.0073 -0.6501
  118MOL    C5440068   1.150   6.955   2.159  0.1681 -0.2482 -0.0768
  118MOL    C5540069   1.276   6.996   2.113 -0.0320 -0.0765 -0.1529
  118MOL    C5640070   1.390   6.948   2.175 -0.1247 -0.5695  0.0563
  118MOL    C5740071   1.376   6.870   2.290  0.4522 -0.0323  0.2954
  118MOL    O5840072   1.490   6.823   2.341  0.2556  0.1531 -0.6107
  118MOL    C5940073   1.257   6.832   2.345 -0.0109 -0.3057  0.3448
  118MOL    C6040074   1.139   6.879   2.276  0.2897 -0.9390  0.1656
  118MOL    C6140075   1.025   7.166   2.097 -0.1989 -0.0540 -0.3007
  118MOL    H6240076   0.942   6.954   2.130  0.5587  0.8452 -0.1012
  118MOL    H6340077   1.296   7.065   2.032  1.2042 -0.0789  0.1297
  118MOL    H6440078   1.489   6.975   2.142  0.0139  0.2573  1.0988
  118MOL    H6540079   1.474   6.732   2.361 -0.9749  0.3604 -0.5888
  118MOL    H6640080   1.251   6.765   2.430 -0.3327 -0.9966 -0.2217
  118MOL    H6740081   1.043   6.841   2.308  0.9605 -2.0887  0.8383
  118MOL    H6840082   1.106   7.205   2.035  0.9582  0.2767  1.3882
  118MOL    H6940083   1.039   7.193   2.201  2.7776 -0.6162 -0.5180
  118MOL    C7040084   0.895   7.231   2.054  0.2711  0.0604  0.0972
  118MOL    C7140085   0.914   7.361   1.992 -0.4704 -0.6752 -0.1793
  118MOL    C7240086   0.952   7.472   2.072 -0.4158 -0.1286  0.0381
  118MOL    C7340087   0.978   7.599   2.014  0.0026  0.4649 -0.1335
  118MOL    C7440088   0.969   7.620   1.879 -0.4236 -0.3947 -0.1031
  118MOL    O7540089   0.994   7.742   1.831  0.2441  0.1311  0.5827
  118MOL    C7640090   0.940   7.509   1.797  0.1400  0.7591 -0.2103
  118MOL    C7740091   0.924   7.379   1.850  0.7552 -0.0560  0.7350
  118MOL    C7840092   0.791   7.250   2.171  0.0544  0.0628 -0.4076
  118MOL    H7940093   0.842   7.177   1.976  0.5753  3.1438 -2.3460
  118MOL    H8040094   0.948   7.459   2.179 -1.3496 -0.5639 -0.0394
  118MOL    H8140095   1.000   7.679   2.083 -1.6970 -0.5722  1.6734
  118MOL    H8240096   0.979   7.752   1.738 -0.9825  0.2103  0.7741
  118MOL    H8340097   0.934   7.504   1.690  1.2629 -1.2154 -0.2188
  118MOL    H8440098   0.920   7.293   1.785 -0.7963 -0.6795  1.6271
  118MOL    H8540099   0.717   7.316   2.126  1.0944  1.9344  0.5370
  118MOL    H8640100   0.842   7.304   2.251 -1.3728 -0.6856  1.0337
  118MOL    C8740101   0.726   7.136   2.245  0.1775 -0.0956  0.0947
  118MOL    C8840102   0.644   7.041   2.160 -0.3783  0.0983  0.6053
  118MOL    C8940103   0.646   6.905   2.198 -0.7057  0.2791  0.3470
  118MOL    C9040104   0.558   6.812   2.136  0.1181 -0.0447 -0.4241
  118MOL    C9140105   0.474   6.858   2.030 -0.5115  0.6004 -0.1066
  118MOL    O9240106   0.386   6.772   1.970  0.1416  0.3824 -0.0071
  118MOL    C9340107   0.490   6.990   1.980  0.0207  1.0315  0.2459
  118MOL    C9440108   0.571   7.077   2.048  0.1268 -0.0673  0.0805
  118MOL    C9540109   0.644   7.201   2.360 -0.5648  0.2084  0.3028
  118MOL    H9640110   0.817   7.090   2.282  0.6128  0.1651 -0.6291
  118MOL    H9740111   0.707   6.879   2.283  0.7233  0.7707 -0.4929
  118MOL    H9840112   0.547   6.710   2.169 -0.2377 -0.0312 -0.4992
  118MOL    H9940113   0.375   6.792   1.879 -1.7217 -0.8307 -0.0798
  118MOL   H10040114   0.436   7.021   1.892 -3.8357 -1.6422  1.5365
  118MOL   H10140115   0.575   7.178   2.010 -1.6697  0.1429  0.3851
  118MOL   H10240116   0.703   7.274   2.414  0.1203  0.2080 -0.4391
  118MOL   H10340117   0.558   7.255   2.321 -0.2881  0.9844  0.7594
  118MOL   C10440118   0.596   7.103   2.467  0.2785 -0.0695 -0.9359
  118MOL   C10540119   0.468   7.152   2.529 -0.0779  0.2344  0.5448
  118MOL   C10640120   0.347   7.073   2.522  0.9988  0.6661  0.0985
  118MOL   C10740121   0.229   7.114   2.589  0.1043  0.1041 -0.0091
  118MOL   C10840122   0.233   7.239   2.657 -0.7717 -0.0731 -0.0390
  118MOL   O10940123   0.131   7.291   2.731  0.5186  0.3992  0.1686
  118MOL   C11040124   0.350   7.315   2.662 -0.4201  0.0185  0.7902
  118MOL   C11140125   0.467   7.264   2.613 -0.4880  0.2114 -0.3458
  118MOL   C11240126   0.712   7.064   2.562 -1.1130 -0.2788 -0.2563
  118MOL   H11340127   0.563   7.014   2.412  0.5689  0.7252 -2.4176
  118MOL   H11440128   0.345   6.983   2.463 -1.7491  1.2844 -0.8301
  118MOL   H11540129   0.137   7.059   2.583  0.1985  0.0839 -1.5287
  118MOL   H11640130   0.049   7.245   2.722 -0.1327  1.3326  1.1971
  118MOL   H11740131   0.352   7.411   2.710  1.3682  0.9622 -1.1075
  118MOL   H11840132   0.552   7.330   2.609  0.9765 -1.6342  0.1239
  118MOL   H11940133   0.746   7.152   2.617 -0.6891  0.7436 -2.1120
  118MOL   H12040134   0.796   7.032   2.502 -0.0592 -0.7155  1.4138
  118MOL   C12140135   0.684   6.949   2.661  0.0963 -0.9106  0.2560
  118MOL   C12240136   0.691   6.813   2.600  0.2089  0.1028 -0.1425
  118MOL   C12340137   0.578   6.725   2.603 -0.1336  0.1103  0.4821
  118MOL   C12440138   0.597   6.581   2.574 -0.0400  0.2471  0.2780
  118MOL   C12540139   0.727   6.532   2.560 -0.1203  0.3267 -0.2516
  118MOL   O12640140   0.749   6.398   2.553 -0.5563  0.2577  0.2759
  118MOL   C12740141   0.837   6.623   2.556 -1.0667 -0.2220  0.0730
  118MOL   C12840142   0.818   6.763   2.576 -0.1560  0.1444 -0.2181
  118MOL   C12940143   0.754   6.977   2.797 -0.4427 -0.2279  0.2983
  118MOL   H13040144   0.578   6.962   2.681  0.1577 -1.1476  0.7486
  118MOL   H13140145   0.476   6.750   2.630 -0.7080 -1.4197 -0.2010
  118MOL   H13240146   0.520   6.506   2.579  1.9017 -1.9484 -1.6971
  118MOL   H13340147   0.674   6.347   2.581 -0.4890  0.6256  1.1417
  118MOL   H13440148   0.933   6.574   2.550 -0.9572 -0.0268  0.2264
  118MOL   H13540149   0.903   6.826   2.597 -0.1811 -0.3803  1.5065
  118MOL   H13640150   0.727   7.078   2.826 -2.2108 -0.1323 -1.5296
  118MOL   H13740151   0.860   6.981   2.773 -0.5647 -1.8330 -0.5627
  118MOL   C13840152   0.714   6.880   2.909 -0.2610 -0.2540 -0.1493
  118MOL   C13940153   0.566   6.901   2.946 -0.2898 -0.3763  0.7389
  118MOL   C14040154   0.522   7.028   2.989  0.7757 -0.9465 -0.0646
  118MOL   C14140155   0.391   7.050   3.013 -0.3106 -0.3476 -0.2902
  118MOL   C14240156   0.304   6.941   3.022 -0.6004 -0.2679 -0.6132
  118MOL   O14340157   0.172   6.970   3.037 -0.2549  0.2592 -0.3604
  118MOL   C14440158   0.345   6.808   2.988  0.6578  0.1144 -0.7266
  118MOL   C14540159   0.475   6.792   2.943  0.1221 -0.1364 -0.2078
  118MOL   C14640160   0.810   6.877   3.030 -0.5239  0.1625 -0.3275
  118MOL   H14740161   0.723   6.781   2.865  1.3011 -1.3019  2.4137
  118MOL   H14840162   0.603   7.100   2.982 -0.5457  0.5553 -0.0857
  118MOL   H14940163   0.363   7.154   3.022 -0.5565 -0.3532 -0.9634
  118MOL   H15040164   0.164   7.047   3.090 -0.8052  0.1289 -0.2490
  118MOL   H15140165   0.271   6.732   2.969 -0.3837  1.3144 -1.4787
  118MOL   H15240166   0.510   6.700   2.899  0.5670 -0.1137  0.0940
  118MOL   H15340167   0.761   6.835   3.118  1.6553 -0.9275  0.3896
  118MOL   H15440168   0.840   6.979   3.052  3.1723 -1.0898  0.7274
  118MOL   C15540169   0.934   6.791   3.030 -0.4235  0.2364  0.3335
  118MOL   C15640170   0.887   6.653   3.039  0.0637 -0.0099  0.3571
  118MOL   C15740171   0.839   6.593   3.159  0.0087 -0.6578  0.7699
  118MOL   C15840172   0.788   6.457   3.159  0.1977  0.4754  0.5022
  118MOL   C15940173   0.773   6.390   3.038  0.1243 -0.2663 -0.0479
  118MOL   O16040174   0.703   6.268   3.039 -0.4221 -0.2153 -0.1389
  118MOL   C16140175   0.813   6.454   2.917  0.1874  0.1604  0.2319
  118MOL   C16240176   0.883   6.576   2.917  0.3263  0.6636 -0.2160
  118MOL   C16340177   1.044   6.827   3.140  0.9164  0.6940  0.1095
  118MOL   H16440178   0.993   6.801   2.938 -0.6213 -0.1191  0.1676
  118MOL   H16540179   0.829   6.655   3.247  0.7809  0.9430 -0.2350
  118MOL   H16640180   0.777   6.402   3.251  0.1762 -0.6536 -0.1653
  118MOL   H16740181   0.702   6.226   2.954 -1.3278  1.1814 -0.8292
  118MOL   H16840182   0.814   6.396   2.826  0.4468  0.8292 -0.1939
  118MOL   H16940183   0.906   6.616   2.820 -1.6588  0.1398 -0.9366
  118MOL   H17040184   1.002   6.826   3.241  0.4999 -2.2615 -0.0592
  118MOL   H17140185   1.059   6.935   3.127  3.2983  0.0898 -2.5423
  118MOL   C17240186   1.183   6.763   3.126  0.3934 -0.2224 -0.4021
  118MOL   C17340187   1.183   6.621   3.167  0.2310 -0.4627 -0.7867
  118MOL   C17440188   1.175   6.583   3.303  0.0379 -0.4819  0.0932
  118MOL   C17540189   1.155   6.458   3.349 -0.4822  0.3648  0.0208
  118MOL   C17640190   1.145   6.354   3.253  0.3930 -0.0867 -0.3684
  118MOL   O17740191   1.139   6.230   3.306  0.3854 -0.1815  0.1748
  118MOL   C17840192   1.156   6.382   3.116  0.1709  0.7874 -0.4221
  118MOL   C17940193   1.183   6.515   3.074  0.1740  0.1414 -0.3123
  118MOL   C18040194   1.297   6.842   3.200 -0.1832  0.0760 -0.0151
  118MOL   H18140195   1.199   6.759   3.018 -0.5005 -0.4581 -0.5311
  118MOL   H18240196   1.172   6.663   3.375  1.6306 -0.8415  0.5614
  118MOL   H18340197   1.153   6.437   3.455  1.7534 -0.6149 -0.1127
  118MOL   H18440198   1.068   6.211   3.365 -0.1957 -1.9923 -1.0477
  118MOL   H18540199   1.144   6.301   3.045 -2.5022  0.9614 -0.2260
  118MOL   H18640200   1.191   6.538   2.969  1.5105 -0.3954 -0.3507
  118MOL   H18740201   1.316   6.806   3.301 -0.4375  1.2154  0.4454
  118MOL   H18840202   1.255   6.936   3.235  1.5259  0.9936 -0.3731
  118MOL   C18940203   1.422   6.871   3.116 -0.0993 -0.2468  0.5351
  118MOL   C19040204   1.485   7.000   3.156 -0.0823 -0.6982 -0.5597
  118MOL   C19140205   1.471   7.114   3.069  0.2650  0.2806 -0.0375
  118MOL   C19240206   1.512   7.238   3.117 -0.3664  0.3219  0.0457
  118MOL   C19340207   1.576   7.245   3.242 -0.1858 -0.2364  0.8962
  118MOL   O19440208   1.619   7.369   3.290 -0.2258  0.1421  0.4669
  118MOL   C19540209   1.596   7.131   3.322  0.7503  0.2364  0.3970
  118MOL   C19640210   1.544   6.999   3.283  0.1108 -0.5612 -0.9186
  118MOL   C19740211   1.523   6.755   3.112  1.1517 -0.1950 -0.0741
  118MOL   H19840212   1.381   6.893   3.018  1.5535 -1.6405 -0.4830
  118MOL   H19940213   1.418   7.102   2.976  2.3640 -0.6099 -1.1616
  118MOL   H20040214   1.501   7.326   3.055 -0.2039  1.6901  1.8908
  118MOL   H20140215   1.615   7.384   3.383 -1.3551  2.9770  0.0017
  118MOL   H20240216   1.651   7.138   3.415 -0.8902  0.8793  1.3367
  118MOL   H20340217   1.537   6.916   3.353 -1.4250  0.8323  0.6408
  118MOL   H20440218   1.475   6.673   3.058 -2.1024 -0.2260  2.6314
  118MOL   H20540219   1.532   6.727   3.217  0.3921 -0.3956 -0.0577
  118MOL   C20640220   1.661   6.782   3.047  0.1247 -0.8601  0.2127
  118MOL   C20740221   1.646   6.839   2.904  0.4456 -0.1856 -0.2613
  118MOL   C20840222   1.727   6.951   2.876  0.1587 -0.4240 -0.2395
  118MOL   C20940223   1.731   7.008   2.747 -0.1869 -0.2909  0.4646
  118MOL   C21040224   1.664   6.942   2.644  0.2200  0.7603 -0.0669
  118MOL   O21140225   1.677   6.976   2.511 -0.3154 -0.1341  0.1086
  118MOL   C21240226   1.573   6.839   2.675 -0.5003  0.0832 -0.3297
  118MOL   C21340227   1.566   6.784   2.803 -0.4398 -0.0161 -0.1727
  118MOL   C21440228   1.758   6.669   3.049 -0.3275 -0.1994  0.2895
  118MOL   H21540229   1.703   6.858   3.113  0.9470  0.3210 -1.6375
  118MOL   H21640230   1.787   6.981   2.961  0.9778 -1.2712 -0.5096
  118MOL   H21740231   1.805   7.086   2.736  0.5692 -1.0165  0.3447
  118MOL   H21840232   1.603   6.942   2.462  1.0902 -1.6400 -1.0053
  118MOL   H21940233   1.514   6.796   2.595 -0.6522  0.4204 -0.3980
  118MOL   H22040234   1.498   6.704   2.830 -2.2435  1.5461  0.0506
  118MOL   H22140235   1.759   6.630   3.151  0.3107  0.3553  0.4980
  118MOL   H22240236   1.854   6.716   3.033  0.1925 -0.7402  1.7035
  118MOL   C22340237   1.749   6.547   2.954  0.3122  0.6723  0.0943
  118MOL   C22440238   1.647   6.445   2.994 -0.4233 -0.0327  0.2292
  118MOL   C22540239   1.542   6.400   2.908  0.1967  0.3526 -0.1120
  118MOL   C22640240   1.457   6.294   2.947 -0.2607 -0.0187  0.0015
  118MOL   C22740241   1.458   6.249   3.082 -0.9571 -0.6252  0.6673
  118MOL   O22840242   1.386   6.140   3.124  0.0524  0.3874 -0.3139
  118MOL   C22940243   1.562   6.292   3.161 -0.3327  0.2319 -0.5171
  118MOL   C23040244   1.647   6.392   3.123 -0.8457 -0.4683 -0.3173
  118MOL   C23140245   1.876   6.470   2.931 -0.1418  0.5730 -0.5901
  118MOL   H23240246   1.712   6.578   2.856  0.4223  0.5069 -0.0015
  118MOL   H23340247   1.515   6.459   2.822 -1.2994 -2.0482 -1.3338
  118MOL   H23440248   1.390   6.254   2.872 -0.7061  1.9583 -0.6968
  118MOL   H23540249   1.324   6.159   3.192  0.6029 -2.1828  0.9712
  118MOL   H23640250   1.577   6.252   3.260 -1.3607  2.0207  0.3834
  118MOL   H23740251   1.727   6.422   3.190 -0.7743 -0.7249 -0.2827
  118MOL   H23840252   1.961   6.538   2.929  0.3745 -0.0640 -0.5518
  118MOL   H23940253   1.897   6.392   3.004  3.2342  1.6565 -0.2733
  118MOL   C24040254   1.875   6.395   2.798 -0.1273 -0.7261 -0.1742
  118MOL   C24140255   1.885   6.495   2.674  0.6413  0.2041 -0.4107
  118MOL   C24240256   1.999   6.570   2.636  0.7545  0.2979 -0.6818
  118MOL   C24340257   2.002   6.625   2.501 -0.2944  0.1967 -0.0145
  118MOL   C24440258   1.887   6.622   2.419 -0.3389 -0.4373  0.5238
  118MOL   O24540259   1.881   6.697   2.303 -0.2669  0.2024 -0.0505
  118MOL   C24640260   1.769   6.559   2.466  0.3717 -0.7344  0.0999
  118MOL   C24740261   1.772   6.494   2.586 -0.2626 -0.0218  0.4016
  118MOL   C24840262   1.975   6.281   2.790 -0.9636 -0.0642  0.9093
  118MOL   H24940263   1.777   6.347   2.796 -1.4494  1.8008  0.9468
  118MOL   H25040264   2.093   6.565   2.688  1.1662 -2.0237 -1.6099
  118MOL   H25140265   2.090   6.680   2.471  1.7518 -1.0377  3.4614
  118MOL   H25240266   1.913   6.785   2.313 -0.8745  0.5257 -0.9536
  118MOL   H25340267   1.686   6.550   2.398  2.0993 -2.1518 -1.9090
  118MOL   H25440268   1.691   6.435   2.625  0.6448  0.4353  3.0992
  118MOL   H25540269   1.987   6.269   2.683 -0.1829  3.4889  0.5214
  118MOL   H25640270   2.073   6.324   2.815  0.3442 -3.0674  1.1267
  118MOL   C25740271   1.939   6.137   2.840 -0.5203  0.7310 -0.4584
  118MOL   C25840272   1.797   6.085   2.804 -0.4803 -0.3138 -0.3621
  118MOL   C25940273   1.753   6.088   2.670 -0.3008  0.0683 -0.1143
  118MOL   C26040274   1.622   6.042   2.637 -0.5102  0.2624  0.1587
  118MOL   C26140275   1.544   5.982   2.737  1.1212 -0.0865  0.5432
  118MOL   O26240276   1.429   5.923   2.702 -0.2268  0.1977 -0.2684
  118MOL   C26340277   1.591   5.975   2.867  0.0902 -0.3134 -1.1319
  118MOL   C26440278   1.715   6.033   2.905  0.5972 -0.3390 -0.7400
  118MOL   C26540279   2.047   6.038   2.796  0.4892  0.6010 -0.2612
  118MOL   H26640280   1.939   6.143   2.949 -1.6576 -2.0982 -0.2577
  118MOL   H26740281   1.818   6.110   2.587 -1.2315 -0.7158 -1.0579
  118MOL   H26840282   1.597   6.030   2.533 -1.0380 -0.4822  0.3681
  118MOL   H26940283   1.362   5.916   2.769  0.1783 -0.0435  0.1127
  118MOL   H27040284   1.521   5.935   2.940  2.2282 -0.9417  0.6358
  118MOL   H27140285   1.746   6.034   3.008  0.5946  2.0572 -0.7569
  118MOL   H27240286   2.141   6.091   2.788 -0.7236  2.8630  0.0771
  118MOL   H27340287   2.018   6.013   2.694  0.2872  1.3533 -0.3935
  118MOL   C27440288   2.042   5.904   2.879 -0.3208  0.5502 -0.1503
  118MOL   C27540289   2.104   5.909   3.016  0.0412 -0.1130 -0.2388
  118MOL   C27640290   2.220   5.988   3.040  0.0284  0.0495 -0.5574
  118MOL   C27740291   2.295   5.976   3.159  0.5439 -0.3650  0.0197
  118MOL   C27840292   2.233   5.909   3.265 -0.3243  0.4740 -0.0201
  118MOL   O27940293   2.296   5.899   3.390 -0.6666  0.1961 -0.2213
  118MOL   C28040294   2.112   5.839   3.248 -0.2856  0.1029  0.1184
  118MOL   C28140295   2.049   5.831   3.121 -0.0421  0.2329 -0.1615
  118MOL   C28240296   2.103   5.793   2.803 -0.6476 -0.1392  0.0523
  118MOL   H28340297   1.942   5.866   2.900  0.4146 -0.5847  1.4272
  118MOL   H28440298   2.260   6.054   2.965 -0.9536 -1.2830 -2.3010
  118MOL   H28540299   2.391   6.026   3.163  0.5664 -0.4393  0.3874
  118MOL   H28640300   2.370   5.956   3.401 -0.2133 -0.7458  1.9949
  118MOL   H28740301   2.069   5.792   3.336  1.2971 -1.2520  0.1925
  118MOL   H28840302   1.968   5.761   3.111  1.0217 -0.9364 -0.7863
  118MOL   H28940303   2.195   5.835   2.763  0.4242 -3.3254 -0.9833
  118MOL   H29040304   2.141   5.715   2.870 -1.4793  0.2638  0.9999
  118MOL   C29140305   2.005   5.714   2.705 -0.3247  0.3244  0.1128
  118MOL   C29240306   1.888   5.646   2.780  0.5331 -0.2267 -0.1854
  118MOL   C29340307   1.754   5.682   2.744  0.1079  0.6773 -0.0751
  118MOL   C29440308   1.647   5.639   2.828 -0.0707 -0.1881  0.2327
  118MOL   C29540309   1.668   5.549   2.936  0.2413  0.5657 -0.4948
  118MOL   O29640310   1.561   5.496   3.000 -0.5800  0.3970 -0.0734
  118MOL   C29740311   1.797   5.510   2.970  0.6850 -0.1221 -0.3166
  118MOL   C29840312   1.906   5.553   2.886  0.4476 -0.4889 -1.0887
  118MOL   C29940313   2.079   5.622   2.605 -0.0494 -0.1831 -0.0394
  118MOL   H30040314   1.945   5.789   2.654  0.7791  0.5352 -0.9133
  118MOL   H30140315   1.733   5.746   2.659  0.4008 -0.6134 -1.1482
  118MOL   H30240316   1.551   5.681   2.801  0.4129 -0.1374 -1.4538
  118MOL   H30340317   1.481   5.505   2.951 -1.1470 -0.6219  0.6439
  118MOL   H30440318   1.814   5.439   3.049  1.3521 -0.3521 -0.6660
  118MOL   H30540319   2.005   5.520   2.915 -0.2498 -0.8307  0.9775
  118MOL   H30640320   1.999   5.571   2.552  1.2906 -0.3760 -1.9228
  118MOL   H30740321   2.140   5.546   2.654  0.0911  0.3841  0.6705
  118MOL   C30840322   2.160   5.698   2.498 -0.5550 -0.7146  0.0121
  118MOL   C30940323   2.099   5.830   2.449 -0.4203  0.4113 -0.3821
  118MOL   C31040324   2.160   5.955   2.493 -0.1233 -0.5211  0.4414
  118MOL   C31140325   2.102   6.082   2.461  0.2281 -0.1548  0.1937
  118MOL   C31240326   1.993   6.081   2.373 -0.1160  0.2487 -0.3962
  118MOL   O31340327   1.941   6.197   2.340  0.0979 -0.4822  0.2264
  118MOL   C31440328   1.934   5.961   2.329 -0.6287 -0.4680 -0.2408
  118MOL   C31540329   1.983   5.837   2.371 -0.3851  0.7231  0.6471
  118MOL   C31640330   2.177   5.604   2.372  0.4839 -0.2705  0.3916
  118MOL   H31740331   2.261   5.719   2.532  0.0556 -1.9671 -0.9630
  118MOL   H31840332   2.237   5.940   2.566 -1.4232  0.9314  2.1575
  118MOL   H31940333   2.142   6.173   2.503  2.2296 -0.1388 -1.5989
  118MOL   H32040334   1.976   6.278   2.376  0.3324 -1.1148  1.4595
  118MOL   H32140335   1.851   5.968   2.261  0.5112  1.4922 -1.4853
  118MOL   H32240336   1.926   5.753   2.334  2.7530 -0.8795 -0.7227
  118MOL   H32340337   2.221   5.667   2.294  2.8082 -0.5231  1.4768
  118MOL   H32440338   2.077   5.584   2.334 -0.2839  1.4020  1.4642
  118MOL   C32540339   2.258   5.473   2.389 -0.4437 -0.4913  0.0565
  118MOL   C32640340   2.328   5.430   2.256 -0.0934 -0.3904 -0.1636
  118MOL   C32740341   2.472   5.419   2.243  0.3630  0.4843 -0.2813
  118MOL   C32840342   2.527   5.374   2.122  0.0783 -0.1829 -0.1606
  118MOL   C32940343   2.444   5.335   2.012  0.5834 -0.1237  0.2893
  118MOL   O33040344   2.494   5.284   1.897  0.0780  0.4753 -0.2238
  118MOL   C33140345   2.304   5.344   2.024 -0.0132  0.7819 -0.8789
  118MOL   C33240346   2.247   5.387   2.148 -0.1066 -0.3143 -0.5566
  118MOL   C33340347   2.175   5.352   2.429 -0.8001 -0.4916  0.8265
  118MOL   H33440348   2.343   5.500   2.452 -0.1029 -0.8306 -0.2528
  118MOL   H33540349   2.545   5.437   2.320 -1.7108 -1.1369  2.1674
  118MOL   H33640350   2.635   5.371   2.115  0.1671  1.3718  0.2815
  118MOL   H33740351   2.585   5.305   1.882 -0.0806 -1.2396 -4.1667
  118MOL   H33840352   2.247   5.313   1.937 -0.8835  1.4910 -0.5755
  118MOL   H33940353   2.140   5.383   2.163  0.0193  1.4228  0.9564
  118MOL   H34040354   2.089   5.333   2.364 -1.1110  0.6537  0.8870
  118MOL   H34140355   2.151   5.361   2.535 -1.3917 -2.5430  0.8875
  118MOL   H34240356   2.242   5.266   2.426 -1.0581 -0.6667 -1.1207
  119MOL     C140357   6.058   7.880   4.287 -0.1983  0.6661  0.0637
  119MOL     C240358   6.048   7.742   4.351  0.3163 -0.2970 -0.0636
  119MOL     C340359   5.948   7.653   4.306 -0.3212  0.9449  0.1772
  119MOL     C440360   5.945   7.525   4.343 -0.9529 -0.0018 -0.2096
  119MOL     C540361   6.049   7.469   4.420  0.0714 -0.3124 -0.7425
  119MOL     O640362   6.049   7.341   4.466 -0.5108  0.2434  0.4090
  119MOL     C740363   6.149   7.553   4.467  0.3423  1.0634  0.3268
  119MOL     C840364   6.146   7.692   4.436  0.4829  0.0931  0.5446
  119MOL     C940365   6.161   7.981   4.349 -0.0090  0.3928  0.5866
  119MOL    H1040366   6.074   7.874   4.179 -0.2118  1.0747  0.0414
  119MOL    H1140367   5.877   7.693   4.235  1.2392 -0.6082 -2.3190
  119MOL    H1240368   5.862   7.467   4.304 -1.0422 -0.2672  0.3780
  119MOL    H1340369   5.964   7.314   4.499 -0.0452 -2.1194 -0.2168
  119MOL    H1440370   6.226   7.507   4.527 -0.4037  0.3865  0.7794
  119MOL    H1540371   6.231   7.755   4.460  0.0334  0.4612  1.1688
  119MOL    H1640372   6.263   7.952   4.323  0.0259  0.6259  0.4600
  119MOL    H1740373   6.148   7.982   4.457 -0.6412 -0.3950  0.5217
  119MOL    H1840374   5.961   7.928   4.292 -0.0322  1.0002  0.0621
  119MOL    C1940375   6.141   0.092   4.301 -0.0212  0.1383 -0.0695
  119MOL    C2040376   6.151   0.109   4.149  0.1573 -0.0929 -1.0020
  119MOL    C2140377   6.279   0.114   4.089  0.1246  0.0811  0.5946
  119MOL    C2240378   6.287   0.120   3.949 -0.7665  0.1800 -0.1558
  119MOL    C2340379   6.166   0.130   3.870 -0.0497 -0.5722 -0.0251
  119MOL    O2440380   6.165   0.140   3.730 -0.2922  0.2537  0.2364
  119MOL    C2540381   6.038   0.122   3.936  0.3764 -0.8832 -0.3544
  119MOL    C2640382   6.034   0.116   4.072  0.7018  0.8560  0.6181
  119MOL    C2740383   6.237   0.195   4.382  0.3138 -0.3791  0.2673
  119MOL    H2840384   6.036   0.114   4.324 -0.8564 -1.4041 -2.1723
  119MOL    H2940385   6.372   0.107   4.144  0.3199  2.7870  0.7101
  119MOL    H3040386   6.385   0.131   3.904 -0.5890 -0.6053  0.0245
  119MOL    H3140387   6.252   0.164   3.702  0.3820 -2.0457  0.2381
  119MOL    H3240388   5.956   0.125   3.866 -0.6401 -3.7662  0.6559
  119MOL    H3340389   5.935   0.116   4.114 -0.0540  2.1048 -1.1149
  119MOL    H3440390   6.340   0.159   4.393  0.3645 -0.4295 -0.3507
  119MOL    H3540391   6.195   0.200   4.482 -1.4473 -1.0275 -0.4277
  119MOL    C3640392   6.240   0.344   4.322  0.2429 -0.0409  0.4868
  119MOL    C3740393   6.365   0.407   4.378  0.6171  0.0286 -0.7245
  119MOL    C3840394   6.372   0.432   4.519 -0.4539  0.1676  0.3610
  119MOL    C3940395   6.483   0.496   4.576 -0.1498  0.2356  0.0866
  119MOL    C4040396   6.591   0.548   4.489  0.4629 -0.2519 -0.2503
  119MOL    O4140397   6.695   0.618   4.539 -0.8362  0.5880  0.4912
  119MOL    C4240398   6.585   0.518   4.353 -0.1797 -0.6856  0.2529
  119MOL    C4340399   6.470   0.455   4.295  0.0838  0.1631  0.0761
  119MOL    C4440400   6.111   0.424   4.346  0.0962  0.1613  0.3736
  119MOL    H4540401   6.257   0.328   4.216  0.3073 -0.6557  0.5849
  119MOL    H4640402   6.294   0.398   4.585  1.2773 -2.0186  1.3317
  119MOL    H4740403   6.473   0.531   4.677 -1.9193  0.2529 -0.0806
  119MOL    H4840404   6.736   0.668   4.470  2.0821 -1.6773  0.4876
  119MOL    H4940405   6.651   0.554   4.275 -1.1911  0.5568 -0.0427
  119MOL    H5040406   6.452   0.463   4.189  0.2911  2.3925  0.1855
  119MOL    H5140407   6.031   0.356   4.315  0.8180 -0.7167  0.4095
  119MOL    H5240408   6.087   0.438   4.451  0.2388 -3.2701  0.9224
  119MOL    C5340409   6.101   0.559   4.272  0.2567 -0.2772 -0.7401
  119MOL    C5440410   6.177   0.567   4.143 -0.0924  0.1443  0.3242
  119MOL    C5540411   6.262   0.672   4.129 -0.5627 -0.5988  0.5755
  119MOL    C5640412   6.353   0.668   4.022  0.1155  1.1385 -0.1869
  119MOL    C5740413   6.334   0.576   3.917 -0.1420 -0.1189 -0.2214
  119MOL    O5840414   6.410   0.581   3.801  0.1321 -0.2804  0.1110
  119MOL    C5940415   6.231   0.476   3.929 -0.8703  0.4226 -0.5734
  119MOL    C6040416   6.149   0.474   4.043  1.2854 -0.2881 -0.2436
  119MOL    C6140417   5.955   0.588   4.243 -0.2903 -0.6781  0.1238
  119MOL    H6240418   6.125   0.633   4.348 -3.3432  1.6054 -1.3303
  119MOL    H6340419   6.261   0.762   4.189  0.4731  1.2016 -2.0307
  119MOL    H6440420   6.426   0.746   4.009  3.1590 -1.7423 -1.0312
  119MOL    H6540421   6.442   0.494   3.783  2.4009  0.3139  1.0844
  119MOL    H6640422   6.221   0.397   3.856  0.9621  2.2665 -2.9070
  119MOL    H6740423   6.070   0.402   4.056 -0.0799  1.2559  0.2910
  119MOL    H6840424   5.898   0.550   4.328 -0.7946  1.9826  1.0351
  119MOL    H6940425   5.923   0.517   4.167 -0.1541  0.2895 -0.8455
  119MOL    C7040426   5.912   0.739   4.211 -0.1335 -0.6993  0.3844
  119MOL    C7140427   5.925   0.837   4.327 -0.5149  0.6049 -0.2458
  119MOL    C7240428   5.938   0.796   4.460  0.3421  0.4087 -0.0989
  119MOL    C7340429   5.944   0.888   4.565  0.4491 -0.6394  0.0942
  119MOL    C7440430   5.937   1.024   4.544 -0.0651 -0.3768  0.0237
  119MOL    O7540431   5.936   1.118   4.643  0.0433  0.4247  0.0580
  119MOL    C7640432   5.919   1.065   4.413 -0.1978  0.0162  0.4029
  119MOL    C7740433   5.920   0.981   4.298 -0.8490 -0.0300  0.2735
  119MOL    C7840434   5.768   0.749   4.163 -0.1741 -0.0568 -0.5242
  119MOL    H7940435   5.975   0.775   4.130  0.4393 -2.5081 -0.0047
  119MOL    H8040436   5.935   0.690   4.485  1.0205  0.0644 -1.4441
  119MOL    H8140437   5.952   0.847   4.665 -0.9204 -1.3409 -0.0757
  119MOL    H8240438   5.899   1.075   4.719  0.0646 -0.0785 -0.2121
  119MOL    H8340439   5.914   1.169   4.386 -1.3646 -0.7164 -2.5040
  119MOL    H8440440   5.903   1.028   4.202  1.0452 -0.7996 -0.4685
  119MOL    H8540441   5.741   0.854   4.148  3.1971  0.5143 -3.3099
  119MOL    H8640442   5.712   0.725   4.253  1.1853 -1.2201  0.0372
  119MOL    C8740443   5.716   0.660   4.052 -0.7840  0.1528 -0.0297
  119MOL    C8840444   5.783   0.695   3.921 -0.1722  0.3435 -0.8020
  119MOL    C8940445   5.768   0.817   3.858 -0.4067  0.4542  0.1440
  119MOL    C9040446   5.826   0.837   3.729  0.6644  1.4834  0.3618
  119MOL    C9140447   5.915   0.740   3.681  0.1741  0.2598  0.2472
  119MOL    O9240448   5.975   0.757   3.562 -0.3883 -0.3635 -0.6915
  119MOL    C9340449   5.945   0.625   3.755 -0.1787 -0.3318  0.3073
  119MOL    C9440450   5.879   0.598   3.876  0.0201 -0.1727 -0.1310
  119MOL    C9540451   5.563   0.667   4.039  0.5531  0.2741 -0.1624
  119MOL    H9640452   5.739   0.556   4.076 -0.9081 -0.4942 -2.5037
  119MOL    H9740453   5.695   0.885   3.901 -0.6342  0.4199 -0.1864
  119MOL    H9840454   5.799   0.919   3.663  2.2163  0.5311 -1.5163
  119MOL    H9940455   6.045   0.694   3.553  0.6211  0.6042  0.2791
  119MOL   H10040456   6.008   0.547   3.714  3.1450  2.7538 -0.7968
  119MOL   H10140457   5.899   0.503   3.925 -0.4708  0.0944  0.5922
  119MOL   H10240458   5.529   0.617   4.130 -2.0899  0.6750 -0.9175
  119MOL   H10340459   5.530   0.769   4.057 -0.3115  0.3353 -2.0533
  119MOL   C10440460   5.496   0.627   3.907  0.0091  0.1382  0.0635
  119MOL   C10540461   5.339   0.639   3.922 -0.9547  0.7816  0.1966
  119MOL   C10640462   5.277   0.558   4.022  0.0390  0.4966  0.2397
  119MOL   C10740463   5.143   0.567   4.046  0.0214 -0.5786  0.2335
  119MOL   C10840464   5.068   0.658   3.972  0.1429 -0.6692  0.3192
  119MOL   O10940465   4.933   0.657   3.993 -0.4892  0.2865 -0.0286
  119MOL   C11040466   5.127   0.730   3.864  0.1615  0.1661  0.0508
  119MOL   C11140467   5.262   0.714   3.833  0.3564 -0.0253  0.2093
  119MOL   C11240468   5.547   0.485   3.867  0.3742 -0.5087 -1.0073
  119MOL   H11340469   5.518   0.697   3.825 -3.0751 -0.7272 -1.5655
  119MOL   H11440470   5.340   0.499   4.087 -1.3448 -2.2425 -0.8177
  119MOL   H11540471   5.086   0.500   4.108  0.1330 -0.4896  0.4295
  119MOL   H11640472   4.889   0.715   3.933 -2.7355 -0.3814  0.9227
  119MOL   H11740473   5.075   0.796   3.797  1.5254  0.1271 -1.0836
  119MOL   H11840474   5.308   0.780   3.761 -0.3505  1.2481  0.9134
  119MOL   H11940475   5.476   0.414   3.909  1.4590  0.3010  2.3055
  119MOL   H12040476   5.645   0.459   3.908  1.3869  2.9038 -1.1514
  119MOL   C12140477   5.552   0.472   3.716  0.5883 -0.2147 -0.1554
  119MOL   C12240478   5.657   0.372   3.680  0.1145  0.2325  0.4907
  119MOL   C12340479   5.760   0.412   3.598 -0.2715 -0.2331  0.5482
  119MOL   C12440480   5.864   0.324   3.558  0.7509  0.2809 -0.1556
  119MOL   C12540481   5.857   0.188   3.598 -0.2088  0.0327  0.6359
  119MOL   O12640482   5.948   0.098   3.548  0.4646  0.5315  0.0238
  119MOL   C12740483   5.757   0.149   3.683 -0.1257  0.5640 -0.2159
  119MOL   C12840484   5.654   0.238   3.720  0.1417  0.0905 -0.2852
  119MOL   C12940485   5.411   0.433   3.657 -0.1290  0.1022 -0.2716
  119MOL   H13040486   5.580   0.566   3.669 -0.0296  0.6389  1.1479
  119MOL   H13140487   5.781   0.515   3.571 -0.2202 -0.6289 -0.9337
  119MOL   H13240488   5.943   0.366   3.496 -0.6953  2.3983 -0.6414
  119MOL   H13340489   6.022   0.084   3.606  0.5662  1.7550  0.2116
  119MOL   H13440490   5.749   0.048   3.719  0.4879  0.0436 -1.5329
  119MOL   H13540491   5.569   0.199   3.773 -3.1202  2.2618 -3.7193
  119MOL   H13640492   5.337   0.505   3.691  0.6244  0.1383  1.3851
  119MOL   H13740493   5.363   0.342   3.694 -1.6366  1.6511  1.6905
  119MOL   C13840494   5.407   0.438   3.505 -0.0567 -0.6675  0.5147
  119MOL   C13940495   5.368   0.578   3.442 -0.9343 -0.8426 -0.3120
  119MOL   C14040496   5.251   0.654   3.477  0.0314 -0.0247 -0.0952
  119MOL   C14140497   5.218   0.780   3.417 -0.8233 -0.6684 -0.4376
  119MOL   C14240498   5.305   0.831   3.320 -0.3737 -0.2491  0.5422
  119MOL   O14340499   5.275   0.949   3.251  0.1287 -0.0020 -0.1330
  119MOL   C14440500   5.427   0.765   3.293  0.1481  0.1564 -0.2126
  119MOL   C14540501   5.460   0.641   3.354 -0.3957 -0.4578 -0.6232
  119MOL   C14640502   5.346   0.312   3.438  0.3638 -0.4921 -0.0567
  119MOL   H14740503   5.507   0.433   3.464  0.0282 -0.8802  0.7444
  119MOL   H14840504   5.177   0.610   3.542  0.9311 -1.1785  0.1572
  119MOL   H14940505   5.128   0.837   3.429 -1.8591 -2.1476 -0.9192
  119MOL   H15040506   5.187   0.984   3.249  1.1867  2.7080 -0.2879
  119MOL   H15140507   5.493   0.803   3.217 -1.9012  1.0264 -1.6052
  119MOL   H15240508   5.548   0.591   3.318  0.5266  1.3069 -0.8703
  119MOL   H15340509   5.396   0.225   3.481 -0.3232 -1.1609 -0.6072
  119MOL   H15440510   5.387   0.335   3.340  0.8759  2.2893  0.7412
  119MOL   C15540511   5.189   0.296   3.440 -0.4016  0.8681 -0.1073
  119MOL   C15640512   5.143   0.263   3.581 -0.5579 -0.4646 -0.5231
  119MOL   C15740513   5.174   0.141   3.643  0.3491 -0.4966 -0.2637
  119MOL   C15840514   5.126   0.110   3.772 -0.2448 -0.5503  0.0031
  119MOL   C15940515   5.040   0.210   3.836  0.4045 -0.2389 -0.1244
  119MOL   O16040516   5.002   0.187   3.960  0.8727  0.5718  0.9455
  119MOL   C16140517   5.010   0.333   3.773 -0.5372 -0.9038  0.1570
  119MOL   C16240518   5.067   0.365   3.651 -0.2451  0.5494  0.5397
  119MOL   C16340519   5.149   0.193   3.344 -0.1065  0.3960  0.5733
  119MOL   H16440520   5.149   0.386   3.394  0.8940  0.7970 -1.4098
  119MOL   H16540521   5.230   0.064   3.593 -1.4423 -1.0507 -1.4879
  119MOL   H16640522   5.139   0.016   3.824 -1.4591 -0.8695 -0.2435
  119MOL   H16740523   5.066   0.142   4.013  1.2702  0.7757  0.6378
  119MOL   H16840524   4.947   0.407   3.819  1.1214  1.2798 -0.9866
  119MOL   H16940525   5.044   0.461   3.607  0.1055  1.0438  1.4321
  119MOL   H17040526   5.041   0.186   3.351 -0.1170 -2.1874 -1.5306
  119MOL   H17140527   5.173   0.092   3.376  0.1709  0.4050  0.3969
  119MOL   C17240528   5.170   0.226   3.195  0.0758  0.2970 -0.2883
  119MOL   C17340529   5.085   0.339   3.141 -0.7868  0.2310 -0.4691
  119MOL   C17440530   4.945   0.331   3.126  0.3533  0.1300  0.8731
  119MOL   C17540531   4.876   0.449   3.077  0.3893 -0.0072 -0.3477
  119MOL   C17640532   4.938   0.569   3.048 -0.5921  0.1715  0.6045
  119MOL   O17740533   4.869   0.676   3.004 -0.1716  0.1707 -0.7236
  119MOL   C17840534   5.075   0.582   3.082 -0.0929  0.1227  0.4371
  119MOL   C17940535   5.146   0.465   3.119 -0.6318  0.3684  0.6532
  119MOL   C18040536   5.158   0.109   3.094 -0.8834  0.4353 -0.2226
  119MOL   H18140537   5.271   0.263   3.180 -0.8939  2.2766 -2.2049
  119MOL   H18240538   4.896   0.236   3.141  1.3792 -0.5009  0.2617
  119MOL   H18340539   4.770   0.448   3.057  0.8040 -2.0517 -2.6996
  119MOL   H18440540   4.923   0.745   2.969  0.5928 -0.9009 -1.6913
  119MOL   H18540541   5.124   0.678   3.082  0.4426 -0.1485  0.2539
  119MOL   H18640542   5.249   0.483   3.145 -1.2515 -0.7505  4.2107
  119MOL   H18740543   5.099   0.142   3.009 -0.7750  0.5545 -0.2516
  119MOL   H18840544   5.094   0.027   3.127 -2.6042  2.5571  1.8099
  119MOL   C18940545   5.295   0.061   3.029 -0.4662 -0.3508 -0.2141
  119MOL   C19040546   5.393   0.029   3.141 -0.6634  0.1897 -0.2666
  119MOL   C19140547   5.505   0.111   3.171  0.0099 -0.1601 -0.0149
  119MOL   C19240548   5.586   0.093   3.284 -0.2473  0.7284 -0.0405
  119MOL   C19340549   5.555   8.022   3.373 -0.3092  0.3156 -0.3988
  119MOL   O19440550   5.629   8.002   3.486 -0.7301  0.1846  0.1685
  119MOL   C19540551   5.443   7.936   3.345 -0.6761 -0.0435 -0.5589
  119MOL   C19640552   5.366   7.953   3.227  0.0009 -0.0734  0.2328
  119MOL   C19740553   5.272   7.975   2.931 -0.0363 -0.7063 -0.2848
  119MOL   H19840554   5.330   0.152   2.979 -0.7562 -0.0500  0.1303
  119MOL   H19940555   5.528   0.195   3.108  2.2525 -1.1259 -0.5557
  119MOL   H20040556   5.661   0.165   3.312 -0.6313  0.5979  1.3641
  119MOL   H20140557   5.706   0.020   3.487 -0.0033 -0.8346  2.1745
  119MOL   H20240558   5.417   7.852   3.406 -3.1067  0.1399 -1.3077
  119MOL   H20340559   5.291   7.882   3.194 -1.0394  0.8665  0.5312
  119MOL   H20440560   5.195   8.009   2.861  0.5100 -0.4510 -0.7648
  119MOL   H20540561   5.223   7.909   3.003 -0.8702  0.2955  0.0939
  119MOL   C20640562   5.406   7.931   2.857 -0.1485 -0.3151 -0.2124
  119MOL   C20740563   5.467   0.004   2.765 -0.6269  0.1891  0.1059
  119MOL   C20840564   5.603   0.000   2.735 -0.9125  0.2150 -0.2711
  119MOL   C20940565   5.667   0.088   2.648 -0.3994 -0.1399  0.0222
  119MOL   C21040566   5.593   0.194   2.593 -0.5977 -0.2999 -0.2724
  119MOL   O21140567   5.652   0.290   2.515 -0.3085 -0.1052  0.5966
  119MOL   C21240568   5.458   0.210   2.632  0.4436  0.5125 -0.6196
  119MOL   C21340569   5.388   0.110   2.714 -0.1792 -0.2867  0.6382
  119MOL   C21440570   5.390   7.801   2.778 -0.4756  0.1255  0.0857
  119MOL   H21540571   5.484   7.908   2.929  0.4018  2.2527  0.0610
  119MOL   H21640572   5.660   7.952   2.767 -0.5427 -0.0209 -1.5004
  119MOL   H21740573   5.772   0.072   2.625 -0.5399  1.0820 -1.5817
  119MOL   H21840574   5.707   0.249   2.450  0.0652  0.6301  0.4421
  119MOL   H21940575   5.411   0.299   2.591 -1.0287 -0.3706 -0.8837
  119MOL   H22040576   5.284   0.123   2.737  0.0586 -0.7450  2.0186
  119MOL   H22140577   5.487   7.784   2.730  0.6538  0.2833  2.2170
  119MOL   H22240578   5.327   7.813   2.690 -2.2135 -0.3962  1.2429
  119MOL   C22340579   5.352   7.680   2.863 -0.3056  0.4959  0.7750
  119MOL   C22440580   5.434   7.559   2.808 -0.2083  0.4973 -0.4291
  119MOL   C22540581   5.428   7.523   2.673 -0.1650 -0.5074 -1.1244
  119MOL   C22640582   5.505   7.418   2.617  0.0778 -0.5276 -0.6808
  119MOL   C22740583   5.575   7.334   2.710  0.2940 -0.2506  0.6481
  119MOL   O22840584   5.634   7.223   2.667 -0.4209 -0.0181 -0.0873
  119MOL   C22940585   5.573   7.356   2.852 -1.0702 -0.2922  1.0206
  119MOL   C23040586   5.506   7.475   2.895  0.0212 -0.3697 -0.1604
  119MOL   C23140587   5.199   7.652   2.865  0.0332  0.1428 -0.2899
  119MOL   H23240588   5.386   7.681   2.966  3.3212  4.1527 -0.3327
  119MOL   H23340589   5.365   7.586   2.612 -0.5135  0.6017  0.3480
  119MOL   H23440590   5.498   7.396   2.511  3.0673  1.0848 -1.2443
  119MOL   H23540591   5.681   7.191   2.743  0.1770  1.7357  0.3044
  119MOL   H23640592   5.616   7.295   2.929 -2.3119 -2.7942 -0.2012
  119MOL   H23740593   5.507   7.482   3.003  0.0540 -1.1182 -0.1125
  119MOL   H23840594   5.145   7.745   2.883  1.6847  0.6796  2.0987
  119MOL   H23940595   5.161   7.625   2.767  1.7457  1.7856 -1.4283
  119MOL   C24040596   5.150   7.543   2.962 -0.0885 -0.9345  0.1699
  119MOL   C24140597   5.164   7.581   3.106 -0.1513 -0.0604 -0.0761
  119MOL   C24240598   5.266   7.521   3.178  0.1668  0.1058 -0.2653
  119MOL   C24340599   5.290   7.563   3.313  0.0995  0.1874 -0.6722
  119MOL   C24440600   5.205   7.662   3.372 -0.1433 -0.4020 -0.4191
  119MOL   O24540601   5.220   7.700   3.503 -0.2333  0.1059 -0.5475
  119MOL   C24640602   5.102   7.720   3.300 -0.1090 -0.3302 -0.2270
  119MOL   C24740603   5.079   7.682   3.169 -0.8768  1.1759  0.1447
  119MOL   C24840604   5.009   7.497   2.928  0.8200  0.2333 -0.0301
  119MOL   H24940605   5.228   7.467   2.951  2.1458  1.3465 -0.3414
  119MOL   H25040606   5.328   7.440   3.143 -1.9342 -2.8174  2.4374
  119MOL   H25140607   5.364   7.511   3.371  0.4241 -0.8713 -2.0219
  119MOL   H25240608   5.279   7.638   3.544  1.1126  0.4033 -1.9794
  119MOL   H25340609   5.040   7.795   3.348 -1.0425 -0.7737 -0.7268
  119MOL   H25440610   4.999   7.728   3.113 -0.9182  1.7235  0.6435
  119MOL   H25540611   4.925   7.561   2.954  1.0016 -0.6001  2.7736
  119MOL   H25640612   4.997   7.493   2.819  0.7463 -2.4828  0.0466
  119MOL   C25740613   4.980   7.355   2.994 -0.5658 -0.0347 -0.5211
  119MOL   C25840614   4.926   7.364   3.139 -0.1899  0.2626  0.2328
  119MOL   C25940615   5.001   7.293   3.239  0.1596 -0.8356  0.1114
  119MOL   C26040616   4.960   7.316   3.373 -0.6327  0.0490 -0.2116
  119MOL   C26140617   4.841   7.385   3.407 -0.7030  0.7157 -0.3759
  119MOL   O26240618   4.798   7.385   3.535 -0.2610 -0.6435  0.1141
  119MOL   C26340619   4.770   7.450   3.309  0.7494  0.3760  0.5586
  119MOL   C26440620   4.812   7.438   3.172 -0.2940 -0.3782 -0.2299
  119MOL   C26540621   4.880   7.273   2.909 -0.5993 -0.6460 -0.5298
  119MOL   H26640622   5.075   7.303   3.002 -0.8637 -0.3876  0.9519
  119MOL   H26740623   5.079   7.222   3.215  2.6667  1.6980  0.3465
  119MOL   H26840624   5.018   7.272   3.453  1.2173  0.8436 -1.0858
  119MOL   H26940625   4.870   7.373   3.596  0.8325  2.2500 -0.5488
  119MOL   H27040626   4.673   7.495   3.324  0.0812 -0.6862 -0.4946
  119MOL   H27140627   4.754   7.490   3.098 -1.0088 -2.2551 -1.0302
  119MOL   H27240628   4.882   7.321   2.811 -2.6638 -0.1525 -0.3681
  119MOL   H27340629   4.776   7.287   2.939 -0.2973 -0.5659  0.4802
  119MOL   C27440630   4.911   7.133   2.920 -0.0319 -0.0558 -0.3671
  119MOL   C27540631   5.034   7.082   2.842  0.1683 -0.9795  0.0867
  119MOL   C27640632   5.078   6.948   2.861  0.1503  0.1319  0.0667
  119MOL   C27740633   5.199   6.900   2.795 -0.1949 -0.5251 -0.6591
  119MOL   C27840634   5.274   6.991   2.720 -0.1190  0.2839 -0.1714
  119MOL   O27940635   5.384   6.941   2.661 -0.4362 -0.0306 -0.2588
  119MOL   C28040636   5.225   7.121   2.700 -1.1098  0.7674  0.8442
  119MOL   C28140637   5.110   7.173   2.760  0.1875  0.2598 -0.1675
  119MOL   C28240638   4.786   7.047   2.896 -0.0026  0.0233  0.1194
  119MOL   H28340639   4.931   7.103   3.023  0.0711 -1.4691 -0.7885
  119MOL   H28440640   5.021   6.880   2.922  1.0576 -0.1864  0.5614
  119MOL   H28540641   5.243   6.803   2.815  0.7970 -0.0210 -0.3696
  119MOL   H28640642   5.422   6.996   2.594 -0.6185  0.3976 -0.0189
  119MOL   H28740643   5.284   7.193   2.645 -1.1310 -1.2138 -1.9065
  119MOL   H28840644   5.090   7.277   2.737 -1.7888 -0.4145 -1.5562
  119MOL   H28940645   4.715   7.105   2.838 -1.1682 -0.8077  0.6873
  119MOL   H29040646   4.802   6.957   2.836  1.5178 -0.7323  1.5965
  119MOL   C29140647   4.716   7.003   3.030  0.3023  0.2618  0.0465
  119MOL   C29240648   4.798   6.898   3.111 -0.2781 -1.0779  0.2051
  119MOL   C29340649   4.825   6.777   3.044  0.3465  0.2799  0.1679
  119MOL   C29440650   4.908   6.680   3.108 -0.2962 -0.3366  0.1040
  119MOL   C29540651   4.952   6.702   3.239 -0.4085  0.5965  0.1743
  119MOL   O29640652   5.014   6.597   3.300  0.1870 -0.5944 -0.3519
  119MOL   C29740653   4.931   6.826   3.307 -0.2221  0.5476 -0.4996
  119MOL   C29840654   4.853   6.928   3.240  0.1689 -0.3215  0.0298
  119MOL   C29940655   4.575   6.942   3.002 -0.3079 -0.0811 -0.4303
  119MOL   H30040656   4.696   7.088   3.096 -1.5150 -1.0295  1.2177
  119MOL   H30140657   4.799   6.753   2.942 -0.8018  0.7946  0.3332
  119MOL   H30240658   4.925   6.584   3.063 -1.5583  0.4441 -2.1400
  119MOL   H30340659   5.081   6.618   3.363 -0.9216  0.6529  0.4407
  119MOL   H30440660   4.977   6.842   3.403 -0.5369 -1.2624 -0.0344
  119MOL   H30540661   4.836   7.025   3.285  0.2188 -0.1927 -0.2323
  119MOL   H30640662   4.552   6.901   3.101  1.0193 -0.7805 -0.4055
  119MOL   H30740663   4.581   6.864   2.926  2.1071  1.8761 -2.3409
  119MOL   C30840664   4.459   7.033   2.956 -0.1756 -0.0383 -0.5167
  119MOL   C30940665   4.443   7.155   3.051  0.3030 -0.2727  0.3456
  119MOL   C31040666   4.414   7.133   3.182 -0.3147 -0.0111  0.3805
  119MOL   C31140667   4.396   7.243   3.275 -0.1522 -0.3976  0.3963
  119MOL   C31240668   4.397   7.373   3.238  0.2655  0.1158 -0.6157
  119MOL   O31340669   4.392   7.478   3.326  0.3086  0.5643  0.1655
  119MOL   C31440670   4.434   7.399   3.104 -0.1306  0.0668 -0.5133
  119MOL   C31540671   4.457   7.289   3.013 -0.9736 -0.7087 -0.0340
  119MOL   C31640672   4.329   6.951   2.926 -0.3704  0.0008 -0.1750
  119MOL   H31740673   4.493   7.077   2.862 -0.0024  0.9403 -0.0051
  119MOL   H31840674   4.395   7.034   3.222  1.1409 -0.7436 -0.7004
  119MOL   H31940675   4.376   7.214   3.378 -1.1579  0.7236  0.5201
  119MOL   H32040676   4.415   7.566   3.299  0.0690  0.1153 -1.6130
  119MOL   H32140677   4.438   7.506   3.090  1.1717  0.1180  0.2319
  119MOL   H32240678   4.494   7.317   2.915  0.2321  0.1269  0.6479
  119MOL   H32340679   4.298   6.882   3.004 -1.3554  0.5445 -0.0852
  119MOL   H32440680   4.343   6.888   2.838  0.7760  1.0737 -0.7739
  119MOL   C32540681   4.206   7.034   2.895 -0.0173 -0.0223 -0.5513
  119MOL   C32640682   4.088   6.943   2.882 -0.0723  0.0029  0.1186
  119MOL   C32740683   4.052   6.882   2.758 -0.4079 -0.0062 -0.6941
  119MOL   C32840684   3.948   6.793   2.744 -0.6404  0.2003  0.3276
  119MOL   C32940685   3.871   6.750   2.854 -0.5301  0.6689  0.0584
  119MOL   O33040686   3.766   6.664   2.844  0.1897  0.5415  0.5546
  119MOL   C33140687   3.905   6.808   2.977  0.5697  0.2378  0.0232
  119MOL   C33240688   4.009   6.899   2.992 -0.6430  0.2924 -0.1257
  119MOL   C33340689   4.225   7.120   2.770  0.0520  0.0781 -0.7125
  119MOL   H33440690   4.191   7.107   2.974 -0.1530  0.3876 -0.9570
  119MOL   H33540691   4.118   6.892   2.674  0.8996 -0.2014  0.3007
  119MOL   H33640692   3.942   6.746   2.647  2.6343 -0.0020  0.1683
  119MOL   H33740693   3.776   6.609   2.768 -0.5744  0.5123  0.4781
  119MOL   H33840694   3.830   6.798   3.055  0.4770 -2.4375 -0.3798
  119MOL   H33940695   4.038   6.941   3.087  1.0790 -2.1176  0.4730
  119MOL   H34040696   4.260   7.063   2.684 -1.8072 -0.4503 -1.1386
  119MOL   H34140697   4.289   7.207   2.787 -1.5012  1.0281  0.4141
  119MOL   H34240698   4.132   7.164   2.735 -0.1062  0.9342  0.7331
  120MOL     C140699   0.966   2.771   7.951 -0.1631 -0.2679 -0.0414
  120MOL     C240700   0.940   2.689   7.825  0.4107  0.1761 -0.2880
  120MOL     C340701   1.051   2.675   7.738 -0.1125  0.3557 -0.6847
  120MOL     C440702   1.036   2.593   7.624  0.2860  0.3956  0.5174
  120MOL     C540703   0.916   2.529   7.595 -0.1721  0.1201  0.6992
  120MOL     O640704   0.915   2.441   7.489  0.3103 -0.2171  0.2273
  120MOL     C740705   0.801   2.549   7.681  0.0193 -0.6680 -0.0569
  120MOL     C840706   0.814   2.632   7.794 -0.3589 -0.0509  0.0337
  120MOL     C940707   1.014   2.685   0.037 -0.5744 -0.1228 -0.6476
  120MOL    H1040708   1.020   2.864   7.933 -0.1783 -0.5100 -1.3790
  120MOL    H1140709   1.146   2.721   7.759  0.5141 -0.8326 -0.9025
  120MOL    H1240710   1.126   2.582   7.565  0.4669 -0.5026  0.9488
  120MOL    H1340711   1.002   2.427   7.454 -0.4147 -0.1857 -1.6565
  120MOL    H1440712   0.705   2.503   7.669 -0.9207  0.6627  2.0561
  120MOL    H1540713   0.723   2.659   7.845 -1.0897  0.2059 -1.4073
  120MOL    H1640714   1.114   2.646   0.019  0.5782  2.4111  0.1065
  120MOL    H1740715   0.959   2.591   0.033 -2.9316  1.0681  1.6989
  120MOL    H1840716   0.871   2.810   7.988  1.2089  0.7210  2.5871
  120MOL    C1940717   1.015   2.757   0.178  0.6003  0.4945  0.5667
  120MOL    C2040718   1.085   2.887   0.178  0.0096 -0.1914  0.2269
  120MOL    C2140719   1.222   2.886   0.127 -0.0903  0.2219 -0.2931
  120MOL    C2240720   1.288   3.006   0.110  0.4518  0.1084  0.3377
  120MOL    C2340721   1.230   3.122   0.168  0.8287 -0.5204 -0.2818
  120MOL    O2440722   1.303   3.234   0.168 -0.2495  0.2729  0.2783
  120MOL    C2540723   1.102   3.125   0.224 -0.2897 -0.2653 -0.4728
  120MOL    C2640724   1.029   3.009   0.218 -0.0910  0.4615  0.1161
  120MOL    C2740725   1.066   2.646   0.278  0.5848 -0.3282  0.4417
  120MOL    H2840726   0.914   2.776   0.214  1.0896  1.2293  1.5968
  120MOL    H2940727   1.260   2.789   0.097 -2.3686 -0.4960 -0.9908
  120MOL    H3040728   1.384   3.013   0.063  0.7141 -0.8421  0.7052
  120MOL    H3140729   1.327   3.253   0.079 -0.8090 -2.4068 -0.4940
  120MOL    H3240730   1.053   3.210   0.269 -0.4063 -1.8906  2.6019
  120MOL    H3340731   0.928   3.020   0.252 -0.2682 -0.1434 -0.2034
  120MOL    H3440732   1.160   2.602   0.247 -0.6531 -3.9584  1.5421
  120MOL    H3540733   1.001   2.559   0.275  1.1905 -0.7327 -2.9477
  120MOL    C3640734   1.093   2.697   0.420 -0.9428 -0.3462  0.4932
  120MOL    C3740735   1.172   2.586   0.495  0.7071 -0.3806 -0.4597
  120MOL    C3840736   1.310   2.598   0.511  0.3903 -0.6451 -0.0266
  120MOL    C3940737   1.390   2.505   0.572 -0.7993  0.3458 -0.2201
  120MOL    C4040738   1.334   2.384   0.617  0.6731 -0.2497  0.8217
  120MOL    O4140739   1.412   2.293   0.674  0.5609 -0.7058  0.5325
  120MOL    C4240740   1.189   2.370   0.605 -0.4615  0.0256  0.9565
  120MOL    C4340741   1.109   2.467   0.540  0.7876  0.3408  0.0460
  120MOL    C4440742   0.954   2.733   0.479 -0.0889 -0.1127 -0.1914
  120MOL    H4540743   1.146   2.789   0.442  0.7013 -1.4732  1.3209
  120MOL    H4640744   1.357   2.681   0.460  0.5361 -1.0448 -0.5538
  120MOL    H4740745   1.494   2.532   0.586 -0.6180 -1.0168  1.2649
  120MOL    H4840746   1.358   2.233   0.724  1.5421 -1.0156  1.2378
  120MOL    H4940747   1.133   2.287   0.646 -0.5014 -0.2535  0.3476
  120MOL    H5040748   1.003   2.450   0.526  0.5115  0.9744  1.2957
  120MOL    H5140749   0.920   2.820   0.423 -0.7218 -0.4660 -0.3627
  120MOL    H5240750   0.879   2.656   0.461  0.6148 -0.4447 -1.8828
  120MOL    C5340751   0.950   2.750   0.630  0.0292 -0.5880  0.6719
  120MOL    C5440752   1.026   2.878   0.676 -0.2256 -0.1212  0.1150
  120MOL    C5540753   1.158   2.869   0.723 -0.2417 -0.4084 -0.1143
  120MOL    C5640754   1.225   2.978   0.774  0.3695 -0.1875 -0.5754
  120MOL    C5740755   1.172   3.106   0.762 -0.3383 -0.1698 -0.3488
  120MOL    O5840756   1.244   3.211   0.796  0.4187  0.0610  0.0171
  120MOL    C5940757   1.039   3.121   0.717 -0.5411 -0.3938 -0.0507
  120MOL    C6040758   0.964   3.008   0.680  0.7187 -0.0365  0.3235
  120MOL    C6140759   0.810   2.735   0.691  0.0496  0.6768  0.0299
  120MOL    H6240760   1.006   2.671   0.680  1.2912 -0.1598 -0.0556
  120MOL    H6340761   1.209   2.774   0.718  0.6935  0.1296 -0.9465
  120MOL    H6440762   1.328   2.963   0.802  0.0653 -0.6830  0.2940
  120MOL    H6540763   1.325   3.220   0.748 -0.1808 -1.7437 -1.3916
  120MOL    H6640764   0.987   3.215   0.700 -0.7593 -0.4258  0.4194
  120MOL    H6740765   0.860   3.020   0.653  1.0509  0.2552 -0.8540
  120MOL    H6840766   0.743   2.792   0.626 -0.1352 -0.8906 -1.1895
  120MOL    H6940767   0.807   2.786   0.787 -0.2998  0.4883  0.1224
  120MOL    C7040768   0.752   2.597   0.710  0.3252  0.6419 -0.4770
  120MOL    C7140769   0.684   2.540   0.585  0.1427 -0.1225 -0.3772
  120MOL    C7240770   0.582   2.612   0.523 -0.0526 -0.2285 -0.1376
  120MOL    C7340771   0.501   2.552   0.420 -0.0109  0.1098 -0.1918
  120MOL    C7440772   0.535   2.418   0.377  0.2825  0.1125 -0.5682
  120MOL    O7540773   0.460   2.368   0.279 -0.0067 -0.0956  0.2879
  120MOL    C7640774   0.631   2.346   0.447 -0.1613 -0.0371 -1.5970
  120MOL    C7740775   0.705   2.407   0.557  0.0646 -0.7840  0.3946
  120MOL    C7840776   0.674   2.576   0.844  0.4557 -0.1933 -0.2626
  120MOL    H7940777   0.836   2.529   0.723 -0.2435  0.1614  0.7863
  120MOL    H8040778   0.569   2.718   0.540  1.6952 -0.4627  3.0717
  120MOL    H8140779   0.417   2.599   0.371  0.5417  0.8158 -0.4740
  120MOL    H8240780   0.475   2.416   0.200  0.0353 -1.1533 -0.3560
  120MOL    H8340781   0.653   2.242   0.431  0.5843 -0.0430 -0.5922
  120MOL    H8440782   0.770   2.348   0.619 -1.5222 -1.1309  1.7487
  120MOL    H8540783   0.738   2.625   0.918 -0.2678  3.0128 -1.6448
  120MOL    H8640784   0.679   2.468   0.856  1.5268 -0.2424 -1.0533
  120MOL    C8740785   0.525   2.628   0.838 -0.1923 -0.1637 -0.2503
  120MOL    C8840786   0.524   2.782   0.837  0.5242 -0.2525  0.4532
  120MOL    C8940787   0.462   2.854   0.733 -0.4490 -0.3923 -0.4949
  120MOL    C9040788   0.467   2.997   0.728  0.1346  0.2260 -0.2481
  120MOL    C9140789   0.550   3.068   0.822  0.0830 -0.0315 -0.5416
  120MOL    O9240790   0.566   3.205   0.806 -0.6083 -0.3001  0.4303
  120MOL    C9340791   0.603   2.997   0.933 -0.1550 -0.4206  1.1486
  120MOL    C9440792   0.586   2.857   0.938 -0.1623  0.3277 -0.0149
  120MOL    C9540793   0.439   2.583   0.960  1.3516 -0.3014  0.4364
  120MOL    H9640794   0.471   2.592   0.751  3.0188 -0.3161 -2.2524
  120MOL    H9740795   0.400   2.797   0.664 -0.5363  1.2434 -1.8085
  120MOL    H9840796   0.426   3.057   0.648  2.0221 -0.1628 -1.5652
  120MOL    H9940797   0.621   3.248   0.869 -0.8867  4.6695 -2.4000
  120MOL   H10040798   0.656   3.047   1.013 -2.4570  2.0082  1.2164
  120MOL   H10140799   0.619   2.814   1.032  1.1587 -0.2966 -0.7481
  120MOL   H10240800   0.492   2.605   1.052 -1.3867  2.6729  1.3697
  120MOL   H10340801   0.345   2.638   0.961  0.6931 -1.4218  0.7593
  120MOL   C10440802   0.401   2.434   0.970 -0.0442 -0.0035 -0.2100
  120MOL   C10540803   0.314   2.396   0.852  0.0383  0.3540 -0.3290
  120MOL   C10640804   0.352   2.312   0.751 -0.0314 -0.3103  0.5894
  120MOL   C10740805   0.275   2.287   0.641 -0.0895  0.2267  0.1164
  120MOL   C10840806   0.138   2.330   0.644 -0.0363  0.1819 -0.7878
  120MOL   O10940807   0.052   2.298   0.546 -0.7288 -0.3280 -0.1687
  120MOL   C11040808   0.090   2.398   0.758  0.4197 -0.0839 -0.1189
  120MOL   C11140809   0.178   2.433   0.861 -0.0110 -0.6565  0.6928
  120MOL   C11240810   0.342   2.396   1.106  0.1984 -0.2097  0.6011
  120MOL   H11340811   0.499   2.387   0.962  0.9317  1.6059  1.6021
  120MOL   H11440812   0.453   2.273   0.746 -0.0863 -0.3754 -0.0481
  120MOL   H11540813   0.311   2.233   0.554 -1.9912  0.2529 -0.7202
  120MOL   H11640814   0.099   2.269   0.469 -0.8722 -1.0649  0.0172
  120MOL   H11740815   8.024   2.428   0.757 -0.4626 -2.9906  0.0862
  120MOL   H11840816   0.144   2.509   0.930  0.7504  1.1052 -0.8408
  120MOL   H11940817   0.296   2.298   1.095  0.5557 -0.2836 -0.2945
  120MOL   H12040818   0.254   2.456   1.129 -0.3109  0.3468 -2.5421
  120MOL   C12140819   0.430   2.384   1.233  0.4139  0.0333  0.3698
  120MOL   C12240820   0.478   2.524   1.281 -0.1015 -0.2319  0.3574
  120MOL   C12340821   0.386   2.623   1.320  1.1008  0.1703  0.4360
  120MOL   C12440822   0.424   2.729   1.399  0.3145 -0.0207 -0.4594
  120MOL   C12540823   0.561   2.759   1.410  0.3625  0.2462  1.0158
  120MOL   O12640824   0.605   2.869   1.477 -0.3628 -0.0057 -0.1941
  120MOL   C12740825   0.662   2.673   1.360  0.3591 -0.6825 -0.4558
  120MOL   C12840826   0.616   2.558   1.294 -0.1431 -0.1685  0.4146
  120MOL   C12940827   0.359   2.304   1.341  0.5073 -0.0649 -0.3136
  120MOL   H13040828   0.515   2.322   1.206  0.3949 -0.7251  1.9820
  120MOL   H13140829   0.282   2.604   1.297  1.6267  0.1624 -2.1605
  120MOL   H13240830   0.344   2.792   1.434  0.3249  0.0833 -0.6230
  120MOL   H13340831   0.537   2.929   1.504 -0.8897  0.4292 -2.4608
  120MOL   H13440832   0.769   2.693   1.359  0.1105  0.6534 -1.7465
  120MOL   H13540833   0.683   2.493   1.240 -2.7870 -1.5097 -1.3866
  120MOL   H13640834   0.292   2.227   1.304  2.1967 -2.0748  0.6687
  120MOL   H13740835   0.291   2.377   1.386 -1.3740 -1.2091 -1.2503
  120MOL   C13840836   0.448   2.233   1.445 -0.7030  0.3173  0.2056
  120MOL   C13940837   0.530   2.120   1.396 -0.0483  0.1808  0.4338
  120MOL   C14040838   0.473   2.030   1.308 -0.2234 -0.3052  0.0920
  120MOL   C14140839   0.555   1.923   1.270  0.3635  0.0603 -0.3376
  120MOL   C14240840   0.683   1.900   1.316  0.7789 -0.4976 -0.2548
  120MOL   O14340841   0.747   1.783   1.276  0.0506 -0.2774 -0.5651
  120MOL   C14440842   0.739   1.993   1.405 -0.5516 -0.3410 -0.2960
  120MOL   C14540843   0.658   2.101   1.445 -0.4199 -0.0298  0.1872
  120MOL   C14640844   0.367   2.183   1.571 -0.2279  0.7341 -0.3643
  120MOL   H14740845   0.521   2.307   1.477 -1.3141  0.9248  0.2248
  120MOL   H14840846   0.370   2.035   1.276 -0.8278 -0.6503  1.9143
  120MOL   H14940847   0.502   1.855   1.204  0.4845 -0.0730 -0.2975
  120MOL   H15040848   0.704   1.733   1.208  0.6049 -0.0921 -1.0560
  120MOL   H15140849   0.836   1.983   1.452 -0.5492  2.0207  0.2816
  120MOL   H15240850   0.689   2.170   1.522  2.1949 -1.0533  0.1283
  120MOL   H15340851   0.419   2.103   1.624  1.1271  1.5163 -0.4847
  120MOL   H15440852   0.270   2.144   1.539  0.5332 -1.5365  0.0040
  120MOL   C15540853   0.333   2.299   1.671  0.6633  0.0905  0.4573
  120MOL   C15640854   0.453   2.369   1.730 -0.3777 -0.4613 -0.1867
  120MOL   C15740855   0.561   2.300   1.789  0.4858  0.0822 -0.0389
  120MOL   C15840856   0.672   2.368   1.846  0.6238 -0.1867  0.5908
  120MOL   C15940857   0.675   2.507   1.835 -0.4721 -1.0281  0.3415
  120MOL   O16040858   0.785   2.575   1.877 -0.7292 -0.8746  0.3959
  120MOL   C16140859   0.577   2.581   1.770 -0.3700 -0.2378  0.3088
  120MOL   C16240860   0.470   2.506   1.716  0.2264  0.4703  1.2213
  120MOL   C16340861   0.231   2.256   1.782  0.0598  0.1169  0.0766
  120MOL   H16440862   0.284   2.376   1.611  1.2252  0.7583  0.8515
  120MOL   H16540863   0.570   2.193   1.794 -0.5240  0.0874  2.8775
  120MOL   H16640864   0.750   2.309   1.891  0.2195 -2.9064 -2.1066
  120MOL   H16740865   0.860   2.527   1.844 -0.3253 -0.5961  0.8988
  120MOL   H16840866   0.585   2.688   1.757  1.8914 -0.4043  0.2126
  120MOL   H16940867   0.399   2.556   1.653 -0.7039 -3.4220 -0.9395
  120MOL   H17040868   0.268   2.162   1.823 -1.1424 -0.7345 -0.7448
  120MOL   H17140869   0.145   2.227   1.722 -2.2355  1.3519  2.6660
  120MOL   C17240870   0.195   2.358   1.892  0.4321  0.0479  0.5144
  120MOL   C17340871   0.283   2.347   2.017  1.0566  0.2797  0.4978
  120MOL   C17440872   0.301   2.225   2.092 -0.2772 -0.2948 -0.2111
  120MOL   C17540873   0.370   2.228   2.216  0.1235 -0.0727  0.2677
  120MOL   C17640874   0.421   2.349   2.261  0.5577 -0.0392  0.3447
  120MOL   O17740875   0.493   2.352   2.381  0.4784  0.0722 -0.3050
  120MOL   C17840876   0.405   2.466   2.186  0.3204  0.2232  0.0764
  120MOL   C17940877   0.342   2.467   2.064 -0.2887 -0.2824  0.0252
  120MOL   C18040878   0.041   2.355   1.929 -0.1671  0.0005  0.1963
  120MOL   H18140879   0.209   2.459   1.855 -0.5138  1.0562  2.7777
  120MOL   H18240880   0.258   2.131   2.059 -0.6480 -0.4204  0.6092
  120MOL   H18340881   0.376   2.130   2.260 -0.3753  0.4922  1.6105
  120MOL   H18440882   0.531   2.438   2.392 -2.0505  1.0114  1.5145
  120MOL   H18540883   0.456   2.557   2.217 -0.0794  0.5486 -0.2193
  120MOL   H18640884   0.339   2.558   2.006  1.9995  0.6497  1.3048
  120MOL   H18740885   0.015   2.350   2.035 -0.3642 -1.5573  0.0956
  120MOL   H18840886   8.027   2.268   1.886  0.5763  1.5352 -4.0231
  120MOL   C18940887   8.005   2.473   1.868 -0.7144  0.3954  0.2211
  120MOL   C19040888   7.866   2.428   1.837  0.7142 -0.9899 -0.2857
  120MOL   C19140889   7.821   2.408   1.704  0.0243 -0.3643  0.1057
  120MOL   C19240890   7.685   2.378   1.677 -0.4212  0.5540 -0.3521
  120MOL   C19340891   7.597   2.347   1.782  0.3721  0.1781 -0.0700
  120MOL   O19440892   7.463   2.331   1.760 -0.6869 -0.1356  0.2183
  120MOL   C19540893   7.644   2.359   1.911 -0.0805 -0.3082  0.2737
  120MOL   C19640894   7.776   2.400   1.942  1.1120 -0.6765 -0.2353
  120MOL   C19740895   7.999   2.601   1.954 -0.4527 -0.2854  0.2060
  120MOL   H19840896   0.013   2.501   1.773 -0.8842  1.9920  0.5953
  120MOL   H19940897   7.888   2.421   1.620 -0.2203 -1.4017 -0.2505
  120MOL   H20040898   7.655   2.369   1.574 -0.5292 -1.4793 -0.1640
  120MOL   H20140899   7.426   2.401   1.710 -0.7914 -0.0436  0.4241
  120MOL   H20240900   7.575   2.348   1.994  1.0404 -0.5656  1.1823
  120MOL   H20340901   7.796   2.419   2.046 -1.9217 -4.1576  1.1014
  120MOL   H20440902   0.062   2.623   1.988 -0.7037  0.3600  0.5488
  120MOL   H20540903   7.952   2.594   2.052 -0.7131  2.8514  0.3727
  120MOL   C20640904   7.937   2.724   1.886  0.3390 -0.1849 -0.2988
  120MOL   C20740905   7.985   2.748   1.744 -0.2146 -0.0933 -0.9015
  120MOL   C20840906   0.075   2.799   1.729 -0.2901  0.4369 -0.0196
  120MOL   C20940907   0.113   2.853   1.604 -0.7347 -0.5302  0.2469
  120MOL   C21040908   0.035   2.830   1.489 -0.8940 -0.0102  0.3387
  120MOL   O21140909   0.090   2.844   1.360  0.4587  0.2279 -0.5192
  120MOL   C21240910   7.950   2.772   1.505 -0.5581 -0.1055 -0.1397
  120MOL   C21340911   7.897   2.738   1.633 -0.2286 -0.1319 -0.4902
  120MOL   C21440912   7.949   2.856   1.981 -0.9443  0.0791  0.1680
  120MOL   H21540913   7.830   2.703   1.891  0.4554 -0.3347  2.4869
  120MOL   H21640914   0.144   2.814   1.811  1.7939  0.1821 -1.6848
  120MOL   H21740915   0.211   2.900   1.600  0.0185 -2.0131  0.9065
  120MOL   H21840916   0.033   2.819   1.289  0.9692  0.3562 -0.9792
  120MOL   H21940917   7.883   2.755   1.421 -1.2861  1.0531  0.2003
  120MOL   H22040918   7.795   2.703   1.643 -0.3606  0.4076  0.1250
  120MOL   H22140919   8.028   2.924   1.949 -1.9791  0.4524 -1.6124
  120MOL   H22240920   7.973   2.823   2.082  0.6366 -0.1352 -0.2607
  120MOL   C22340921   7.829   2.938   2.003  0.4381 -0.0297  0.0065
  120MOL   C22440922   7.735   2.946   1.888  0.0512  0.5905  0.0451
  120MOL   C22540923   7.614   2.869   1.887  0.0682  0.0984 -0.4642
  120MOL   C22640924   7.530   2.864   1.771  0.5547 -0.2307 -0.4313
  120MOL   C22740925   7.571   2.930   1.649  0.1663 -0.7006 -0.3111
  120MOL   O22840926   7.484   2.933   1.536 -0.0324 -0.2616 -0.9849
  120MOL   C22940927   7.692   2.997   1.648  0.0872 -0.6616  0.5953
  120MOL   C23040928   7.769   3.018   1.769  0.5969  0.2915 -0.3084
  120MOL   C23140929   7.868   3.075   2.065 -0.0261 -0.2488  0.2583
  120MOL   H23240930   7.784   2.886   2.088  1.0852  1.3603  1.2366
  120MOL   H23340931   7.586   2.826   1.982  0.5624 -0.2378 -0.4682
  120MOL   H23440932   7.433   2.817   1.783 -0.4477  2.3844  2.3264
  120MOL   H23540933   7.502   3.017   1.499  0.7189  0.6186  1.2928
  120MOL   H23640934   7.722   3.038   1.553 -1.3604 -0.6715  0.1163
  120MOL   H23740935   7.863   3.070   1.763  1.2944 -0.4594  3.3172
  120MOL   H23840936   7.956   3.052   2.125 -0.2299  0.2132  0.7429
  120MOL   H23940937   7.902   3.134   1.980  1.6934 -2.1933 -0.4514
  120MOL   C24040938   7.762   3.155   2.144 -0.1056  0.6387  0.3226
  120MOL   C24140939   7.711   3.091   2.268  0.8333 -0.5471 -0.9630
  120MOL   C24240940   7.792   3.023   2.361 -0.9732 -0.0247 -0.0625
  120MOL   C24340941   7.735   2.947   2.465  0.6077 -0.4130 -0.2494
  120MOL   C24440942   7.591   2.944   2.479 -0.0265  0.6894  0.5904
  120MOL   O24540943   7.541   2.861   2.579 -0.0781  0.3256  0.5673
  120MOL   C24640944   7.508   3.027   2.399 -0.1188  0.6413 -0.1498
  120MOL   C24740945   7.566   3.093   2.288 -0.5879  0.6051  0.4059
  120MOL   C24840946   7.813   3.298   2.164 -0.1582 -0.1053  0.2839
  120MOL   H24940947   7.683   3.165   2.070 -0.7238  0.0130  0.8945
  120MOL   H25040948   7.899   3.022   2.353 -0.9737 -0.4236 -0.0409
  120MOL   H25140949   7.795   2.881   2.526 -1.0821  0.5112  2.5100
  120MOL   H25240950   7.451   2.876   2.604 -0.2961  0.8685 -0.4960
  120MOL   H25340951   7.402   3.018   2.418 -0.2762  0.4994 -1.0918
  120MOL   H25440952   7.511   3.151   2.215 -0.5484 -0.0724 -0.1749
  120MOL   H25540953   7.769   3.333   2.257 -1.3116  1.0109 -0.6723
  120MOL   H25640954   7.918   3.283   2.189 -0.0023 -1.2872 -1.0908
  120MOL   C25740955   7.778   3.382   2.041 -0.4225 -0.2928  0.0928
  120MOL   C25840956   7.640   3.439   2.059  0.1633  0.3252  0.2677
  120MOL   C25940957   7.615   3.549   2.139 -0.2518  0.0877  0.3782
  120MOL   C26040958   7.487   3.592   2.165  0.5864 -0.5037  0.3506
  120MOL   C26140959   7.378   3.527   2.098  0.1512  0.4160  0.7548
  120MOL   O26240960   7.260   3.588   2.114  0.4995  0.0471  0.2427
  120MOL   C26340961   7.398   3.413   2.019  0.0698 -0.3703 -0.1883
  120MOL   C26440962   7.530   3.367   1.994 -0.4434 -0.9308  0.4308
  120MOL   C26540963   7.893   3.486   2.017 -0.0458 -0.3710 -0.6965
  120MOL   H26640964   7.789   3.320   1.952 -0.0755  0.2059 -0.2139
  120MOL   H26740965   7.696   3.610   2.177  1.4811 -2.5824  1.0657
  120MOL   H26840966   7.466   3.681   2.223  0.1034 -0.1997 -0.2824
  120MOL   H26940967   7.272   3.681   2.120 -0.3342  0.1171  0.9940
  120MOL   H27040968   7.316   3.368   1.964 -0.2420  0.8786 -0.7599
  120MOL   H27140969   7.551   3.290   1.922  0.7229  0.7831 -1.1240
  120MOL   H27240970   7.988   3.435   2.032 -0.2995 -0.1807  1.7477
  120MOL   H27340971   7.900   3.546   2.108 -2.5930 -3.8031  1.9352
  120MOL   C27440972   7.887   3.572   1.882 -0.0405  0.1009 -0.3785
  120MOL   C27540973   7.893   3.472   1.769  0.6850 -0.0056  0.4697
  120MOL   C27640974   7.784   3.459   1.683  0.0009 -0.0086 -0.1811
  120MOL   C27740975   7.789   3.369   1.574 -0.3942  0.3398 -0.7859
  120MOL   C27840976   7.907   3.295   1.549 -0.5726  0.1231 -0.1256
  120MOL   O27940977   7.914   3.210   1.439  0.1956  0.2627  0.7987
  120MOL   C28040978   8.022   3.314   1.626  0.4522  0.5716 -0.3215
  120MOL   C28140979   8.008   3.397   1.743  0.1864  0.1432  0.1898
  120MOL   C28240980   8.002   3.674   1.879 -0.1285 -0.9301 -0.2712
  120MOL   H28340981   7.790   3.622   1.875 -0.5355 -0.8232 -0.2707
  120MOL   H28440982   7.698   3.522   1.700  0.9128  0.5624  2.5221
  120MOL   H28540983   7.706   3.366   1.504  0.6652 -0.5801 -2.0254
  120MOL   H28640984   7.842   3.198   1.379  0.3107 -1.1132  0.9114
  120MOL   H28740985   0.080   3.267   1.609 -0.2928 -0.8646 -0.6159
  120MOL   H28840986   0.054   3.413   1.809 -0.8747 -1.3138  1.9126
  120MOL   H28940987   0.051   3.621   1.839 -0.0960 -2.3120  1.5425
  120MOL   H29040988   7.984   3.747   1.800 -2.0736 -1.3692 -0.2445
  120MOL   C29140989   8.035   3.756   2.009 -0.2098  0.6984  0.0648
  120MOL   C29240990   7.921   3.814   2.094 -0.9338  0.4441  0.0127
  120MOL   C29340991   7.915   3.781   2.232  0.0893 -0.0549  0.1287
  120MOL   C29440992   7.799   3.824   2.305  0.1366 -0.0173  0.3289
  120MOL   C29540993   7.687   3.874   2.236  0.2543 -0.3087 -0.1796
  120MOL   O29640994   7.576   3.896   2.300  0.0969 -0.0291  0.5124
  120MOL   C29740995   7.693   3.905   2.099  0.6876  0.0984 -0.3234
  120MOL   C29840996   7.811   3.873   2.032  0.1202 -0.4996  0.3685
  120MOL   C29940997   0.108   3.867   1.991 -0.2789 -0.4707 -0.6304
  120MOL   H30040998   0.047   3.683   2.074  0.3646  1.3270  0.3427
  120MOL   H30140999   7.993   3.736   2.291 -0.9948  3.2219  4.2790
  120MOL   H30241000   7.799   3.808   2.412  0.8839  1.6799  0.6069
  120MOL   H30341001   7.580   3.846   2.380  0.3494 -2.3586 -0.9116
  120MOL   H30441002   7.610   3.950   2.047  1.2376  1.5554  0.0432
  120MOL   H30541003   7.820   3.912   1.931 -2.5127  1.7795  0.9291
  120MOL   H30641004   0.122   3.918   2.086 -1.5098 -1.9887  0.3851
  120MOL   H30741005   0.069   3.946   1.926  1.2970 -0.6131 -1.7795
  120MOL   C30841006   0.250   3.822   1.950  0.2657 -0.4299  0.8322
  120MOL   C30941007   0.253   3.827   1.802 -0.1435  0.2727  0.1309
  120MOL   C31041008   0.269   3.955   1.737  0.1996  0.1431 -0.1781
  120MOL   C31141009   0.267   3.963   1.595 -0.7421 -0.4886 -0.8558
  120MOL   C31241010   0.265   3.848   1.518 -0.0616  0.4304 -0.5935
  120MOL   O31341011   0.271   3.860   1.382 -0.1540 -0.2427  0.4090
  120MOL   C31441012   0.254   3.722   1.583  0.2513 -0.4116  0.8168
  120MOL   C31541013   0.253   3.709   1.723 -0.3121 -0.3180 -0.8265
  120MOL   C31641014   0.314   3.699   2.015 -0.1817 -0.1977  0.3509
  120MOL   H31741015   0.318   3.905   1.973  0.1457 -0.3049  0.7411
  120MOL   H31841016   0.285   4.049   1.787 -0.4237  0.6375 -0.9091
  120MOL   H31941017   0.269   4.058   1.543 -1.3017 -0.6580 -1.1975
  120MOL   H32041018   0.235   3.788   1.333 -3.7207  1.0930  0.9410
  120MOL   H32141019   0.252   3.632   1.523 -0.8364 -0.8259  1.4676
  120MOL   H32241020   0.267   3.613   1.771  2.1390  0.2164 -0.4349
  120MOL   H32341021   0.414   3.683   1.976 -0.5679 -0.3064 -0.6101
  120MOL   H32441022   0.254   3.610   1.994 -1.6080  0.8524 -0.0980
  120MOL   C32541023   0.338   3.706   2.163  0.0582  0.2571 -0.3394
  120MOL   C32641024   0.423   3.825   2.211 -1.1518 -0.0214  1.1417
  120MOL   C32741025   0.543   3.862   2.141  0.5947 -0.3624  0.3366
  120MOL   C32841026   0.627   3.964   2.191  0.0428 -0.9087  0.2437
  120MOL   C32941027   0.586   4.044   2.299  0.1164 -0.2459  0.2511
  120MOL   O33041028   0.650   4.158   2.336 -1.0095 -0.2181 -0.3568
  120MOL   C33141029   0.468   4.005   2.369  0.0864 -0.0736 -0.3196
  120MOL   C33241030   0.394   3.893   2.328  0.0313 -0.1032  0.4106
  120MOL   C33341031   0.389   3.576   2.216 -0.2462 -0.0036 -0.7434
  120MOL   H33441032   0.243   3.714   2.216  0.8731  0.7033  1.0686
  120MOL   H33541033   0.577   3.787   2.072  1.8940  0.0460  0.5264
  120MOL   H33641034   0.721   3.979   2.141 -0.1769  3.1868  0.9029
  120MOL   H33741035   0.723   4.170   2.277 -1.1195 -0.0781 -0.4648
  120MOL   H33841036   0.443   4.051   2.464  0.6726 -1.4034  0.5075
  120MOL   H33941037   0.317   3.856   2.394 -0.4000  0.9541  0.5014
  120MOL   H34041038   0.374   3.582   2.324 -0.0747 -1.0103 -0.6571
  120MOL   H34141039   0.494   3.557   2.196  1.0213  2.4035  3.1356
  120MOL   H34241040   0.336   3.486   2.183 -0.1742 -0.4657  0.3846
  121MOL     C141041   6.426   6.955   5.775 -0.3723  0.0301 -0.0570
  121MOL     C241042   6.327   7.047   5.709  0.4218 -0.2078 -0.3285
  121MOL     C341043   6.277   7.160   5.776 -0.2035 -0.0923 -0.5185
  121MOL     C441044   6.182   7.245   5.714 -0.3511  0.0446 -0.1595
  121MOL     C541045   6.135   7.210   5.584  0.0734 -0.5484  0.4464
  121MOL     O641046   6.033   7.283   5.527 -0.4925 -0.3355 -0.2655
  121MOL     C741047   6.174   7.087   5.525  0.3355  0.3234 -0.0380
  121MOL     C841048   6.280   7.015   5.582 -0.1239 -0.9864 -0.0342
  121MOL     C941049   6.569   6.960   5.715  0.0015  0.0265 -0.0680
  121MOL    H1041050   6.437   6.987   5.879 -0.9918 -0.0254  0.0271
  121MOL    H1141051   6.300   7.175   5.880  2.6828 -0.8387 -1.0060
  121MOL    H1241052   6.142   7.327   5.773  0.8203 -0.9967  2.1509
  121MOL    H1341053   6.027   7.263   5.435 -0.6964  0.9333 -0.5470
  121MOL    H1441054   6.145   7.059   5.424  1.5169 -0.0824 -0.2775
  121MOL    H1541055   6.322   6.931   5.531  0.7140 -0.1586 -0.7234
  121MOL    H1641056   6.613   7.057   5.737 -0.0231 -0.1401  0.7235
  121MOL    H1741057   6.567   6.934   5.609  2.5593 -2.0534  0.3263
  121MOL    H1841058   6.386   6.855   5.787 -0.4007  0.2364  1.7088
  121MOL    C1941059   6.674   6.862   5.769 -0.2617 -0.2213 -0.5321
  121MOL    C2041060   6.689   6.865   5.923 -0.3168 -0.2795  0.2460
  121MOL    C2141061   6.604   6.785   6.004 -0.4935 -0.3955  0.5361
  121MOL    C2241062   6.618   6.782   6.144  0.3549  0.6041  0.2522
  121MOL    C2341063   6.711   6.868   6.204  0.1129  0.5544 -0.2626
  121MOL    O2441064   6.723   6.870   6.341 -0.0538  0.1570  0.0010
  121MOL    C2541065   6.801   6.946   6.127  0.2632 -0.1787  0.4514
  121MOL    C2641066   6.785   6.950   5.986 -0.0935  0.2582 -0.6654
  121MOL    C2741067   6.812   6.884   5.701  0.3951  0.0016  0.3482
  121MOL    H2841068   6.634   6.763   5.747  1.1269 -0.8318 -0.3525
  121MOL    H2941069   6.525   6.725   5.961  0.0890 -1.0232  0.3381
  121MOL    H3041070   6.566   6.712   6.208 -1.3640 -0.2018 -1.9564
  121MOL    H3141071   6.795   6.927   6.366  0.1704 -0.1384  0.0392
  121MOL    H3241072   6.862   7.013   6.186 -1.4126 -0.5964  2.7202
  121MOL    H3341073   6.842   7.024   5.932  2.2696 -1.6214 -0.8223
  121MOL    H3441074   6.892   6.872   5.774  0.6038  0.3651  0.1821
  121MOL    H3541075   6.827   6.982   5.657  1.4425  1.1827  3.2502
  121MOL    C3641076   6.853   6.776   5.600 -0.4648  0.0040 -0.8198
  121MOL    C3741077   6.992   6.793   5.543  0.8523 -0.5261  0.2154
  121MOL    C3841078   7.090   6.690   5.569  1.2145 -0.8095  0.0267
  121MOL    C3941079   7.211   6.695   5.503  0.5689  0.2131  0.0236
  121MOL    C4041080   7.241   6.804   5.416 -0.2553 -0.0946 -0.2146
  121MOL    O4141081   7.361   6.818   5.365  0.1443  0.4616  0.3087
  121MOL    C4241082   7.151   6.914   5.408  0.6552  0.0840 -0.1786
  121MOL    C4341083   7.022   6.907   5.465  0.1940 -0.1086 -0.4254
  121MOL    C4441084   6.761   6.768   5.474 -0.8327  0.1009  0.7477
  121MOL    H4541085   6.856   6.680   5.652 -1.6146  0.2860 -0.2164
  121MOL    H4641086   7.057   6.613   5.637 -3.5797  1.9425  1.0523
  121MOL    H4741087   7.272   6.608   5.519  1.0319  0.4111 -0.6512
  121MOL    H4841088   7.424   6.882   5.394 -0.1500  0.3411  1.2172
  121MOL    H4941089   7.178   7.001   5.349  0.0347  0.2035 -0.2890
  121MOL    H5041090   6.950   6.986   5.451 -0.3608 -0.3287  1.0562
  121MOL    H5141091   6.658   6.767   5.509 -0.7636 -0.4012  0.9437
  121MOL    H5241092   6.758   6.854   5.408  1.2059 -1.2634 -1.2035
  121MOL    C5341093   6.795   6.645   5.379 -0.3522 -0.4531  0.6744
  121MOL    C5441094   6.754   6.517   5.453  0.3494  0.0107 -0.4398
  121MOL    C5541095   6.836   6.403   5.466 -0.7125  1.0006  0.2291
  121MOL    C5641096   6.784   6.284   5.520 -0.3076 -0.2952 -0.3619
  121MOL    C5741097   6.649   6.275   5.564  0.0060  0.1422 -0.1198
  121MOL    O5841098   6.602   6.151   5.609 -0.0232 -0.3010 -0.4080
  121MOL    C5941099   6.570   6.386   5.565  1.1384 -0.5667 -0.1249
  121MOL    C6041100   6.621   6.504   5.507 -0.7336  0.0526 -0.3440
  121MOL    C6141101   6.723   6.639   5.241 -0.4999  0.0495 -0.7503
  121MOL    H6241102   6.903   6.654   5.369 -0.7006 -0.2417 -4.2056
  121MOL    H6341103   6.937   6.418   5.431 -0.9440  1.5190 -0.2245
  121MOL    H6441104   6.843   6.194   5.512  0.7818  0.3383  0.4028
  121MOL    H6541105   6.660   6.076   5.607 -1.8984 -1.9120  2.2857
  121MOL    H6641106   6.467   6.395   5.595  1.5605  1.8809  0.6245
  121MOL    H6741107   6.555   6.586   5.488 -0.6258  0.6225  1.6078
  121MOL    H6841108   6.722   6.740   5.200  2.0226  0.9291  1.2090
  121MOL    H6941109   6.622   6.607   5.268 -0.3388 -0.2297 -0.4894
  121MOL    C7041110   6.792   6.541   5.146  0.0522 -0.0593 -0.2164
  121MOL    C7141111   6.837   6.612   5.027 -0.3801 -0.3942  0.1434
  121MOL    C7241112   6.959   6.686   5.031  0.0145 -0.2884 -0.4404
  121MOL    C7341113   7.005   6.759   4.922  0.3822  0.0753 -0.2915
  121MOL    C7441114   6.925   6.770   4.805 -0.0554  0.1033 -0.4326
  121MOL    O7541115   6.971   6.840   4.698  0.5392 -0.1862  0.2177
  121MOL    C7641116   6.799   6.707   4.807 -0.1088 -0.3154 -0.7524
  121MOL    C7741117   6.752   6.631   4.921 -0.9450 -0.2758  0.0439
  121MOL    C7841118   6.703   6.412   5.121  0.8865  0.7581 -0.6163
  121MOL    H7941119   6.884   6.506   5.194 -0.6887  1.1145  2.1109
  121MOL    H8041120   7.024   6.683   5.117  0.1434  1.5433 -0.4592
  121MOL    H8141121   7.101   6.807   4.931  0.8673 -0.7850 -0.8514
  121MOL    H8241122   7.045   6.894   4.719  0.2102  0.1605  0.5046
  121MOL    H8341123   6.737   6.688   4.720  0.7567 -1.7022 -1.0840
  121MOL    H8441124   6.653   6.588   4.921 -0.4206 -1.5112  0.2292
  121MOL    H8541125   6.611   6.462   5.092 -0.6934 -0.9248  1.3442
  121MOL    H8641126   6.693   6.366   5.219  1.0452  1.3254 -0.3343
  121MOL    C8741127   6.744   6.307   5.013 -0.2720 -0.3021  0.0549
  121MOL    C8841128   6.634   6.211   4.981 -0.6291  0.0953 -0.0060
  121MOL    C8941129   6.575   6.208   4.851  0.1373  0.4656  0.5138
  121MOL    C9041130   6.469   6.121   4.815 -0.0376 -0.6184  0.4605
  121MOL    C9141131   6.415   6.037   4.912 -0.4538 -0.0818  0.2996
  121MOL    O9241132   6.312   5.964   4.877 -0.1209  0.0934  0.2330
  121MOL    C9341133   6.484   6.022   5.036 -0.6288 -0.0785  0.4575
  121MOL    C9441134   6.583   6.119   5.075 -0.3065  0.6179 -0.3027
  121MOL    C9541135   6.872   6.239   5.058 -0.1497 -0.3238  0.8301
  121MOL    H9641136   6.770   6.370   4.928  0.2586 -0.2571  0.2493
  121MOL    H9741137   6.611   6.281   4.781  1.5347 -1.1986 -0.5418
  121MOL    H9841138   6.433   6.115   4.714 -0.3234  0.6918  0.4817
  121MOL    H9941139   6.273   5.977   4.792 -0.4264  0.2966  0.3993
  121MOL   H10041140   6.440   5.955   5.109 -2.6278 -1.1208 -1.6544
  121MOL   H10141141   6.615   6.129   5.178 -2.1971  0.0561  0.3673
  121MOL   H10241142   6.879   6.250   5.167 -0.0915 -0.3621  0.8304
  121MOL   H10341143   6.845   6.135   5.046  1.5705 -0.5112 -1.7922
  121MOL   C10441144   6.994   6.274   4.973  0.4912 -0.1559 -0.8171
  121MOL   C10541145   6.969   6.233   4.834  0.5337  0.1783 -0.0784
  121MOL   C10641146   6.963   6.331   4.732  0.1553 -0.5853 -0.4919
  121MOL   C10741147   6.933   6.290   4.599 -0.1859  0.3735  0.2789
  121MOL   C10841148   6.912   6.156   4.563  0.1671 -1.0122 -0.0155
  121MOL   O10941149   6.883   6.127   4.429  0.6258  0.0983  0.0828
  121MOL   C11041150   6.923   6.061   4.664 -0.2068 -0.2292 -0.7145
  121MOL   C11141151   6.944   6.096   4.799 -0.2519  0.2679 -0.5035
  121MOL   C11241152   7.116   6.203   5.023  0.3875  0.2869 -0.0872
  121MOL   H11341153   7.005   6.382   4.976 -0.5318 -0.0942  1.1171
  121MOL   H11441154   6.982   6.432   4.765  1.7489 -0.9630 -0.2340
  121MOL   H11541155   6.933   6.367   4.523  1.0744  0.1150  0.0001
  121MOL   H11641156   6.852   6.040   4.409  2.1353 -0.2795 -0.7216
  121MOL   H11741157   6.906   5.957   4.639 -1.2972 -0.5399  1.2420
  121MOL   H11841158   6.956   6.019   4.875 -1.6191  1.3856  0.8784
  121MOL   H11941159   7.110   6.096   5.002  1.6460 -0.2112  1.9858
  121MOL   H12041160   7.130   6.202   5.131  2.2891 -0.9809 -0.3268
  121MOL   C12141161   7.248   6.243   4.957  0.0749  0.1336  0.7699
  121MOL   C12241162   7.284   6.384   4.988 -0.5531 -0.1281  0.4244
  121MOL   C12341163   7.294   6.483   4.888 -0.2034 -0.6940 -0.3365
  121MOL   C12441164   7.329   6.616   4.932 -0.7400 -0.2333 -0.3906
  121MOL   C12541165   7.349   6.651   5.064 -0.3568 -0.9834  0.3395
  121MOL   O12641166   7.376   6.779   5.105 -0.3592  0.0525 -0.4791
  121MOL   C12741167   7.338   6.549   5.164 -0.1888  0.6851  0.4903
  121MOL   C12841168   7.302   6.417   5.123  0.4048 -0.0408  0.1604
  121MOL   C12941169   7.365   6.152   5.001 -0.2447 -0.2536 -0.1494
  121MOL   H13041170   7.250   6.246   4.848  2.3093 -1.0455  0.7409
  121MOL   H13141171   7.264   6.460   4.787 -0.1247 -0.7234 -0.3535
  121MOL   H13241172   7.335   6.696   4.860 -1.2483  0.4391  0.3026
  121MOL   H13341173   7.363   6.801   5.196  0.5508 -0.9062 -0.1101
  121MOL   H13441174   7.363   6.573   5.267 -1.2740  0.7356  0.7424
  121MOL   H13541175   7.306   6.346   5.204 -0.2208  0.7398  0.8867
  121MOL   H13641176   7.353   6.132   5.108 -0.6789 -1.6423 -0.4499
  121MOL   H13741177   7.461   6.202   5.001 -0.2657 -0.1804 -2.4263
  121MOL   C13841178   7.367   6.024   4.920 -0.1712  0.2099 -0.1999
  121MOL   C13941179   7.430   5.920   5.004 -0.2958 -0.5515 -0.1562
  121MOL   C14041180   7.568   5.898   5.008  0.1001 -0.4464 -0.4553
  121MOL   C14141181   7.621   5.793   5.080 -0.1370 -0.1353 -0.1506
  121MOL   C14241182   7.537   5.712   5.155 -0.3390  0.1993 -0.0870
  121MOL   O14341183   7.590   5.616   5.237  0.2843 -0.1730  0.8617
  121MOL   C14441184   7.400   5.730   5.148  0.6383 -0.4477 -0.2362
  121MOL   C14541185   7.346   5.825   5.066  0.7696 -0.1105  0.7662
  121MOL   C14641186   7.426   6.039   4.779  0.3396  0.6619 -0.4672
  121MOL   H14741187   7.265   5.992   4.900 -0.1054  0.1223 -0.4034
  121MOL   H14841188   7.635   5.964   4.954 -1.3248  0.8787 -0.6358
  121MOL   H14941189   7.728   5.791   5.097 -0.0127 -0.9185 -0.9855
  121MOL   H15041190   7.528   5.563   5.285 -1.2327  0.7761 -0.0186
  121MOL   H15141191   7.326   5.673   5.202 -0.9219  1.2819 -0.5092
  121MOL   H15241192   7.241   5.845   5.049  1.2591  2.6457  0.6740
  121MOL   H15341193   7.522   6.088   4.794  0.7113  0.2743 -1.5368
  121MOL   H15441194   7.368   6.109   4.719 -0.2321  0.2951 -0.3455
  121MOL   C15541195   7.440   5.907   4.698 -0.0158 -0.0257 -1.0337
  121MOL   C15641196   7.555   5.921   4.599  0.6329 -0.2808  0.3090
  121MOL   C15741197   7.690   5.875   4.639 -0.0264 -0.3527 -0.0835
  121MOL   C15841198   7.796   5.879   4.546 -0.0098 -0.3603 -0.8142
  121MOL   C15941199   7.771   5.931   4.416 -0.0890  0.0852 -0.0597
  121MOL   O16041200   7.877   5.942   4.329  0.3425  0.0719 -0.0517
  121MOL   C16141201   7.644   5.989   4.385 -0.8747 -0.0322  0.5765
  121MOL   C16241202   7.537   5.973   4.474 -0.2703  1.0707 -0.2933
  121MOL   C16341203   7.303   5.861   4.631 -0.4010 -0.7161  0.1749
  121MOL   H16441204   7.473   5.826   4.762  1.3206  1.6887  0.4952
  121MOL   H16541205   7.719   5.834   4.734  0.1087  0.0524  0.0530
  121MOL   H16641206   7.895   5.847   4.574  0.3692 -0.2136 -1.9639
  121MOL   H16741207   7.889   6.032   4.304  0.7144 -0.1971 -0.8554
  121MOL   H16841208   7.631   6.043   4.293  1.2784  2.8087  1.8914
  121MOL   H16941209   7.444   6.013   4.437 -0.4995  1.1404  0.3513
  121MOL   H17041210   7.299   5.924   4.542 -0.4692 -0.3175  0.4600
  121MOL   H17141211   7.225   5.879   4.705  0.1619 -0.6733  0.7547
  121MOL   C17241212   7.305   5.709   4.591 -0.2880  0.1449  1.0317
  121MOL   C17341213   7.216   5.675   4.475  0.1745  0.1177 -0.3027
  121MOL   C17441214   7.261   5.591   4.368  0.2619  0.3337 -0.1491
  121MOL   C17541215   7.171   5.553   4.268 -0.0367 -0.2409 -0.0021
  121MOL   C17641216   7.045   5.599   4.274  0.0103 -0.1352 -0.0927
  121MOL   O17741217   6.957   5.561   4.180  0.4818  0.4260  0.6125
  121MOL   C17841218   6.997   5.681   4.378  0.0532  0.3779  0.7390
  121MOL   C17941219   7.082   5.722   4.475 -0.6283 -0.1078  0.1333
  121MOL   C18041220   7.302   5.604   4.707 -0.2425  0.2660  0.0562
  121MOL   H18141221   7.401   5.695   4.542  1.2985  0.6160  3.8608
  121MOL   H18241222   7.363   5.556   4.370 -0.4138 -1.7409 -0.3473
  121MOL   H18341223   7.203   5.498   4.180 -1.2305 -0.2238 -0.4512
  121MOL   H18441224   6.872   5.544   4.218  0.2821 -1.3069 -0.5853
  121MOL   H18541225   6.893   5.706   4.390 -0.1821 -0.5395  0.6385
  121MOL   H18641226   7.036   5.787   4.548 -1.2845  0.6741 -0.9698
  121MOL   H18741227   7.377   5.637   4.779 -0.5789  1.1124  0.0276
  121MOL   H18841228   7.350   5.520   4.656  4.2682  2.7662 -0.0702
  121MOL   C18941229   7.167   5.556   4.766 -0.2332 -0.5897 -0.4691
  121MOL   C19041230   7.187   5.415   4.825 -0.0620 -0.5311  0.7286
  121MOL   C19141231   7.264   5.393   4.941 -0.4639 -0.2471 -0.3175
  121MOL   C19241232   7.286   5.260   4.985  0.6556 -0.1927  0.8531
  121MOL   C19341233   7.233   5.150   4.911  0.4594 -0.2519  0.0759
  121MOL   O19441234   7.252   5.019   4.950 -0.0041  0.2427  0.3632
  121MOL   C19541235   7.164   5.172   4.790  0.9602  0.0042  0.0366
  121MOL   C19641236   7.127   5.310   4.751 -0.2321  0.9179 -0.1795
  121MOL   C19741237   7.109   5.655   4.870  0.1144  0.0746 -0.0452
  121MOL   H19841238   7.109   5.557   4.674  2.9951  2.2913 -2.6012
  121MOL   H19941239   7.317   5.473   4.990  1.2797 -0.6738 -1.4822
  121MOL   H20041240   7.349   5.237   5.070  2.3544 -0.3709 -0.4346
  121MOL   H20141241   7.202   4.959   4.896  1.1877 -1.4896  1.1444
  121MOL   H20241242   7.121   5.087   4.739  0.5062 -0.4481  1.1536
  121MOL   H20341243   7.051   5.326   4.676 -1.0414  0.7260  0.6065
  121MOL   H20441244   7.095   5.757   4.835 -0.2276  0.2937  0.7042
  121MOL   H20541245   7.184   5.662   4.949 -0.9783  0.1883  1.0058
  121MOL   C20641246   6.978   5.608   4.939  0.2808 -0.4838  0.4224
  121MOL   C20741247   6.861   5.639   4.845 -1.0286 -0.2328  0.0810
  121MOL   C20841248   6.791   5.760   4.843 -0.8620 -0.1362 -0.3479
  121MOL   C20941249   6.672   5.766   4.768  0.4662 -0.1188  0.1349
  121MOL   C21041250   6.620   5.660   4.694 -0.1141  0.2199 -0.3927
  121MOL   O21141251   6.507   5.671   4.626 -0.2273  0.1409  0.5968
  121MOL   C21241252   6.696   5.546   4.693  0.1120 -0.3225  0.5420
  121MOL   C21341253   6.812   5.530   4.767 -0.7141 -0.4714 -0.3070
  121MOL   C21441254   6.976   5.671   5.076  0.2594  0.1601  0.4462
  121MOL   H21541255   6.974   5.501   4.955 -0.5949 -0.3557  1.0508
  121MOL   H21641256   6.838   5.847   4.887 -0.5900 -1.0562  1.2186
  121MOL   H21741257   6.619   5.861   4.767 -1.9349 -1.4296 -1.0651
  121MOL   H21841258   6.439   5.718   4.672  0.7548  0.4520  1.7752
  121MOL   H21941259   6.669   5.467   4.625  1.5787  0.4732 -1.0217
  121MOL   H22041260   6.865   5.437   4.754  1.6242  0.6826  0.5845
  121MOL   H22141261   6.992   5.779   5.071  2.6402 -0.1596  0.6116
  121MOL   H22241262   7.062   5.632   5.130  0.6245  1.3862  0.7504
  121MOL   C22341263   6.849   5.647   5.161  0.2957 -0.8522 -0.0930
  121MOL   C22441264   6.863   5.742   5.283  0.0381  0.1740 -0.4847
  121MOL   C22541265   6.943   5.712   5.396  0.5240  0.0860  0.1234
  121MOL   C22641266   6.920   5.786   5.514  0.1489 -1.1264 -0.2531
  121MOL   C22741267   6.839   5.903   5.512  0.5536 -0.7817  0.0878
  121MOL   O22841268   6.822   5.979   5.623 -0.1240 -0.0475 -0.2278
  121MOL   C22941269   6.773   5.936   5.393 -0.6665 -0.1932  0.1042
  121MOL   C23041270   6.773   5.849   5.280  0.2422 -0.0479 -0.2572
  121MOL   C23141271   6.816   5.496   5.189  0.6484  0.3846  0.1348
  121MOL   H23241272   6.769   5.689   5.099 -1.0161 -3.0926  0.0264
  121MOL   H23341273   7.007   5.625   5.396  0.6573  0.1842  0.0804
  121MOL   H23441274   6.967   5.758   5.607 -2.9005  2.1920  2.4456
  121MOL   H23541275   6.905   5.983   5.668 -0.0734  1.0182 -0.3917
  121MOL   H23641276   6.715   6.027   5.387  0.5382  0.5781  0.0457
  121MOL   H23741277   6.711   5.876   5.196 -0.6978 -1.7145 -0.1009
  121MOL   H23841278   6.814   5.433   5.100 -2.1823  1.1827 -0.4320
  121MOL   H23941279   6.894   5.463   5.257 -0.7089  1.7993  2.4867
  121MOL   C24041280   6.678   5.491   5.264 -0.5047 -0.3089  0.0829
  121MOL   C24141281   6.566   5.523   5.172  0.4632  0.3083 -0.1482
  121MOL   C24241282   6.473   5.620   5.212 -0.2911  1.3078  0.5379
  121MOL   C24341283   6.377   5.667   5.121  0.3559 -0.0717 -0.1005
  121MOL   C24441284   6.370   5.618   4.994 -0.1647 -0.1177  0.4255
  121MOL   O24541285   6.279   5.680   4.908 -0.2621 -0.2969 -0.0213
  121MOL   C24641286   6.459   5.519   4.952 -0.0153  0.1466 -0.0530
  121MOL   C24741287   6.549   5.467   5.045 -0.6006 -0.1084  0.4104
  121MOL   C24841288   6.659   5.354   5.338  0.0024  0.3787  0.0243
  121MOL   H24941289   6.679   5.565   5.344 -1.6238 -1.1238  0.8708
  121MOL   H25041290   6.496   5.674   5.303  1.1019 -1.0492  1.6131
  121MOL   H25141291   6.324   5.757   5.147  1.1781  0.2153  0.6142
  121MOL   H25241292   6.279   5.774   4.911  0.3758 -0.2985  0.0620
  121MOL   H25341293   6.464   5.479   4.852  4.0766 -0.5369  0.3629
  121MOL   H25441294   6.618   5.389   5.017 -0.8890 -0.0344 -0.5130
  121MOL   H25541295   6.641   5.274   5.266 -0.1537  0.5223 -0.0983
  121MOL   H25641296   6.760   5.325   5.365 -0.8945  0.0387  3.1245
  121MOL   C25741297   6.569   5.353   5.473 -0.2576 -0.1392  0.8477
  121MOL   C25841298   6.515   5.213   5.501  0.0446  0.0959  0.3099
  121MOL   C25941299   6.610   5.110   5.525  0.3585 -0.3415  0.3279
  121MOL   C26041300   6.561   4.986   5.567 -0.0792  0.3130 -0.0808
  121MOL   C26141301   6.424   4.957   5.573 -0.2396  0.3755 -0.3585
  121MOL   O26241302   6.370   4.830   5.596  0.1179  0.2178 -0.3193
  121MOL   C26341303   6.327   5.059   5.556 -0.3383 -0.6106  0.3707
  121MOL   C26441304   6.376   5.187   5.523 -0.2942 -0.3960  0.2671
  121MOL   C26541305   6.627   5.427   5.604  0.2922 -0.5647  0.4496
  121MOL   H26641306   6.480   5.405   5.437  1.0593  0.5743 -1.5022
  121MOL   H26741307   6.716   5.125   5.511  0.7128 -2.9624 -0.2261
  121MOL   H26841308   6.640   4.914   5.584  0.2932  1.1266  1.7298
  121MOL   H26941309   6.437   4.767   5.617 -0.0585  0.1245 -0.0364
  121MOL   H27041310   6.222   5.036   5.544 -0.2336  0.0795 -2.2077
  121MOL   H27141311   6.304   5.267   5.510  0.5415  0.5978  1.5521
  121MOL   H27241312   6.693   5.509   5.578  0.6290 -0.3189  1.9852
  121MOL   H27341313   6.698   5.361   5.653  0.9023 -0.2459 -0.0097
  121MOL   C27441314   6.513   5.484   5.697 -0.8089 -0.3900 -0.8573
  121MOL   C27541315   6.441   5.604   5.627 -0.2570 -0.1486 -0.5369
  121MOL   C27641316   6.316   5.578   5.569 -0.1105  0.0166  0.0995
  121MOL   C27741317   6.258   5.676   5.487 -0.2141 -0.2253  0.3994
  121MOL   C27841318   6.323   5.803   5.464 -0.1368  0.1095 -0.3616
  121MOL   O27941319   6.271   5.882   5.362 -0.1651  0.6250 -0.1471
  121MOL   C28041320   6.434   5.839   5.540  0.3783 -0.0759  0.3800
  121MOL   C28141321   6.500   5.733   5.610  0.2613  0.6489 -0.2868
  121MOL   C28241322   6.549   5.514   5.846 -0.4172  0.6461 -0.3148
  121MOL   H28341323   6.440   5.403   5.695 -0.7315 -0.4925  0.1893
  121MOL   H28441324   6.270   5.481   5.577 -0.6805  0.3589  1.0345
  121MOL   H28541325   6.168   5.664   5.429 -1.1952  0.5658  1.7164
  121MOL   H28641326   6.239   5.965   5.394 -0.6841  0.4059 -0.1006
  121MOL   H28741327   6.482   5.936   5.538 -0.6927  0.5502  3.0160
  121MOL   H28841328   6.585   5.752   5.674  0.0405 -1.8522  0.7987
  121MOL   H28941329   6.580   5.618   5.855  0.4068  0.2262  2.1323
  121MOL   H29041330   6.458   5.528   5.903  0.3785 -1.0912  1.4034
  121MOL   C29141331   6.645   5.420   5.924 -0.7564  0.1955  0.6313
  121MOL   C29241332   6.584   5.273   5.930 -1.1344  0.2998 -0.1412
  121MOL   C29341333   6.469   5.242   6.002  0.2945 -0.1143  1.0826
  121MOL   C29441334   6.427   5.112   6.027  0.9549  0.3309 -0.1008
  121MOL   C29541335   6.486   5.004   5.956  0.2611 -0.1705 -0.4482
  121MOL   O29641336   6.434   4.880   5.960 -0.2438  0.2142 -0.5190
  121MOL   C29741337   6.597   5.034   5.873 -0.3778  0.0601 -0.0211
  121MOL   C29841338   6.644   5.167   5.857 -0.1114  0.0420 -0.0138
  121MOL   C29941339   6.677   5.474   6.067 -0.4428  0.7920 -0.8511
  121MOL   H30041340   6.739   5.412   5.869 -1.3150  1.5374 -0.5369
  121MOL   H30141341   6.418   5.319   6.059 -1.7595 -0.5279 -0.1256
  121MOL   H30241342   6.343   5.089   6.091  1.6895 -0.1670  0.6842
  121MOL   H30341343   6.342   4.869   5.978  0.5050 -1.3328  2.6398
  121MOL   H30441344   6.654   4.964   5.814  0.1460  0.1689  0.3523
  121MOL   H30541345   6.738   5.187   5.806 -0.0817 -0.0514  0.0039
  121MOL   H30641346   6.588   5.463   6.129 -0.9673  0.3029 -1.6777
  121MOL   H30741347   6.702   5.580   6.062  3.3393 -0.0098 -0.4384
  121MOL   C30841348   6.792   5.399   6.144 -0.1399  0.6664 -1.2360
  121MOL   C30941349   6.765   5.405   6.291 -0.0308  0.6340  0.2786
  121MOL   C31041350   6.769   5.286   6.361  0.1199 -0.6920  0.3898
  121MOL   C31141351   6.725   5.274   6.492 -0.1502 -0.5333  0.3571
  121MOL   C31241352   6.674   5.393   6.554 -0.4172 -0.6610  0.4426
  121MOL   O31341353   6.621   5.392   6.674 -0.7888 -0.1206  0.2852
  121MOL   C31441354   6.670   5.517   6.484 -0.1898 -0.2416  0.4938
  121MOL   C31541355   6.709   5.520   6.346 -0.2655  0.0942  0.3909
  121MOL   C31641356   6.931   5.468   6.123 -0.3382 -0.4774 -0.3125
  121MOL   H31741357   6.799   5.296   6.109  0.2153  0.7290 -1.3505
  121MOL   H31841358   6.809   5.195   6.319 -1.2344 -0.3972 -1.5968
  121MOL   H31941359   6.707   5.177   6.537 -0.8457 -1.1559 -1.2442
  121MOL   H32041360   6.623   5.306   6.713  0.3068 -0.4773 -0.5417
  121MOL   H32141361   6.625   5.600   6.536 -0.5601 -1.6851  2.5307
  121MOL   H32241362   6.687   5.612   6.293  0.3545  1.2061  2.0169
  121MOL   H32341363   6.999   5.410   6.185 -1.4626 -2.3275 -0.7785
  121MOL   H32441364   6.943   5.564   6.172 -2.2487 -1.1012  1.4628
  121MOL   C32541365   6.992   5.474   5.984 -0.3004 -0.2846  0.2159
  121MOL   C32641366   6.983   5.349   5.898 -0.2487 -0.2341 -1.3047
  121MOL   C32741367   6.976   5.359   5.761 -0.1944  0.4187 -0.3996
  121MOL   C32841368   6.966   5.238   5.689 -0.1151 -0.6544  0.3917
  121MOL   C32941369   6.964   5.114   5.749  0.7270 -0.2894  0.1067
  121MOL   O33041370   6.953   5.003   5.669 -0.5303 -0.8437  0.3731
  121MOL   C33141371   6.996   5.104   5.889  0.1802  0.0903 -0.1669
  121MOL   C33241372   6.994   5.225   5.965 -0.0316  0.0480 -0.5947
  121MOL   C33341373   7.131   5.535   5.985 -0.3602 -0.7884 -0.3729
  121MOL   H33441374   6.926   5.544   5.933 -0.2382 -0.3531  0.0414
  121MOL   H33541375   6.971   5.455   5.713 -0.2310  0.5632 -0.1043
  121MOL   H33641376   6.978   5.253   5.583  2.4361  0.4602  0.8094
  121MOL   H33741377   6.946   5.022   5.576 -0.1726 -1.4263  0.2254
  121MOL   H33841378   7.018   5.009   5.933 -0.0573 -0.3761 -1.0393
  121MOL   H33941379   7.008   5.225   6.073  0.2879  2.2410 -0.6098
  121MOL   H34041380   7.213   5.483   6.035 -0.0547 -1.3232 -1.4174
  121MOL   H34141381   7.106   5.629   6.035 -1.4569 -1.0347 -0.4385
  121MOL   H34241382   7.168   5.563   5.886  1.7609  0.8934  0.8408
  122MOL     C141383   3.454   1.103   0.222 -0.4314  0.0103 -0.0782
  122MOL     C241384   3.449   1.087   0.073  0.1313  1.2369  0.0087
  122MOL     C341385   3.347   1.016   0.004 -0.2011  0.3677  0.1212
  122MOL     C441386   3.363   0.991   7.904 -0.3371 -0.4210 -0.1023
  122MOL     C541387   3.475   1.033   7.833 -0.2037  0.6017  0.3605
  122MOL     O641388   3.492   1.004   7.700  0.1986  0.1379 -0.2327
  122MOL     C741389   3.571   1.109   7.902 -0.3269  0.0861 -0.5044
  122MOL     C841390   3.562   1.135   0.004  0.1938 -0.3595 -0.4063
  122MOL     C941391   3.570   1.028   0.299  0.8707 -0.1536  0.4717
  122MOL    H1041392   3.456   1.209   0.248  0.7638 -0.0987  0.3146
  122MOL    H1141393   3.277   0.955   0.058  0.5148 -1.4499 -0.9928
  122MOL    H1241394   3.287   0.935   7.853  1.1935 -1.7346 -0.9791
  122MOL    H1341395   3.450   0.924   7.671 -1.0262  0.2906  1.0659
  122MOL    H1441396   3.654   1.153   7.849 -0.9689  1.2460 -0.5722
  122MOL    H1541397   3.637   1.191   0.058 -0.4809 -0.4882  0.6773
  122MOL    H1641398   3.578   1.064   0.402  0.8676  2.2532 -0.3492
  122MOL    H1741399   3.659   1.071   0.252  1.6837  0.0922  2.1999
  122MOL    H1841400   3.365   1.056   0.264 -0.8068 -0.2638 -1.1740
  122MOL    C1941401   3.558   0.873   0.317 -0.0259 -0.0637  0.7218
  122MOL    C2041402   3.452   0.838   0.421  0.3128 -1.0170 -0.4247
  122MOL    C2141403   3.344   0.758   0.388 -0.0208  0.3881 -0.2609
  122MOL    C2241404   3.250   0.714   0.481 -0.5125  0.7492 -0.2365
  122MOL    C2341405   3.260   0.757   0.616  0.0527  0.8673  0.4503
  122MOL    O2441406   3.169   0.720   0.711  0.5455 -0.0803 -0.1799
  122MOL    C2541407   3.378   0.834   0.655  0.4493  0.0612  0.0193
  122MOL    C2641408   3.469   0.882   0.557 -0.5423 -0.0539  0.1425
  122MOL    C2741409   3.701   0.805   0.341  0.5979 -0.3807 -0.4885
  122MOL    H2841410   3.532   0.840   0.217 -2.7745 -1.4530  1.8345
  122MOL    H2941411   3.337   0.717   0.289 -0.6589 -2.2969  0.8467
  122MOL    H3041412   3.171   0.646   0.453 -0.8600  0.9189  0.3194
  122MOL    H3141413   3.157   0.784   0.779 -0.2595 -0.1417 -0.2658
  122MOL    H3241414   3.383   0.865   0.759 -2.2083 -1.3884  0.6243
  122MOL    H3341415   3.561   0.936   0.577 -1.4530  1.4960  0.2178
  122MOL    H3441416   3.671   0.700   0.340  1.5411 -0.6525 -0.4028
  122MOL    H3541417   3.726   0.835   0.443 -2.2164  0.2318  0.0642
  122MOL    C3641418   3.820   0.831   0.238  0.3450 -0.3620  0.0343
  122MOL    C3741419   3.812   0.738   0.116  0.3598  0.0840 -0.1937
  122MOL    C3841420   3.816   0.601   0.132 -0.4967 -0.6182  0.6432
  122MOL    C3941421   3.813   0.521   0.015  0.6187  0.2052  0.5845
  122MOL    C4041422   3.804   0.575   7.927 -0.5350  0.5778 -0.3172
  122MOL    O4141423   3.801   0.494   7.812  0.2083 -0.2608 -0.5317
  122MOL    C4241424   3.792   0.716   7.913 -0.0373  0.1298  0.0995
  122MOL    C4341425   3.801   0.793   8.025  0.0154  0.2237  0.1328
  122MOL    C4441426   3.950   0.811   0.309 -0.0582 -0.2455  0.0609
  122MOL    H4541427   3.820   0.936   0.208 -1.5475 -0.5046 -0.5503
  122MOL    H4641428   3.807   0.562   0.233 -3.7934 -1.3528  0.1449
  122MOL    H4741429   3.812   0.413   0.024 -0.0788  0.0052 -1.6297
  122MOL    H4841430   3.819   0.540   7.731  1.5365  1.6836  0.8252
  122MOL    H4941431   3.792   0.757   7.813  0.6251  1.0526  0.4818
  122MOL    H5041432   3.807   0.900   8.009  2.6046  0.0906 -0.0013
  122MOL    H5141433   3.927   0.749   0.396 -2.4614  1.4468  0.6833
  122MOL    H5241434   4.007   0.735   0.256 -1.9575 -1.0253 -0.8976
  122MOL    C5341435   4.022   0.945   0.339  0.4716  0.7603 -0.0485
  122MOL    C5441436   4.107   0.936   0.462  0.1459 -0.0252  0.2435
  122MOL    C5541437   4.071   1.024   0.566 -0.4090  0.4946  0.5078
  122MOL    C5641438   4.145   1.030   0.684  0.1972 -0.0461 -0.5491
  122MOL    C5741439   4.243   0.935   0.712  0.4873 -0.2560 -0.1542
  122MOL    O5841440   4.320   0.931   0.825 -0.4780  0.1131 -0.3879
  122MOL    C5941441   4.276   0.843   0.610  0.3337 -0.2130 -0.6977
  122MOL    C6041442   4.211   0.844   0.487 -0.2345  0.4220  0.5471
  122MOL    C6141443   4.102   0.991   0.215  0.7719  0.5833  0.3763
  122MOL    H6241444   3.943   1.019   0.351  0.9005  0.9613  1.5956
  122MOL    H6341445   3.989   1.093   0.551 -1.6854 -1.4572 -1.7776
  122MOL    H6441446   4.138   1.108   0.758  2.0261 -0.5768  0.2156
  122MOL    H6541447   4.394   0.873   0.818  1.6843  2.6891  0.1777
  122MOL    H6641448   4.359   0.775   0.617  2.5179  2.3055 -1.6734
  122MOL    H6741449   4.235   0.772   0.411  1.4357  1.0584  0.4310
  122MOL    H6841450   4.060   0.959   0.119  0.4239  0.7378  0.4787
  122MOL    H6941451   4.196   0.935   0.211 -1.4634 -3.2372 -1.1524
  122MOL    C7041452   4.126   1.145   0.207  0.3249 -0.6007  0.0682
  122MOL    C7141453   4.027   1.214   0.117  0.5237  0.0063  0.0527
  122MOL    C7241454   4.025   1.204   8.017  0.6644 -0.0036  0.5077
  122MOL    C7341455   3.930   1.269   7.939  0.0791  0.0132  0.4543
  122MOL    C7441456   3.836   1.356   8.000 -0.4481 -0.7876 -0.2033
  122MOL    O7541457   3.748   1.428   7.933  0.6231  0.1389 -0.0066
  122MOL    C7641458   3.843   1.376   0.102 -0.0904 -0.5078 -0.2676
  122MOL    C7741459   3.932   1.295   0.181  0.3836 -0.3759 -0.0289
  122MOL    C7841460   4.267   1.192   0.162 -0.1105 -0.3299 -0.8714
  122MOL    H7941461   4.111   1.178   0.310  1.0409  1.3437 -0.4121
  122MOL    H8041462   4.107   1.149   7.973  0.9005  1.0621 -0.4168
  122MOL    H8141463   3.913   1.239   7.837 -1.2712 -0.4591  0.8151
  122MOL    H8241464   3.678   1.384   7.888  0.9219  0.5837 -0.9172
  122MOL    H8341465   3.788   1.460   0.141 -2.0109 -1.1488 -1.5442
  122MOL    H8441466   3.932   1.324   0.285 -1.0882  1.1642 -0.4341
  122MOL    H8541467   4.267   1.299   0.144 -0.1391 -0.1840 -0.0305
  122MOL    H8641468   4.316   1.143   0.077  1.6200  0.5111 -0.3915
  122MOL    C8741469   4.370   1.181   0.280 -0.1828  0.0250  0.1208
  122MOL    C8841470   4.337   1.269   0.401 -0.2877  0.3982 -0.1759
  122MOL    C8941471   4.270   1.390   0.388 -0.8406 -0.4688  0.0832
  122MOL    C9041472   4.259   1.472   0.506 -0.6482  0.4649  0.1138
  122MOL    C9141473   4.302   1.430   0.631 -1.0877 -0.3541  0.5051
  122MOL    O9241474   4.280   1.502   0.746 -0.1777  0.0680  0.3088
  122MOL    C9341475   4.376   1.310   0.642 -0.2683 -0.6769 -0.5868
  122MOL    C9441476   4.396   1.235   0.525 -0.2305  0.0545  0.3984
  122MOL    C9541477   4.519   1.194   0.235  0.1913 -0.5247 -0.0933
  122MOL    H9641478   4.344   1.086   0.328  1.5378  0.0801  1.1938
  122MOL    H9741479   4.236   1.426   0.293 -0.6682 -0.1344  0.1496
  122MOL    H9841480   4.196   1.559   0.503 -2.6243 -0.9545 -0.2409
  122MOL    H9941481   4.246   1.586   0.720  1.5394  0.4546 -0.7730
  122MOL   H10041482   4.417   1.280   0.737  1.1324  0.8711 -0.6782
  122MOL   H10141483   4.449   1.141   0.534 -0.4683 -0.0515  0.6903
  122MOL   H10241484   4.520   1.237   0.135  0.5242  0.8703  0.4888
  122MOL   H10341485   4.561   1.273   0.297  0.8706 -0.2168 -0.9387
  122MOL   C10441486   4.596   1.052   0.243 -0.0281  0.2112  0.2403
  122MOL   C10541487   4.753   1.073   0.222  0.4085  0.5817 -0.0234
  122MOL   C10641488   4.838   1.013   0.316 -0.3132  0.0918  0.6776
  122MOL   C10741489   4.982   1.027   0.304 -0.3207  0.2558 -0.6168
  122MOL   C10841490   5.037   1.109   0.203 -0.3038  0.2817 -0.2383
  122MOL   O10941491   5.173   1.104   0.176  0.4030 -0.0079  0.1976
  122MOL   C11041492   4.945   1.172   0.118  0.7350 -0.7316  0.2099
  122MOL   C11141493   4.807   1.154   0.122 -0.3572 -0.3103 -0.1588
  122MOL   C11241494   4.531   0.935   0.150  0.7536 -0.0960 -0.0677
  122MOL   H11341495   4.580   1.021   0.347  0.4568 -0.7075  0.0404
  122MOL   H11441496   4.804   0.940   0.388  1.7462 -0.6598  0.9208
  122MOL   H11541497   5.041   0.984   0.384 -2.8065  2.2304  2.4364
  122MOL   H11641498   5.203   1.186   0.140  0.1872 -0.1847 -0.3893
  122MOL   H11741499   4.980   1.246   0.048  0.5871  0.4830  1.3818
  122MOL   H11841500   4.735   1.211   0.064  1.2188  2.9306  0.9468
  122MOL   H11941501   4.507   0.986   0.057  2.8447  0.9068 -0.0928
  122MOL   H12041502   4.430   0.920   0.189  0.1608  1.5661 -0.9296
  122MOL   C12141503   4.611   0.806   0.133  0.1661  0.0193 -0.4397
  122MOL   C12241504   4.590   0.705   0.252 -0.6700 -0.2631 -0.3298
  122MOL   C12341505   4.461   0.660   0.274 -0.0192  0.4882 -0.3511
  122MOL   C12441506   4.438   0.561   0.374 -0.0101  0.3361 -0.2229
  122MOL   C12541507   4.556   0.515   0.443  0.1688  0.3434  0.1762
  122MOL   O12641508   4.538   0.422   0.541 -0.1001  0.5342 -0.1628
  122MOL   C12741509   4.688   0.552   0.411  0.0949 -0.1196  0.2825
  122MOL   C12841510   4.701   0.653   0.319 -0.3263 -0.1480 -1.0433
  122MOL   C12941511   4.577   0.744   8.030  0.0837  0.1915 -0.3754
  122MOL   H13041512   4.718   0.823   0.137 -0.1952  2.1213  1.1719
  122MOL   H13141513   4.380   0.700   0.214 -0.3700  0.6261  0.2164
  122MOL   H13241514   4.342   0.528   0.409 -0.7226  0.8437 -1.6552
  122MOL   H13341515   4.447   0.401   0.555 -0.0071  0.5667  0.5217
  122MOL   H13441516   4.766   0.506   0.470  1.7533  1.7297 -0.4138
  122MOL   H13541517   4.797   0.692   0.291 -0.1148 -0.9373 -1.4282
  122MOL   H13641518   4.469   0.738   8.020  0.0264 -0.3051  0.4908
  122MOL   H13741519   4.611   0.641   8.022  0.2938  0.0368  2.1088
  122MOL   C13841520   4.637   0.821   7.915  0.1952  0.0579  0.1809
  122MOL   C13941521   4.554   0.821   7.788  0.0743  0.3486  0.0449
  122MOL   C14041522   4.529   0.699   7.718  0.6093 -0.4342  0.2236
  122MOL   C14141523   4.459   0.704   7.594 -0.0538  0.1932 -0.5351
  122MOL   C14241524   4.412   0.827   7.544 -0.2810  0.2166  0.2234
  122MOL   O14341525   4.357   0.831   7.424 -0.0372 -0.4908 -0.1765
  122MOL   C14441526   4.430   0.947   7.624  0.1839  0.1992  0.2602
  122MOL   C14541527   4.504   0.942   7.745 -0.5127 -0.2669 -0.2657
  122MOL   C14641528   4.783   0.773   7.871  0.2234  0.1270 -0.5904
  122MOL   H14741529   4.647   0.922   7.955  0.2360  0.3903 -0.6514
  122MOL   H14841530   4.577   0.608   7.751  3.3484  1.4904  1.7618
  122MOL   H14941531   4.446   0.616   7.534  1.1785 -0.7686  0.5898
  122MOL   H15041532   4.387   0.766   7.362  0.8872 -0.1781 -0.0627
  122MOL   H15141533   4.387   1.038   7.585 -1.6392 -1.6898 -2.3173
  122MOL   H15241534   4.531   1.028   7.805  0.9007 -0.2468 -0.9022
  122MOL   H15341535   4.781   0.669   7.837  0.8414 -0.5066  1.2371
  122MOL   H15441536   4.835   0.771   7.967 -0.6705 -2.2654 -0.1008
  122MOL   C15541537   4.852   0.857   7.770 -0.4207 -0.3900  0.1935
  122MOL   C15641538   4.970   0.789   7.699 -0.5982  0.0471 -0.2052
  122MOL   C15741539   4.965   0.758   7.562 -0.4446 -0.5114 -0.2788
  122MOL   C15841540   5.081   0.715   7.500  0.2410 -0.4054 -0.6102
  122MOL   C15941541   5.198   0.696   7.580  0.3571 -0.7373  0.7657
  122MOL   O16041542   5.307   0.638   7.524 -0.1516  0.4493  0.5267
  122MOL   C16141543   5.201   0.732   7.716 -0.1586  0.2498  0.1586
  122MOL   C16241544   5.080   0.775   7.776 -0.5741 -0.3744  0.3601
  122MOL   C16341545   4.887   1.001   7.825 -0.0149 -0.2937  0.0104
  122MOL   H16441546   4.775   0.873   7.695  0.4040 -1.2014 -0.8518
  122MOL   H16541547   4.876   0.774   7.504 -0.4448  1.0935  0.1540
  122MOL   H16641548   5.077   0.690   7.395 -0.1762 -3.5120  0.0866
  122MOL   H16741549   5.320   0.671   7.436 -2.7625 -0.6689 -0.3306
  122MOL   H16841550   5.284   0.707   7.780  1.9918 -0.7859 -2.9171
  122MOL   H16941551   5.073   0.786   7.883  2.1511  3.9724  0.2109
  122MOL   H17041552   4.982   0.992   7.878  0.3784 -2.9633 -1.0274
  122MOL   H17141553   4.806   1.024   7.894  0.7994  0.2825  0.7698
  122MOL   C17241554   4.888   1.119   7.723 -0.9468 -0.0753  0.4326
  122MOL   C17341555   4.973   1.085   7.599 -0.0942  0.2222 -0.0385
  122MOL   C17441556   4.911   1.069   7.473  0.4552 -0.1172  0.2852
  122MOL   C17541557   4.984   1.029   7.365 -0.1069  0.5340  0.7173
  122MOL   C17641558   5.120   1.021   7.371 -1.2603  0.2788  0.4864
  122MOL   O17741559   5.182   0.979   7.255  0.4038  0.2713  0.1352
  122MOL   C17841560   5.185   1.037   7.496 -0.0728 -0.1970 -0.4815
  122MOL   C17941561   5.111   1.065   7.611  0.0128  0.0533  0.2533
  122MOL   C18041562   4.928   1.251   7.793  0.0733 -0.1361  0.3340
  122MOL   H18141563   4.786   1.138   7.693 -0.7743  2.6849  1.4559
  122MOL   H18241564   4.803   1.063   7.473  0.5053 -2.0743 -2.0879
  122MOL   H18341565   4.947   1.003   7.267  2.9678  2.0345 -0.9100
  122MOL   H18441566   5.269   0.944   7.262  0.0527 -0.2025  2.7941
  122MOL   H18541567   5.293   1.027   7.503 -0.1396  0.3244  1.4416
  122MOL   H18641568   5.163   1.067   7.706  1.3285  0.5067 -0.4602
  122MOL   H18741569   5.026   1.231   7.836  0.2167  0.9060  0.4977
  122MOL   H18841570   4.847   1.264   7.865 -0.1461  4.3810 -0.5910
  122MOL   C18941571   4.921   1.386   7.713 -0.0950  0.3330 -0.5528
  122MOL   C19041572   5.037   1.406   7.619  0.4962  0.3882  0.7773
  122MOL   C19141573   5.019   1.410   7.477 -0.0851 -0.0231 -0.0649
  122MOL   C19241574   5.128   1.431   7.393  0.5345 -0.5881  0.4586
  122MOL   C19341575   5.257   1.434   7.444  0.3244  0.4689  0.2153
  122MOL   O19441576   5.361   1.426   7.358  0.0046 -0.8344 -0.0062
  122MOL   C19541577   5.282   1.434   7.580 -0.1207 -0.4199 -0.2789
  122MOL   C19641578   5.166   1.433   7.666 -0.3209 -0.5709  0.1731
  122MOL   C19741579   4.777   1.427   7.651 -0.0387 -0.2085  0.4607
  122MOL   H19841580   4.947   1.466   7.783  0.4932 -0.4370  0.1328
  122MOL   H19941581   4.923   1.387   7.434 -0.6796 -1.5909  2.0185
  122MOL   H20041582   5.111   1.433   7.286  1.9246 -2.2126  0.1750
  122MOL   H20141583   5.344   1.475   7.279  1.9327  0.8735  0.5808
  122MOL   H20241584   5.380   1.437   7.625 -0.3150 -2.6108  0.3772
  122MOL   H20341585   5.194   1.437   7.770  0.2663 -0.3327  0.0081
  122MOL   H20441586   4.725   1.347   7.598  1.0621  0.7158 -2.0559
  122MOL   H20541587   4.783   1.512   7.584  0.1265  1.1794  2.1900
  122MOL   C20641588   4.687   1.474   7.766  0.4319 -0.4668  0.4591
  122MOL   C20741589   4.544   1.419   7.757  0.0850  0.0420  1.2193
  122MOL   C20841590   4.500   1.325   7.851 -0.2317  0.4346  0.8271
  122MOL   C20941591   4.371   1.271   7.836  0.5383 -0.4219  0.5684
  122MOL   C21041592   4.290   1.309   7.727  0.1435  0.1510  0.5924
  122MOL   O21141593   4.170   1.256   7.717  0.5435  0.1987 -1.0034
  122MOL   C21241594   4.325   1.413   7.640  0.3017 -0.3823 -0.1593
  122MOL   C21341595   4.456   1.466   7.651 -0.4434 -0.2215 -0.5663
  122MOL   C21441596   4.703   1.630   7.788 -0.8580  0.6386 -0.2013
  122MOL   H21541597   4.728   1.427   7.855  0.0928 -0.0883  0.8193
  122MOL   H21641598   4.566   1.269   7.916  0.6706 -1.2358 -1.4565
  122MOL   H21741599   4.343   1.204   7.916  0.3542 -0.2160  0.6744
  122MOL   H21841600   4.161   1.171   7.759  0.8548  0.0334 -1.2711
  122MOL   H21941601   4.262   1.449   7.560 -1.0780  1.1612  1.5851
  122MOL   H22041602   4.483   1.541   7.578  0.2509  0.5520  0.4763
  122MOL   H22141603   4.691   1.672   7.688 -0.9777 -0.6707 -0.7536
  122MOL   H22241604   4.799   1.662   7.828 -0.1384  0.3663 -1.6586
  122MOL   C22341605   4.591   1.699   7.879 -0.4159  0.3010  0.7470
  122MOL   C22441606   4.611   1.847   7.894  0.2592 -0.1262  1.1755
  122MOL   C22541607   4.517   1.938   7.850  0.4322  0.1232  0.3741
  122MOL   C22641608   4.543   2.073   7.858  0.1989 -0.4136 -0.1721
  122MOL   C22741609   4.666   2.124   7.913  0.1055  0.8012  0.3627
  122MOL   O22841610   4.689   2.258   7.911 -0.0403  0.8101  0.7914
  122MOL   C22941611   4.759   2.031   7.951 -0.0925 -0.6328  0.2742
  122MOL   C23041612   4.729   1.896   7.946  0.4514 -0.4922  0.3966
  122MOL   C23141613   4.581   1.630   8.018  0.1600  0.4442  0.8710
  122MOL   H23241614   4.500   1.666   7.828 -0.0230  0.6978 -0.2341
  122MOL   H23341615   4.423   1.894   7.820  1.0903 -0.8039 -0.3631
  122MOL   H23441616   4.473   2.153   7.838  0.3315 -0.7375 -2.0242
  122MOL   H23541617   4.681   2.308   7.832 -0.0414  1.5151  1.2334
  122MOL   H23641618   4.850   2.072   7.992 -0.4572  1.1488 -0.6453
  122MOL   H23741619   4.798   1.822   7.985  0.0213  0.0862  2.2974
  122MOL   H23841620   4.571   1.522   8.014  1.3446  0.3753 -1.4188
  122MOL   H23941621   4.675   1.649   0.033  0.8454  2.5451 -0.9929
  122MOL   C24041622   4.471   1.684   0.079 -0.6645 -0.1099  0.0676
  122MOL   C24141623   4.327   1.681   0.024 -0.2714 -0.5131 -0.6776
  122MOL   C24241624   4.258   1.801   0.020  0.0200 -0.8323  0.1800
  122MOL   C24341625   4.139   1.816   7.983  0.4701 -0.0374  0.1664
  122MOL   C24441626   4.084   1.697   7.929 -0.1339  0.5611 -0.4037
  122MOL   O24541627   3.968   1.703   7.854 -0.3183  0.2941  0.3497
  122MOL   C24641628   4.143   1.573   7.948 -0.2052  0.0947  0.4733
  122MOL   C24741629   4.271   1.566   8.003 -0.2308  0.4284 -0.5074
  122MOL   C24841630   4.475   1.603   0.222  0.2998  0.3876  0.3921
  122MOL   H24941631   4.501   1.786   0.101  2.0481 -0.3760 -2.0360
  122MOL   H25041632   4.299   1.885   0.076 -0.5975  0.0437 -0.6630
  122MOL   H25141633   4.097   1.916   7.981  0.5078 -0.0202  0.2423
  122MOL   H25241634   3.936   1.619   7.824  1.5822 -0.1654 -0.4958
  122MOL   H25341635   4.104   1.480   7.910 -0.8594  1.0971 -1.3511
  122MOL   H25441636   4.335   1.479   8.010 -0.9691 -0.0099  1.0640
  122MOL   H25541637   4.377   1.615   0.270  0.4991 -0.9105  1.1638
  122MOL   H25641638   4.475   1.496   0.202 -1.9177 -0.1865  3.1358
  122MOL   C25741639   4.598   1.631   0.317 -0.2546  0.4094 -0.0977
  122MOL   C25841640   4.630   1.778   0.324  0.1797  0.3666  0.7556
  122MOL   C25941641   4.745   1.838   0.270  0.4231 -0.4619 -0.2357
  122MOL   C26041642   4.777   1.974   0.310  0.7784  0.6455  0.4894
  122MOL   C26141643   4.690   2.046   0.397 -0.7563  0.5255 -0.2677
  122MOL   O26241644   4.730   2.162   0.459 -0.0161 -0.1957  0.2029
  122MOL   C26341645   4.568   1.992   0.429  0.4273  0.2656 -0.0309
  122MOL   C26441646   4.539   1.858   0.397  0.0613  0.1296  0.0764
  122MOL   C26541647   4.615   1.560   0.449  0.3717 -0.7946 -0.3571
  122MOL   H26641648   4.681   1.588   0.262  0.2275  1.7638 -0.4559
  122MOL   H26741649   4.810   1.783   0.204  0.7251 -2.4870  1.6839
  122MOL   H26841650   4.866   2.023   0.272  1.1427  0.1749  0.7185
  122MOL   H26941651   4.805   2.207   0.422 -1.4168  0.6749 -1.6935
  122MOL   H27041652   4.504   2.043   0.499  1.2501 -0.5290  1.3202
  122MOL   H27141653   4.442   1.823   0.428 -0.6465  2.4090  0.5097
  122MOL   H27241654   4.611   1.452   0.433  0.4112 -1.0163  1.0059
  122MOL   H27341655   4.522   1.577   0.503  1.3781 -0.6436  1.3985
  122MOL   C27441656   4.728   1.609   0.545  0.6820  0.4220  0.2433
  122MOL   C27541657   4.867   1.586   0.479 -0.0312  0.4756 -0.5555
  122MOL   C27641658   4.967   1.674   0.511 -0.3185 -1.0290  0.4447
  122MOL   C27741659   5.102   1.642   0.475 -0.2547  0.1040 -0.3090
  122MOL   C27841660   5.126   1.527   0.393  0.4527  0.4771 -0.6160
  122MOL   O27941661   5.251   1.486   0.344  0.2400  0.2130  0.1190
  122MOL   C28041662   5.022   1.440   0.359 -0.2169 -0.2342  0.3826
  122MOL   C28141663   4.891   1.471   0.399  0.3070  0.3720  0.1334
  122MOL   C28241664   4.710   1.524   0.681  0.4313  0.1212 -0.2438
  122MOL   H28341665   4.721   1.715   0.565  0.9699  0.7314 -1.2454
  122MOL   H28441666   4.955   1.762   0.573  3.4587 -0.3865  0.3721
  122MOL   H28541667   5.187   1.695   0.515 -0.1681 -1.0787  1.1482
  122MOL   H28641668   5.313   1.557   0.334 -0.2960  0.6475 -0.1673
  122MOL   H28741669   5.048   1.350   0.305  1.2891  1.2051 -1.3728
  122MOL   H28841670   4.814   1.397   0.386  1.2390 -0.6738  0.4714
  122MOL   H28941671   4.670   1.424   0.663 -2.4046  1.1520  0.1256
  122MOL   H29041672   4.813   1.514   0.716  1.1941 -1.5700 -2.7850
  122MOL   C29141673   4.633   1.593   0.795  0.1823  0.0033  0.3886
  122MOL   C29241674   4.669   1.735   0.799 -0.1830 -0.2189 -0.2569
  122MOL   C29341675   4.797   1.779   0.838  0.0421  0.7798 -0.1516
  122MOL   C29441676   4.837   1.912   0.828 -0.1168  0.1338  0.0321
  122MOL   C29541677   4.749   2.003   0.767 -0.6650 -0.4572 -0.0741
  122MOL   O29641678   4.795   2.126   0.731 -0.5658  0.3354  0.1669
  122MOL   C29741679   4.618   1.965   0.736 -0.1184  0.9839 -0.3563
  122MOL   C29841680   4.578   1.832   0.752 -0.0299 -0.2575 -0.0603
  122MOL   C29941681   4.639   1.519   0.931 -0.5717 -1.3321  0.0187
  122MOL   H30041682   4.527   1.584   0.772  0.4147  0.6785 -1.0282
  122MOL   H30141683   4.865   1.714   0.890  1.3357  0.2031 -2.5352
  122MOL   H30241684   4.932   1.949   0.865 -0.5735  1.0964  0.2527
  122MOL   H30341685   4.753   2.169   0.659 -0.1908  3.2265  1.5771
  122MOL   H30441686   4.544   2.033   0.695 -0.5263  1.4824  1.1972
  122MOL   H30541687   4.480   1.806   0.713  0.5632  0.8518 -2.4031
  122MOL   H30641688   4.741   1.483   0.941 -0.1258  0.2511  1.3599
  122MOL   H30741689   4.584   1.425   0.924 -1.3387 -0.9131  0.3544
  122MOL   C30841690   4.591   1.578   1.065  0.0025  0.0360  0.1463
  122MOL   C30941691   4.454   1.647   1.058  1.0936  0.4912  0.4360
  122MOL   C31041692   4.336   1.570   1.053 -0.4180  0.4943  0.0739
  122MOL   C31141693   4.207   1.628   1.041 -0.4148  0.8201 -0.7005
  122MOL   C31241694   4.197   1.767   1.039  0.1301 -0.2486 -0.1588
  122MOL   O31341695   4.075   1.830   1.024 -0.1869  0.0756 -0.3779
  122MOL   C31441696   4.313   1.848   1.044  0.5839 -0.6999  0.2713
  122MOL   C31541697   4.442   1.786   1.045 -0.2269 -0.1642 -0.0302
  122MOL   C31641698   4.696   1.669   1.141 -0.0736  0.6053  0.1858
  122MOL   H31741699   4.575   1.510   1.149 -1.9541  1.8907  1.3439
  122MOL   H31841700   4.340   1.463   1.047 -0.2651  0.5793 -1.4266
  122MOL   H31941701   4.121   1.563   1.034  0.5058 -0.5741  0.8924
  122MOL   H32041702   4.021   1.783   0.963 -1.9441 -0.8188  1.7799
  122MOL   H32141703   4.314   1.956   1.040 -1.3339 -0.7143 -1.6178
  122MOL   H32241704   4.529   1.849   1.050 -0.4815  0.2476 -0.8230
  122MOL   H32341705   4.712   1.753   1.073 -0.4255  0.2135 -0.3873
  122MOL   H32441706   4.791   1.615   1.149 -0.5740 -0.0308  2.0296
  122MOL   C32541707   4.659   1.726   1.278 -0.3000  0.1532 -0.1923
  122MOL   C32641708   4.720   1.861   1.309  0.6768 -0.5675  0.0804
  122MOL   C32741709   4.854   1.887   1.288  0.2045 -0.0238  0.5245
  122MOL   C32841710   4.912   2.005   1.327 -0.0201  0.5903  0.3346
  122MOL   C32941711   4.829   2.109   1.382 -0.2257 -0.3596 -0.1942
  122MOL   O33041712   4.876   2.231   1.422 -0.5832 -0.1623  0.0590
  122MOL   C33141713   4.690   2.087   1.395 -1.1742 -0.5987 -0.3720
  122MOL   C33241714   4.641   1.961   1.374  0.2828  0.8292  0.6009
  122MOL   C33341715   4.690   1.627   1.394 -0.1507 -0.6697  0.4059
  122MOL   H33441716   4.551   1.745   1.279 -0.0318  1.7762 -0.2051
  122MOL   H33541717   4.920   1.817   1.239  1.0376  1.0678  0.0606
  122MOL   H33641718   5.018   2.024   1.316  0.0420 -1.0772 -2.4490
  122MOL   H33741719   4.970   2.244   1.432 -0.4980  0.4718 -1.4153
  122MOL   H33841720   4.621   2.154   1.444  0.8407  0.4976  1.0184
  122MOL   H33941721   4.540   1.935   1.402  0.4860 -0.5311  0.1429
  122MOL   H34041722   4.645   1.530   1.376 -0.5425 -1.0743  3.2692
  122MOL   H34141723   4.651   1.665   1.489  0.3282  0.9910 -0.0499
  122MOL   H34241724   4.796   1.635   1.417 -0.1202 -2.1765  0.8013
  123MOL     C141725   4.202   0.418   7.913  0.3305  0.3096  0.0085
  123MOL     C241726   4.182   0.561   7.869 -0.2691  1.2295  0.4278
  123MOL     C341727   4.132   0.595   7.740  0.2526  0.7533 -0.6380
  123MOL     C441728   4.112   0.728   7.707 -0.1371 -0.0259 -0.4566
  123MOL     C541729   4.155   0.822   7.802 -0.1014 -0.4587 -0.1381
  123MOL     O641730   4.150   0.957   7.776 -0.4188  0.2182 -0.2906
  123MOL     C741731   4.207   0.784   7.926 -0.0906 -0.2212 -0.5477
  123MOL     C841732   4.218   0.651   7.966  0.6759 -0.3625  0.2170
  123MOL     C941733   4.314   0.345   7.845  0.0803 -0.1955 -0.0600
  123MOL    H1041734   4.215   0.405   8.020  0.1567  2.1210  0.2743
  123MOL    H1141735   4.109   0.519   7.667  2.2447  0.1201 -0.6497
  123MOL    H1241736   4.077   0.757   7.609  1.3126 -0.8651 -1.2448
  123MOL    H1341737   4.147   0.965   7.681 -0.1752 -1.7716 -0.4889
  123MOL    H1441738   4.237   0.864   7.993  0.8629 -2.0864  1.2969
  123MOL    H1541739   4.257   0.630   0.027 -0.6282 -0.6376  0.6763
  123MOL    H1641740   4.372   0.281   7.912 -2.5232 -1.7020  0.8176
  123MOL    H1741741   4.382   0.419   7.804 -1.9021  0.5549 -2.1190
  123MOL    H1841742   4.113   0.360   7.885 -0.2716  1.6746 -0.9832
  123MOL    C1941743   4.277   0.260   7.717 -0.0846  0.7040  0.3209
  123MOL    C2041744   4.259   0.115   7.746 -0.0585  0.1426  0.4295
  123MOL    C2141745   4.130   0.056   7.751  0.7761 -0.2219 -0.6645
  123MOL    C2241746   4.107   7.967   7.816 -0.2790  0.3305  0.2524
  123MOL    C2341747   4.220   7.893   7.858 -0.0172  0.0545 -0.0379
  123MOL    O2441748   4.213   7.767   7.910 -0.4112 -0.0746 -0.2692
  123MOL    C2541749   4.348   7.946   7.849  0.3627  0.4913  0.0082
  123MOL    C2641750   4.365   0.036   7.792  0.5435  0.2103  0.2372
  123MOL    C2741751   4.349   0.294   7.581 -0.0960 -0.2510 -0.5441
  123MOL    H2841752   4.177   0.285   7.681 -0.4712 -0.9287  0.2277
  123MOL    H2941753   4.047   0.108   7.707 -0.5443  0.8236  2.8609
  123MOL    H3041754   4.006   7.932   7.830 -0.3725 -0.2112 -1.6511
  123MOL    H3141755   4.287   7.723   7.949 -0.7879 -1.5017 -1.1368
  123MOL    H3241756   4.430   7.888   7.889  0.5430  0.7702  0.0405
  123MOL    H3341757   4.466   0.074   7.785  0.6558 -0.3757 -1.5581
  123MOL    H3441758   4.329   0.400   7.567  0.1795 -0.2649 -1.0491
  123MOL    H3541759   4.285   0.251   7.503 -0.8860  0.1118 -0.1092
  123MOL    C3641760   4.498   0.255   7.572 -0.3046 -0.4107  0.3804
  123MOL    C3741761   4.586   0.358   7.508 -0.5540  0.0316  0.3015
  123MOL    C3841762   4.717   0.371   7.559  0.3214 -0.8738 -0.3472
  123MOL    C3941763   4.803   0.464   7.497 -0.1044 -0.0709  0.2002
  123MOL    C4041764   4.777   0.526   7.370  0.8109  0.0381 -0.3231
  123MOL    O4141765   4.853   0.621   7.307  0.2606  0.0795  0.3360
  123MOL    C4241766   4.645   0.503   7.328 -0.2214 -0.3235 -0.0641
  123MOL    C4341767   4.550   0.421   7.389 -0.5208 -0.7974 -0.4269
  123MOL    C4441768   4.509   0.123   7.505  0.0463 -0.4903  0.1003
  123MOL    H4541769   4.525   0.243   7.677 -3.1242 -0.8103  1.0906
  123MOL    H4641770   4.736   0.313   7.648  1.5341 -1.5900 -1.0513
  123MOL    H4741771   4.894   0.495   7.548  1.1962 -0.6706 -1.7200
  123MOL    H4841772   4.940   0.591   7.286  0.6984  0.0063  2.1500
  123MOL    H4941773   4.611   0.552   7.237 -3.0366  1.5114  1.9004
  123MOL    H5041774   4.450   0.412   7.350 -0.9588  1.8318  0.0173
  123MOL    H5141775   4.471   0.050   7.576  0.9601  0.6398  1.7734
  123MOL    H5241776   4.450   0.127   7.414 -1.4792  1.1794  1.1461
  123MOL    C5341777   4.638   0.065   7.443  0.2163  0.3271  0.5928
  123MOL    C5441778   4.753   0.031   7.535 -0.1113  0.0271  0.6715
  123MOL    C5541779   4.884   0.073   7.499  0.3026  0.2525 -0.7796
  123MOL    C5641780   4.988   0.022   7.582 -0.3349 -0.7620  0.5355
  123MOL    C5741781   4.956   7.983   7.694 -0.4781 -0.5348 -0.5772
  123MOL    O5841782   5.062   7.947   7.775 -0.2856  0.2379 -0.0374
  123MOL    C5941783   4.829   7.944   7.731 -0.1731  0.3842  0.1535
  123MOL    C6041784   4.724   7.985   7.644  0.5190 -0.0231 -0.5694
  123MOL    C6141785   4.634   7.980   7.335 -0.2753  0.3022  0.7766
  123MOL    H6241786   4.681   0.147   7.386  1.1250  0.1317  0.9840
  123MOL    H6341787   4.900   0.141   7.417  0.6033  3.7089  1.9848
  123MOL    H6441788   5.090   0.049   7.561 -0.9563  0.2404 -1.4156
  123MOL    H6541789   5.035   7.899   7.851 -1.3135 -2.7851 -2.2045
  123MOL    H6641790   4.814   7.893   7.825  0.4528 -0.4043 -0.1704
  123MOL    H6741791   4.624   7.967   7.680  1.2979 -0.2014  1.5619
  123MOL    H6841792   4.710   7.904   7.354 -0.3559 -0.2853 -1.0924
  123MOL    H6941793   4.665   8.023   7.239 -2.2566  1.9487  0.8338
  123MOL    C7041794   4.501   7.903   7.318 -0.1731  0.1833 -0.4351
  123MOL    C7141795   4.494   7.794   7.422 -0.9864  0.2401  0.1489
  123MOL    C7241796   4.572   7.678   7.391  0.0053 -0.4095 -0.3024
  123MOL    C7341797   4.574   7.576   7.494  0.1414 -0.3775 -0.3414
  123MOL    C7441798   4.477   7.579   7.597  0.6654 -0.1159  0.6671
  123MOL    O7541799   4.457   7.475   7.679  0.2549  0.0582 -0.0681
  123MOL    C7641800   4.404   7.696   7.625  0.2363 -0.9897  0.7745
  123MOL    C7741801   4.404   7.804   7.536  0.1494 -0.2516  0.3354
  123MOL    C7841802   4.465   7.854   7.173  0.6701 -0.0154 -0.0984
  123MOL    H7941803   4.416   7.968   7.342 -0.6949 -0.4909 -0.4299
  123MOL    H8041804   4.632   7.685   7.301 -3.6678  1.4671 -2.6969
  123MOL    H8141805   4.649   7.500   7.486 -1.6856 -2.1911 -0.7515
  123MOL    H8241806   4.517   7.412   7.643  0.2091  0.8239 -1.5268
  123MOL    H8341807   4.340   7.701   7.712  1.9121 -3.6699  2.2223
  123MOL    H8441808   4.342   7.890   7.559 -0.8779 -0.4980 -1.4290
  123MOL    H8541809   4.371   7.800   7.176  1.1254 -0.7790  0.6163
  123MOL    H8641810   4.542   7.785   7.137 -0.1884 -0.5909 -0.8413
  123MOL    C8741811   4.461   7.972   7.064  0.4491 -0.6073  0.2192
  123MOL    C8841812   4.574   7.965   6.954 -0.5770 -0.8579  0.6301
  123MOL    C8941813   4.560   7.876   6.847 -0.2573 -0.1354 -0.2149
  123MOL    C9041814   4.643   7.890   6.733 -0.4122  0.6580 -0.4042
  123MOL    C9141815   4.757   7.982   6.742 -0.2663 -0.2282 -0.1545
  123MOL    O9241816   4.846   7.986   6.643  0.1881  0.7012 -0.4494
  123MOL    C9341817   4.771   0.034   6.853  0.1150  0.2405 -0.2276
  123MOL    C9441818   4.671   0.031   6.955  0.1861  0.3648  0.0812
  123MOL    C9541819   4.424   0.077   7.111  0.1812  0.7183  0.6828
  123MOL    H9641820   4.371   7.944   7.010  0.2459  0.7153 -0.1223
  123MOL    H9741821   4.471   7.815   6.840  0.8679 -1.6326 -1.9108
  123MOL    H9841822   4.613   7.824   6.653  0.8463 -0.6141  0.1557
  123MOL    H9941823   4.855   0.040   6.622 -2.5246  0.3234 -3.5694
  123MOL   H10041824   4.850   0.107   6.866  2.8003 -1.9871 -3.2542
  123MOL   H10141825   4.675   0.101   7.037 -1.7660 -1.8700  2.1683
  123MOL   H10241826   4.339   0.075   7.180  0.1199 -0.4049  0.5812
  123MOL   H10341827   4.500   0.123   7.174  0.4773 -0.8790  1.5236
  123MOL   C10441828   4.394   0.171   6.996  0.1706 -0.0207 -0.3361
  123MOL   C10541829   4.390   0.315   7.037 -0.6839 -0.4841  0.6294
  123MOL   C10641830   4.463   0.413   6.964 -0.3961  1.0345  0.2049
  123MOL   C10741831   4.450   0.549   6.992 -0.5187  1.2216  0.0278
  123MOL   C10841832   4.359   0.595   7.094  0.2573 -0.1579 -0.0085
  123MOL   O10941833   4.354   0.726   7.118 -0.4937  0.0296 -0.4565
  123MOL   C11041834   4.288   0.505   7.169  0.0641  0.2346  0.6801
  123MOL   C11141835   4.303   0.362   7.140  0.2386  0.1588 -0.5127
  123MOL   C11241836   4.265   0.137   6.918 -0.5163  0.4494 -0.1924
  123MOL   H11341837   4.470   0.176   6.918 -0.7127  1.9179 -1.0899
  123MOL   H11441838   4.529   0.392   6.881  0.4748  0.7351  0.9724
  123MOL   H11541839   4.488   0.620   6.921  0.9632 -1.0759 -1.5381
  123MOL   H11641840   4.434   0.771   7.094  0.0892 -0.5127  0.4537
  123MOL   H11741841   4.229   0.545   7.250 -1.2872  1.8586 -1.0680
  123MOL   H11841842   4.238   0.294   7.193 -0.1327  0.5528 -0.4642
  123MOL   H11941843   4.178   0.156   6.980 -1.3130 -0.2559 -1.0767
  123MOL   H12041844   4.250   0.034   6.886  0.9242  0.5958 -1.4081
  123MOL   C12141845   4.237   0.229   6.791 -0.0923 -0.2776  0.4990
  123MOL   C12241846   4.348   0.228   6.684  0.3687 -0.2480 -0.0161
  123MOL   C12341847   4.377   0.348   6.619 -0.6033  0.6155  0.5102
  123MOL   C12441848   4.482   0.348   6.522 -0.0266  0.7548 -0.1486
  123MOL   C12541849   4.549   0.227   6.485  0.2675 -0.5016  0.4160
  123MOL   O12641850   4.657   0.236   6.402 -0.6553 -0.2060 -0.0961
  123MOL   C12741851   4.516   0.113   6.553  0.5033  0.8716 -0.1369
  123MOL   C12841852   4.418   0.110   6.649 -0.1599  0.0792 -0.1650
  123MOL   C12941853   4.099   0.216   6.722 -0.2971 -0.2047 -0.5196
  123MOL   H13041854   4.235   0.331   6.829 -0.7660 -0.1788  0.2116
  123MOL   H13141855   4.313   0.433   6.635 -1.3193  0.3028 -0.5893
  123MOL   H13241856   4.515   0.444   6.485 -1.1553  0.2842 -2.4900
  123MOL   H13341857   4.690   0.156   6.363  1.6659  1.1695 -1.1097
  123MOL   H13441858   4.566   0.021   6.529 -1.5338 -0.5073  0.8161
  123MOL   H13541859   4.411   0.024   6.713  2.8088 -0.7399 -0.8297
  123MOL   H13641860   4.091   0.287   6.639  0.1054  0.9612  0.4134
  123MOL   H13741861   4.032   0.250   6.800 -0.2143 -1.5112  0.1281
  123MOL   C13841862   4.059   0.073   6.677  0.8990  0.3656  0.5346
  123MOL   C13941863   4.102   0.035   6.535 -0.1923 -0.4998 -0.4568
  123MOL   C14041864   4.042   0.110   6.431 -0.4667  0.4488 -0.2929
  123MOL   C14141865   4.065   0.082   6.296  0.2253 -0.2847  0.6780
  123MOL   C14241866   4.158   8.019   6.263 -0.0659 -0.0336  0.2662
  123MOL   O14341867   4.184   7.998   6.129  0.1900  0.2370  0.0925
  123MOL   C14441868   4.220   7.944   6.361 -0.6306  0.1126  0.0068
  123MOL   C14541869   4.185   7.968   6.500  0.3966 -0.3001 -0.4796
  123MOL   C14641870   3.906   0.045   6.707  0.1068 -0.3818  0.5923
  123MOL   H14741871   4.110   0.003   6.743  1.6767 -0.2563 -0.6972
  123MOL   H14841872   3.987   0.201   6.446  1.7192  1.6830  0.4219
  123MOL   H14941873   4.018   0.149   6.226  2.3973  0.3890 -0.1540
  123MOL   H15041874   4.225   0.032   6.083 -0.6777  1.4142  1.1308
  123MOL   H15141875   4.300   7.876   6.338 -1.6881 -0.1228 -3.1556
  123MOL   H15241876   4.226   7.908   6.580 -2.6695  0.4246  1.7336
  123MOL   H15341877   3.850   0.132   6.672  0.4413  0.0109  1.0274
  123MOL   H15441878   3.895   0.051   6.815 -2.3639 -1.5682  0.4377
  123MOL   C15541879   3.839   7.956   6.650 -1.1106 -0.3100  0.3545
  123MOL   C15641880   3.692   7.963   6.687 -0.3544 -0.1078 -0.4281
  123MOL   C15741881   3.655   7.937   6.822 -0.4034 -1.1888  0.1745
  123MOL   C15841882   3.519   7.964   6.862 -0.2820 -0.1245  0.2649
  123MOL   C15941883   3.422   8.018   6.780  0.0236  0.5801 -0.6113
  123MOL   O16041884   3.292   8.037   6.814 -1.0076 -0.3727  0.0960
  123MOL   C16141885   3.458   0.005   6.645  0.0753 -0.1880 -0.3263
  123MOL   C16241886   3.590   8.021   6.605 -0.2464  0.1759  0.0891
  123MOL   C16341887   3.894   7.808   6.672  0.6624  0.0292 -0.0121
  123MOL   H16441888   3.838   7.959   6.541 -0.3148  1.1197  0.3792
  123MOL   H16541889   3.726   7.895   6.891  2.0370  1.9306 -0.2779
  123MOL   H16641890   3.498   7.938   6.965  1.8037 -0.0567  0.7358
  123MOL   H16741891   3.234   7.993   6.754 -0.2262  0.3125 -1.2002
  123MOL   H16841892   3.382   0.045   6.580 -0.4539 -0.0087  0.3951
  123MOL   H16941893   3.620   0.003   6.504 -1.1204 -1.6966 -0.5604
  123MOL   H17041894   3.889   7.779   6.777  1.8460 -3.5164 -0.8580
  123MOL   H17141895   3.999   7.812   6.643  1.1412 -2.5989  1.2204
  123MOL   C17241896   3.818   7.703   6.584  0.0415  0.5572 -0.1315
  123MOL   C17341897   3.780   7.574   6.654 -0.5094  0.6300  0.2405
  123MOL   C17441898   3.870   7.506   6.736 -0.5213  0.2173  0.4236
  123MOL   C17541899   3.850   7.380   6.792 -0.1447  0.0187 -0.0195
  123MOL   C17641900   3.714   7.326   6.786  0.0653 -0.6296  0.0571
  123MOL   O17741901   3.669   7.210   6.850 -0.4952  0.2346 -0.2067
  123MOL   C17841902   3.617   7.401   6.715 -0.4432 -0.2746 -0.1952
  123MOL   C17941903   3.649   7.520   6.650 -0.4317 -0.0071 -0.4784
  123MOL   C18041904   3.906   7.678   6.459  0.1972 -0.1682 -0.0308
  123MOL   H18141905   3.727   7.751   6.546  0.6425  2.8843  1.2315
  123MOL   H18241906   3.970   7.549   6.742 -0.3700 -0.2518  1.4664
  123MOL   H18341907   3.928   7.333   6.848 -0.5385 -1.0461 -0.3533
  123MOL   H18441908   3.736   7.154   6.884 -2.9582 -3.3210 -0.9322
  123MOL   H18541909   3.517   7.360   6.718 -0.6442  0.2214 -0.2493
  123MOL   H18641910   3.581   7.579   6.592 -0.3088  1.0949  0.4976
  123MOL   H18741911   3.999   7.628   6.486 -0.0865 -0.1296  1.0274
  123MOL   H18841912   3.948   7.773   6.427  0.7496 -0.7570 -1.0935
  123MOL   C18941913   3.836   7.611   6.339  0.3713  0.3663  0.4340
  123MOL   C19041914   3.737   7.707   6.289  0.2232  0.7726  0.2888
  123MOL   C19141915   3.778   7.824   6.226 -0.0449  0.0159  0.1772
  123MOL   C19241916   3.686   7.914   6.169  0.8244  0.3608  0.0611
  123MOL   C19341917   3.550   7.901   6.193  0.1469  0.2151  0.7299
  123MOL   O19441918   3.479   8.007   6.151  0.8216 -0.0704  0.1528
  123MOL   C19541919   3.502   7.781   6.255  0.1789  0.0486 -0.1152
  123MOL   C19641920   3.598   7.681   6.296  0.2235 -0.2411 -0.3298
  123MOL   C19741921   3.927   7.564   6.225 -0.4953  0.3437  0.5421
  123MOL   H19841922   3.782   7.522   6.370  0.5051  0.8865  2.2196
  123MOL   H19941923   3.879   7.861   6.225 -0.1306  0.2239 -1.2547
  123MOL   H20041924   3.719   8.001   6.114  0.4174  0.3690 -0.1700
  123MOL   H20141925   3.387   7.987   6.145  0.1880  2.3972  1.0731
  123MOL   H20241926   3.396   7.769   6.270  0.8597 -2.4035  3.2889
  123MOL   H20341927   3.563   7.589   6.341 -0.3625  0.0625 -0.1661
  123MOL   H20441928   3.980   7.647   6.178 -1.2264  1.1010  1.0625
  123MOL   H20541929   3.861   7.521   6.150 -0.5583  0.6098  0.4473
  123MOL   C20641930   4.029   7.454   6.260 -0.2263  0.1063  0.4633
  123MOL   C20741931   4.171   7.514   6.268 -0.0884 -0.0790  0.4729
  123MOL   C20841932   4.235   7.532   6.395 -0.1288  0.7570 -0.6140
  123MOL   C20941933   4.364   7.586   6.403 -0.7192  0.0559  0.1621
  123MOL   C21041934   4.439   7.617   6.281  0.7671 -0.5955 -0.4202
  123MOL   O21141935   4.565   7.663   6.282 -0.0585 -0.2418 -0.5154
  123MOL   C21241936   4.373   7.603   6.160  0.7919  0.1974  0.1963
  123MOL   C21341937   4.238   7.553   6.151  0.5907 -0.4863  1.0480
  123MOL   C21441938   4.021   7.344   6.151 -0.2158 -0.2499  0.0560
  123MOL   H21541939   4.005   7.411   6.358  0.5263  1.4632  1.2545
  123MOL   H21641940   4.189   7.503   6.488  1.6074  1.2488  0.4129
  123MOL   H21741941   4.417   7.593   6.496  0.7776 -0.6062 -0.6237
  123MOL   H21841942   4.612   7.675   6.363 -0.9042  1.0791 -0.2164
  123MOL   H21941943   4.424   7.630   6.068  3.1077 -0.1343  1.3607
  123MOL   H22041944   4.188   7.549   6.055 -1.8147 -3.6925  2.3436
  123MOL   H22141945   4.016   7.390   6.052 -0.2470 -0.7981 -0.2033
  123MOL   H22241946   3.920   7.302   6.157 -1.8423  3.1895 -1.6482
  123MOL   C22341947   4.122   7.228   6.166 -0.6049 -0.2175 -0.2855
  123MOL   C22441948   4.085   7.135   6.057  0.0251 -0.3900  0.0231
  123MOL   C22541949   4.158   7.143   5.937 -0.2894  0.3103  0.1129
  123MOL   C22641950   4.117   7.069   5.821  0.1559  0.1946  0.2756
  123MOL   C22741951   4.006   6.980   5.832  0.2494 -0.5919  0.2405
  123MOL   O22841952   3.959   6.910   5.724  0.3678 -0.1391 -0.8304
  123MOL   C22941953   3.946   6.966   5.960 -0.4264 -0.3300  0.9436
  123MOL   C23041954   3.977   7.048   6.071 -0.0751 -0.6248 -0.7092
  123MOL   C23141955   4.112   7.165   6.304  1.0456 -0.1113  0.1190
  123MOL   H23241956   4.229   7.250   6.160 -0.8777  0.5951 -2.6398
  123MOL   H23341957   4.240   7.213   5.938  1.0147 -1.1869  0.9979
  123MOL   H23441958   4.182   7.076   5.735  0.2450 -0.3689  0.2923
  123MOL   H23541959   4.003   6.908   5.640 -0.5074 -0.0568 -1.2987
  123MOL   H23641960   3.872   6.888   5.974 -0.2728 -0.4050  1.3270
  123MOL   H23741961   3.922   7.035   6.163 -1.4401 -0.5368 -1.5003
  123MOL   H23841962   4.137   7.248   6.370  0.6955 -0.4330  0.6605
  123MOL   H23941963   4.007   7.143   6.321  0.9823  1.2520  1.5626
  123MOL   C24041964   4.199   7.049   6.349 -0.6911 -0.3790  0.3359
  123MOL   C24141965   4.352   7.075   6.329 -0.0778  0.2682  0.4170
  123MOL   C24241966   4.429   6.998   6.235 -0.1566  0.3525 -0.0845
  123MOL   C24341967   4.571   7.025   6.226 -0.1105 -0.2109 -0.6428
  123MOL   C24441968   4.625   7.131   6.298 -0.4557 -0.3988  0.9200
  123MOL   O24541969   4.759   7.156   6.278 -0.2567 -0.1231  0.1850
  123MOL   C24641970   4.545   7.217   6.380  0.2078 -0.8948 -0.9970
  123MOL   C24741971   4.412   7.183   6.400  0.2285  0.1150  0.8280
  123MOL   C24841972   4.161   7.015   6.496 -0.6751 -0.6435 -0.1911
  123MOL   H24941973   4.171   6.961   6.292  1.4219 -1.3116  0.7020
  123MOL   H25041974   4.382   6.920   6.176 -0.6712  1.1594 -0.7612
  123MOL   H25141975   4.626   6.976   6.147  1.5871  0.4573  0.0895
  123MOL   H25241976   4.806   7.104   6.216  0.3319  3.2175 -2.2843
  123MOL   H25341977   4.589   7.301   6.431 -0.4831 -1.1698  0.0445
  123MOL   H25441978   4.358   7.248   6.467  1.9825  1.1057  1.2929
  123MOL   H25541979   4.242   7.035   6.566  0.4896  2.2290 -2.2659
  123MOL   H25641980   4.079   7.079   6.529  0.1019  0.8418 -1.0671
  123MOL   C25741981   4.134   6.863   6.526  0.0519 -0.4150 -0.3544
  123MOL   C25841982   3.996   6.841   6.474  0.2002 -0.4554 -0.1771
  123MOL   C25941983   3.956   6.783   6.352 -0.5148 -0.0760 -0.2179
  123MOL   C26041984   3.818   6.769   6.310  0.6713 -0.1103 -0.3945
  123MOL   C26141985   3.716   6.801   6.402 -0.0338 -0.3404 -0.7151
  123MOL   O26241986   3.582   6.798   6.377  0.0823  0.0378 -0.6742
  123MOL   C26341987   3.753   6.851   6.532  0.0883  0.6380 -0.9246
  123MOL   C26441988   3.891   6.866   6.567 -0.7413 -0.4476  1.0034
  123MOL   C26541989   4.242   6.760   6.474  0.1447  0.9343 -0.1946
  123MOL   H26641990   4.140   6.849   6.634  1.5783 -0.3639 -0.4245
  123MOL   H26741991   4.033   6.759   6.280  0.6957  2.4455  0.1654
  123MOL   H26841992   3.794   6.737   6.209 -0.8392  2.2119 -0.8179
  123MOL   H26941993   3.560   6.781   6.286 -2.3296  2.2873 -0.5556
  123MOL   H27041994   3.668   6.885   6.589 -0.4715 -0.0385 -1.3350
  123MOL   H27141995   3.923   6.917   6.657  1.0671  0.8236 -0.3323
  123MOL   H27241996   4.293   6.787   6.382 -0.7609 -0.6482 -1.1826
  123MOL   H27341997   4.204   6.663   6.441  1.3922 -0.4780  2.3247
  123MOL   C27441998   4.340   6.712   6.577  0.1725 -0.6442 -0.0252
  123MOL   C27541999   4.476   6.690   6.523 -0.1469 -0.0864  0.2198
  123MOL   C27642000   4.516   6.564   6.471  0.4880  0.3424 -0.4769
  123MOL   C27742001   4.656   6.556   6.432 -0.5062 -0.1595 -0.2222
  123MOL   C27842002   4.749   6.662   6.444  0.3576 -0.5727 -0.4703
  123MOL   O27942003   4.878   6.651   6.411 -0.0615 -0.1696  0.1734
  123MOL   C28042004   4.699   6.788   6.485  0.8219 -0.1991 -0.0589
  123MOL   C28142005   4.561   6.799   6.522 -1.1243  0.5947 -0.1066
  123MOL   C28242006   4.276   6.590   6.652  0.4857  0.0152  0.0650
  123MOL   H28342007   4.355   6.789   6.652 -1.0262  1.3337 -1.7806
  123MOL   H28442008   4.452   6.479   6.452 -0.8517  0.9539  1.1321
  123MOL   H28542009   4.693   6.468   6.381  0.3131  1.3295 -2.2594
  123MOL   H28642010   4.902   6.565   6.442 -0.0233 -1.6089 -3.5623
  123MOL   H28742011   4.766   6.872   6.494  0.9778  0.0467 -2.8764
  123MOL   H28842012   4.538   6.900   6.553 -0.4591  1.0725 -1.1609
  123MOL   H28942013   4.172   6.602   6.680 -0.3379 -0.4844 -2.5645
  123MOL   H29042014   4.277   6.507   6.581 -0.2772  0.5972 -0.6429
  123MOL   C29142015   4.344   6.535   6.783 -0.3675 -0.3294  1.1998
  123MOL   C29242016   4.289   6.403   6.833 -0.6018 -0.5827 -0.3032
  123MOL   C29342017   4.158   6.395   6.887 -0.3477  0.2245 -0.0570
  123MOL   C29442018   4.092   6.274   6.897  0.5717  0.0105 -0.4099
  123MOL   C29542019   4.168   6.153   6.872 -0.2877 -0.7526 -0.6744
  123MOL   O29642020   4.107   6.030   6.881  0.0107  0.5748 -0.1318
  123MOL   C29742021   4.306   6.162   6.838 -0.2586  0.8676 -0.0857
  123MOL   C29842022   4.366   6.287   6.814 -0.1215  0.3175 -0.4052
  123MOL   C29942023   4.348   6.636   6.897  0.0340  0.1847  0.7589
  123MOL   H30042024   4.448   6.522   6.753 -1.3404 -3.0044 -1.2467
  123MOL   H30142025   4.102   6.485   6.905 -0.4017  0.5526 -1.7901
  123MOL   H30242026   3.990   6.272   6.932  0.3845  0.4280 -0.9215
  123MOL   H30342027   4.154   5.967   6.828 -1.9303 -3.3205  2.5084
  123MOL   H30442028   4.365   6.074   6.815 -0.8741  0.7041 -1.0621
  123MOL   H30542029   4.466   6.299   6.775 -0.1114 -0.6209 -0.6900
  123MOL   H30642030   4.245   6.659   6.923  0.0195 -0.5177  1.3338
  123MOL   H30742031   4.394   6.731   6.868 -3.4101  1.1652 -1.8403
  123MOL   C30842032   4.445   6.601   7.011  0.0890  0.1533 -0.0741
  123MOL   C30942033   4.400   6.655   7.144 -0.1246  0.2858 -0.8580
  123MOL   C31042034   4.344   6.564   7.239 -0.6290 -0.4966  0.1571
  123MOL   C31142035   4.288   6.622   7.357 -0.4624 -0.1025  0.0556
  123MOL   C31242036   4.291   6.759   7.389 -0.0079  0.0800 -0.3031
  123MOL   O31342037   4.257   6.801   7.512  0.3897 -0.3334 -0.8428
  123MOL   C31442038   4.346   6.846   7.291  0.1379  0.1888 -0.9434
  123MOL   C31542039   4.406   6.795   7.169  0.0073  0.2652 -0.6750
  123MOL   C31642040   4.589   6.636   6.967  0.0220 -0.5213 -0.8895
  123MOL   H31742041   4.442   6.493   6.995  2.3468  0.2266 -1.0960
  123MOL   H31842042   4.347   6.457   7.226  2.6845 -0.5309  0.7732
  123MOL   H31942043   4.249   6.541   7.416  0.1110 -0.0670  0.4898
  123MOL   H32042044   4.184   6.752   7.547  1.0094 -0.6455  0.0435
  123MOL   H32142045   4.360   6.950   7.319  1.2618 -0.6134  1.6419
  123MOL   H32242046   4.442   6.866   7.097 -0.2219  0.1458 -0.9080
  123MOL   H32342047   4.612   6.742   6.975 -0.6759 -0.3407 -1.2448
  123MOL   H32442048   4.596   6.612   6.861  0.4735 -0.1752 -0.9337
  123MOL   C32542049   4.701   6.560   7.043 -0.5824 -0.3861 -0.1612
  123MOL   C32642050   4.846   6.589   6.996  0.5765 -0.3490  0.6158
  123MOL   C32742051   4.953   6.612   7.087  0.7494  0.5112  0.9323
  123MOL   C32842052   5.084   6.624   7.035  0.3148 -0.6566  0.2114
  123MOL   C32942053   5.104   6.638   6.896 -0.1245  0.2180 -0.4368
  123MOL   O33042054   5.228   6.665   6.854 -0.3679  0.1619  0.3406
  123MOL   C33142055   4.999   6.632   6.802 -0.0674 -0.5683 -0.1911
  123MOL   C33242056   4.874   6.601   6.855  0.1028  0.2429 -0.1254
  123MOL   C33342057   4.683   6.414   7.056  0.1578 -0.7116 -0.1927
  123MOL   H33442058   4.691   6.602   7.143  0.8035  1.2520 -0.6736
  123MOL   H33542059   4.947   6.613   7.195 -0.4958 -1.3781  0.8961
  123MOL   H33642060   5.170   6.623   7.099  1.6098  0.7911 -1.4705
  123MOL   H33742061   5.291   6.626   6.912  2.5250 -1.5610 -3.7785
  123MOL   H33842062   5.016   6.633   6.695 -0.0029 -1.0909 -0.1845
  123MOL   H33942063   4.802   6.578   6.778 -1.0689 -0.2063  1.0835
  123MOL   H34042064   4.598   6.395   7.122  1.2529  2.5998  2.3255
  123MOL   H34142065   4.752   6.354   7.115 -1.2259 -0.4668  1.7248
  123MOL   H34242066   4.679   6.358   6.962  2.1907 -0.2525 -0.5557
  124MOL     C142067   7.578   1.791   5.854 -0.2408 -0.4119 -1.0438
  124MOL     C242068   7.650   1.925   5.829 -0.4066  0.3479 -0.0431
  124MOL     C342069   7.741   1.989   5.924 -0.2404 -0.1547  0.0916
  124MOL     C442070   7.794   2.116   5.893  0.6139  0.5365  0.1194
  124MOL     C542071   7.769   2.168   5.761  0.1994 -1.1723  0.0184
  124MOL     O642072   7.829   2.282   5.714 -0.6396 -0.1291  0.5185
  124MOL     C742073   7.670   2.116   5.680 -0.7057  0.2153  0.6374
  124MOL     C842074   7.612   1.998   5.715  0.0026  0.2579  0.4857
  124MOL     C942075   7.672   1.674   5.896  1.3615 -0.1615  0.4946
  124MOL    H1042076   7.504   1.799   5.934 -0.7415 -0.3167 -1.5162
  124MOL    H1142077   7.764   1.935   6.015 -3.0428  1.9279  2.1189
  124MOL    H1242078   7.865   2.168   5.954  0.5768  1.8803 -0.9466
  124MOL    H1342079   7.862   2.276   5.626 -2.7191 -0.5399 -0.2593
  124MOL    H1442080   7.645   2.166   5.587  0.5275  1.1226  0.7725
  124MOL    H1542081   7.538   1.957   5.649 -0.1272 -3.7472  2.9205
  124MOL    H1642082   7.726   1.705   5.986  1.0698  1.6153  0.0901
  124MOL    H1742083   7.759   1.670   5.830 -0.8977  0.7262 -2.6456
  124MOL    H1842084   7.520   1.753   5.771  2.0975 -3.5864 -1.2947
  124MOL    C1942085   7.604   1.533   5.912 -0.1176 -0.0990 -0.3169
  124MOL    C2042086   7.491   1.548   6.015  0.0165  0.3977  0.0024
  124MOL    C2142087   7.362   1.521   5.978 -0.5413  0.0119 -0.3058
  124MOL    C2242088   7.255   1.548   6.068  0.6061  0.2960  0.4624
  124MOL    C2342089   7.282   1.597   6.196  0.2021 -0.3815 -0.6969
  124MOL    O2442090   7.177   1.624   6.275  0.4635 -0.3538 -0.1649
  124MOL    C2542091   7.415   1.637   6.228 -0.5655  0.3358  0.3871
  124MOL    C2642092   7.516   1.607   6.138  0.1702  0.4593 -0.2158
  124MOL    C2742093   7.709   1.432   5.964  0.1143  0.5103 -0.0551
  124MOL    H2842094   7.578   1.511   5.808  2.9673  4.4849 -2.2460
  124MOL    H2942095   7.350   1.499   5.873 -0.7837 -2.9797  0.3029
  124MOL    H3042096   7.157   1.531   6.025  0.1560  2.0236  0.7613
  124MOL    H3142097   7.091   1.616   6.237  0.4637 -0.1626 -0.2067
  124MOL    H3242098   7.431   1.690   6.321  3.7855 -0.1891  0.0119
  124MOL    H3342099   7.618   1.635   6.160  0.2834 -0.4109  0.3920
  124MOL    H3442100   7.686   1.403   6.066 -0.2118 -3.6368 -1.2212
  124MOL    H3542101   7.812   1.468   5.968  0.4179 -0.4496  1.1831
  124MOL    C3642102   7.726   1.298   5.887 -0.2521 -0.4524 -0.0206
  124MOL    C3742103   7.592   1.224   5.882 -0.1241 -0.3352  0.0120
  124MOL    C3842104   7.535   1.167   5.999 -0.0425 -0.0693  0.8058
  124MOL    C3942105   7.414   1.089   5.988 -0.2911 -0.2779 -0.0633
  124MOL    C4042106   7.361   1.072   5.858  0.0957  0.0087  0.2428
  124MOL    O4142107   7.248   1.001   5.837  0.0098  0.5189 -0.0637
  124MOL    C4242108   7.408   1.145   5.741  0.3521  0.3655  0.2986
  124MOL    C4342109   7.526   1.218   5.757 -0.0629 -0.0583 -0.2062
  124MOL    C4442110   7.844   1.216   5.943 -0.2081  0.2797 -0.7570
  124MOL    H4542111   7.750   1.326   5.785  0.9924  0.1484  0.4307
  124MOL    H4642112   7.569   1.171   6.101 -1.9906  0.4139  1.4551
  124MOL    H4742113   7.367   1.046   6.075 -0.8931  1.1662  0.3534
  124MOL    H4842114   7.180   0.984   5.901 -0.0146 -1.3849 -0.5685
  124MOL    H4942115   7.361   1.136   5.644 -0.1811  1.1370  0.4811
  124MOL    H5042116   7.576   1.259   5.670  1.6393 -0.6783  0.4638
  124MOL    H5142117   7.936   1.272   5.928 -0.9438  1.3714 -1.2191
  124MOL    H5242118   7.831   1.197   6.050  1.6850  1.7102 -0.2347
  124MOL    C5342119   7.868   1.082   5.869  0.5095  1.3190  0.3471
  124MOL    C5442120   7.843   1.073   5.719  0.6672  0.4646  0.1195
  124MOL    C5542121   7.919   1.153   5.630 -0.0787 -0.2664  0.2630
  124MOL    C5642122   7.901   1.146   5.491 -0.5710  0.0596  0.6054
  124MOL    C5742123   7.802   1.067   5.434 -0.0443  0.3417  0.5402
  124MOL    O5842124   7.794   1.067   5.293 -0.1677 -0.1359  0.2620
  124MOL    C5942125   7.713   0.995   5.517  0.5977 -0.3882 -0.4463
  124MOL    C6042126   7.743   0.990   5.659  0.7036  0.3397  0.1597
  124MOL    C6142127   7.990   0.999   5.930  0.1288 -0.1774  0.1670
  124MOL    H6242128   7.780   1.034   5.910  0.5293  0.2360 -0.8317
  124MOL    H6342129   7.984   1.223   5.680 -1.4435  0.5764  0.9094
  124MOL    H6442130   7.970   1.203   5.431  2.2471 -1.5275  2.2122
  124MOL    H6542131   7.782   0.979   5.260  2.2221 -1.0120  1.6030
  124MOL    H6642132   7.631   0.936   5.480 -0.8960  0.8137  0.8690
  124MOL    H6742133   7.689   0.934   5.734  0.0280 -0.6576 -1.0521
  124MOL    H6842134   7.981   1.000   6.038  1.9787  0.4639  0.3264
  124MOL    H6942135   0.045   1.052   5.909  0.7728 -0.7348  1.5777
  124MOL    C7042136   8.003   0.855   5.879 -0.0019 -0.2770  0.1320
  124MOL    C7142137   7.904   0.762   5.956 -0.5287  0.6602  0.0554
  124MOL    C7242138   7.908   0.742   6.091 -0.2432 -0.5174  0.3063
  124MOL    C7342139   7.826   0.647   6.158  0.3946 -0.7167  0.8066
  124MOL    C7442140   7.741   0.561   6.088  0.1910 -0.5139 -0.0979
  124MOL    O7542141   7.673   0.453   6.142  0.3977  0.0791 -0.3899
  124MOL    C7642142   7.730   0.578   5.945 -0.2545  0.2631  0.1985
  124MOL    C7742143   7.803   0.682   5.886  0.0553  0.0496 -0.3535
  124MOL    C7842144   0.108   0.802   5.887 -0.5678 -0.6918 -0.1165
  124MOL    H7942145   7.967   0.855   5.776  1.1790  1.1120 -0.3060
  124MOL    H8042146   7.969   0.801   6.158  1.0782 -1.5928  0.0875
  124MOL    H8142147   7.831   0.646   6.266 -0.7508 -1.3363  0.8688
  124MOL    H8242148   7.665   0.472   6.234  1.3129 -0.6776 -0.1428
  124MOL    H8342149   7.678   0.507   5.882  0.6260  1.4461 -1.8897
  124MOL    H8442150   7.798   0.693   5.779 -0.7823  1.0237 -0.2237
  124MOL    H8542151   0.108   0.693   5.883 -1.8553 -0.6839 -0.5158
  124MOL    H8642152   0.154   0.824   5.984  0.5824  2.2495 -1.2736
  124MOL    C8742153   0.210   0.850   5.780  0.3044  0.3723  0.0021
  124MOL    C8842154   0.178   0.777   5.644 -0.1348 -0.0699 -0.4210
  124MOL    C8942155   0.224   0.642   5.626 -0.2249  0.1263 -0.5555
  124MOL    C9042156   0.187   0.571   5.508 -0.4502  0.2541 -0.1482
  124MOL    C9142157   0.097   0.628   5.416 -0.4341  0.4995 -0.0576
  124MOL    O9242158   0.052   0.546   5.315 -0.0113  0.3513 -0.1928
  124MOL    C9342159   0.055   0.758   5.441 -0.4732  0.2978 -0.6331
  124MOL    C9442160   0.094   0.834   5.552 -0.2598 -0.1294  0.3536
  124MOL    C9542161   0.350   0.835   5.833 -0.1886 -0.1316  0.2139
  124MOL    H9642162   0.186   0.954   5.757 -0.3710  0.4051  0.8142
  124MOL    H9742163   0.278   0.589   5.703  1.9195  3.3355  0.2407
  124MOL    H9842164   0.200   0.465   5.492 -1.6860  0.3004 -1.6701
  124MOL    H9942165   8.007   0.576   5.282  1.3830  2.2133 -2.1762
  124MOL   H10042166   8.025   0.811   5.375  1.3985  0.4076 -2.5377
  124MOL   H10142167   0.056   0.935   5.551  0.0975  0.0026 -0.2073
  124MOL   H10242168   0.372   0.902   5.916 -0.3672  0.2189 -0.0167
  124MOL   H10342169   0.352   0.730   5.860 -0.5348 -0.2108 -0.0625
  124MOL   C10442170   0.472   0.854   5.732 -0.2601  0.2590 -0.0216
  124MOL   C10542171   0.590   0.771   5.788  0.0412 -0.2648 -0.7011
  124MOL   C10642172   0.579   0.633   5.793  0.0982 -0.0756  0.5651
  124MOL   C10742173   0.687   0.552   5.822 -0.1503 -0.0484  1.2256
  124MOL   C10842174   0.811   0.612   5.860 -0.2723 -0.5298 -0.5490
  124MOL   O10942175   0.920   0.540   5.893  0.3057  0.2587  0.4753
  124MOL   C11042176   0.812   0.753   5.872 -0.1557 -0.3919  0.5850
  124MOL   C11142177   0.703   0.833   5.837 -0.4437  0.0208  0.1422
  124MOL   C11242178   0.500   1.006   5.703 -0.2718  0.3712  0.4657
  124MOL   H11342179   0.446   0.803   5.640 -1.7902  0.6911  0.1590
  124MOL   H11442180   0.491   0.585   5.752 -0.2955  0.4839  0.7569
  124MOL   H11542181   0.676   0.445   5.810 -1.9750  0.2675 -0.2765
  124MOL   H11642182   0.913   0.456   5.936 -1.6508 -0.1071 -0.5269
  124MOL   H11742183   0.905   0.799   5.900  1.0529 -1.7359 -1.1868
  124MOL   H11842184   0.705   0.941   5.842 -1.5545  0.0983 -0.8556
  124MOL   H11942185   0.551   1.063   5.781 -0.5361 -0.2327  1.0776
  124MOL   H12042186   0.410   1.067   5.704 -1.4037 -1.2986  1.6255
  124MOL   C12142187   0.557   1.024   5.561 -0.3128 -1.3175 -0.1203
  124MOL   C12242188   0.462   0.981   5.444 -0.2598  0.2442  0.4899
  124MOL   C12342189   0.468   0.852   5.387 -0.2200  0.1945  0.3381
  124MOL   C12442190   0.385   0.822   5.277 -0.5974  0.8781  0.1118
  124MOL   C12542191   0.290   0.912   5.226  0.8373  0.6944 -0.5258
  124MOL   O12642192   0.215   0.886   5.115  0.1360 -0.3670 -0.3631
  124MOL   C12742193   0.282   1.033   5.292 -0.2423 -0.9450  0.4102
  124MOL   C12842194   0.366   1.069   5.396 -0.0008  0.1180  0.1390
  124MOL   C12942195   0.607   1.172   5.539 -0.4097 -0.6716  0.7199
  124MOL   H13042196   0.653   0.971   5.564  1.6228  1.9079 -2.0576
  124MOL   H13142197   0.545   0.781   5.413 -0.6521 -0.6132 -0.5466
  124MOL   H13242198   0.379   0.728   5.224  2.1963  0.6416  0.1438
  124MOL   H13342199   0.156   0.953   5.087 -3.0039 -2.7703  0.2570
  124MOL   H13442200   0.223   1.117   5.259 -1.1754 -1.6377  0.3070
  124MOL   H13542201   0.364   1.167   5.441  2.4907  0.4013 -0.2871
  124MOL   H13642202   0.557   1.230   5.616 -0.3521  1.1159 -0.5424
  124MOL   H13742203   0.569   1.211   5.444 -2.2542 -0.4012  1.5532
  124MOL   C13842204   0.758   1.207   5.556  0.1492 -0.1198  1.1819
  124MOL   C13942205   0.777   1.344   5.625 -0.3080 -0.3074 -0.6570
  124MOL   C14042206   0.711   1.470   5.594 -0.0302  0.3133  0.3680
  124MOL   C14142207   0.739   1.589   5.666  0.1060 -0.1645 -0.0162
  124MOL   C14242208   0.828   1.578   5.776  0.0614  0.1639  0.4366
  124MOL   O14342209   0.862   1.686   5.850 -0.2228  0.2830 -0.4480
  124MOL   C14442210   0.894   1.461   5.799  0.3161  0.5324 -0.0227
  124MOL   C14542211   0.869   1.347   5.729  1.2384  0.1194  0.0284
  124MOL   C14642212   0.835   1.205   5.419  0.2606 -0.0327 -0.8209
  124MOL   H14742213   0.807   1.141   5.628 -1.2940 -1.2243  1.1868
  124MOL   H14842214   0.641   1.471   5.512 -1.3220 -0.2504  1.4469
  124MOL   H14942215   0.688   1.683   5.648 -0.3553 -0.2020  1.0695
  124MOL   H15042216   0.941   1.670   5.899 -1.2408  1.2706  1.5994
  124MOL   H15142217   0.967   1.445   5.877 -1.1448 -3.0791  0.7099
  124MOL   H15242218   0.909   1.253   5.766  0.2935 -0.0749  0.5707
  124MOL   H15342219   0.928   1.261   5.421  0.5086 -0.4268 -1.1697
  124MOL   H15442220   0.771   1.265   5.355 -1.2008 -0.4821  0.2022
  124MOL   C15542221   0.867   1.073   5.353  0.3055 -0.0977 -0.1956
  124MOL   C15642222   0.930   0.970   5.452 -0.1043  0.7855 -0.1635
  124MOL   C15742223   1.058   0.986   5.516  0.2673  0.1403 -0.0279
  124MOL   C15842224   1.107   0.882   5.603  0.2242  0.8805 -0.2841
  124MOL   C15942225   1.037   0.766   5.616  1.1816 -0.2154  0.1913
  124MOL   O16042226   1.082   0.666   5.699  0.3590 -1.2008  0.4495
  124MOL   C16142227   0.913   0.740   5.551 -0.4793  0.8133 -0.0732
  124MOL   C16242228   0.867   0.844   5.467  0.9728 -0.3421  0.4716
  124MOL   C16342229   0.946   1.087   5.227  0.2348 -0.1122 -0.0966
  124MOL   H16442230   0.773   1.034   5.314 -0.4082  1.5142 -0.1283
  124MOL   H16542231   1.115   1.078   5.512  0.9034 -0.2955 -1.1793
  124MOL   H16642232   1.190   0.904   5.669 -1.2188  0.7502  1.6410
  124MOL   H16742233   1.011   0.618   5.738 -0.4828  0.8607  1.5299
  124MOL   H16842234   0.853   0.650   5.559 -0.7292  0.9872  0.0070
  124MOL   H16942235   0.775   0.819   5.417  0.2560 -0.1121  1.6410
  124MOL   H17042236   1.050   1.117   5.242  0.6375 -2.2744  1.5799
  124MOL   H17142237   0.905   1.180   5.186  1.4508  0.7651  0.6242
  124MOL   C17242238   0.940   0.975   5.125  0.6640 -0.2216 -0.6432
  124MOL   C17342239   1.019   0.850   5.149 -0.3567  0.8767  0.5288
  124MOL   C17442240   0.963   0.719   5.125  0.7112 -0.9038  0.4216
  124MOL   C17542241   1.027   0.602   5.167  0.5979  0.2273 -0.0437
  124MOL   C17642242   1.160   0.607   5.216  0.1103 -0.4555  0.1333
  124MOL   O17742243   1.227   0.492   5.248 -0.0353  0.8402  0.4651
  124MOL   C17842244   1.219   0.733   5.233  0.1013 -0.2486 -0.0203
  124MOL   C17942245   1.157   0.853   5.196 -0.3016 -0.3701 -0.4662
  124MOL   C18042246   0.981   1.031   4.983  0.1774  0.8184  0.4997
  124MOL   H18142247   0.837   0.941   5.111  0.6675  0.5858 -2.8576
  124MOL   H18242248   0.868   0.706   5.076  1.5059  0.4322 -1.5371
  124MOL   H18342249   0.979   0.507   5.148 -0.8327  0.0232  4.1955
  124MOL   H18442250   1.271   0.505   5.330  0.7090 -1.2793  0.4183
  124MOL   H18542251   1.313   0.751   5.283 -2.0578  1.1202  3.8180
  124MOL   H18642252   1.204   0.942   5.234 -0.4818 -0.8390  0.8756
  124MOL   H18742253   1.088   1.055   4.987  0.3603  0.0230  0.3437
  124MOL   H18842254   0.946   1.135   4.984 -2.3792 -0.0234  0.8524
  124MOL   C18942255   0.926   0.967   4.853 -0.4145  0.8962 -0.5332
  124MOL   C19042256   0.783   0.925   4.881 -0.1136 -0.1236  0.1994
  124MOL   C19142257   0.686   1.019   4.918  0.0634 -0.6974  0.1373
  124MOL   C19242258   0.552   0.985   4.923  0.2237 -0.2086 -0.2407
  124MOL   C19342259   0.507   0.854   4.913  0.2646  0.1106  0.3110
  124MOL   O19442260   0.375   0.830   4.915 -0.1211  0.5323  0.9988
  124MOL   C19542261   0.603   0.756   4.893 -0.0148 -0.2695  0.0715
  124MOL   C19642262   0.738   0.790   4.878 -0.4240 -0.0194  0.6805
  124MOL   C19742263   0.943   1.063   4.735 -0.0794  0.0913  0.4175
  124MOL   H19842264   0.985   0.877   4.836  3.3758  2.5361  3.1702
  124MOL   H19942265   0.718   1.122   4.921  1.9929 -1.3057  1.1203
  124MOL   H20042266   0.481   1.065   4.939  0.4739 -0.0828  0.2612
  124MOL   H20142267   0.347   0.850   5.003 -0.4362 -0.4665  1.1257
  124MOL   H20242268   0.575   0.652   4.885 -0.5242 -0.2130  1.0608
  124MOL   H20342269   0.806   0.709   4.855 -1.6392 -0.4751 -1.4511
  124MOL   H20442270   1.042   1.061   4.691 -0.7492 -2.6333 -1.0821
  124MOL   H20542271   0.937   1.166   4.770  0.4316  0.0773  0.5461
  124MOL   C20642272   0.842   1.067   4.611 -0.2222 -0.0852 -0.2358
  124MOL   C20742273   0.826   0.929   4.541  0.8069  0.1262 -0.0713
  124MOL   C20842274   0.933   0.860   4.472 -0.2690  0.0906  0.9542
  124MOL   C20942275   0.908   0.738   4.407 -0.5110  0.1051  0.6047
  124MOL   C21042276   0.782   0.680   4.420 -0.3075 -0.9379  0.6968
  124MOL   O21142277   0.753   0.568   4.351  0.1362 -0.3544 -0.0096
  124MOL   C21242278   0.678   0.746   4.483  0.1183  0.5057 -0.0251
  124MOL   C21342279   0.700   0.869   4.546 -0.7275  0.4238 -0.1500
  124MOL   C21442280   0.871   1.180   4.509  0.6159 -0.9485  1.3368
  124MOL   H21542281   0.744   1.086   4.654  0.1824 -1.1009  1.1636
  124MOL   H21642282   1.026   0.914   4.465 -0.5527  0.5688  0.8097
  124MOL   H21742283   0.988   0.688   4.354 -0.3949  0.9794 -0.0605
  124MOL   H21842284   0.667   0.532   4.361 -0.5878 -0.1065 -4.1815
  124MOL   H21942285   0.588   0.689   4.495  1.2251 -1.3242 -0.1692
  124MOL   H22042286   0.621   0.913   4.605 -0.8125  0.4873 -0.3116
  124MOL   H22142287   0.972   1.159   4.473  0.1729 -0.6818 -0.0882
  124MOL   H22242288   0.887   1.272   4.566  0.9937 -0.8727  1.1072
  124MOL   C22342289   0.771   1.188   4.399  0.2892 -0.2176 -0.1363
  124MOL   C22442290   0.834   1.239   4.272 -0.1609  1.1979  0.6544
  124MOL   C22542291   0.810   1.181   4.145  0.0906  0.5536  1.4316
  124MOL   C22642292   0.870   1.227   4.028  0.8850 -0.4050 -0.2340
  124MOL   C22742293   0.943   1.341   4.029  0.4300 -0.1105 -0.2826
  124MOL   O22842294   1.000   1.384   3.912  0.1620 -0.6053 -0.7444
  124MOL   C22942295   0.965   1.412   4.151 -0.2041  0.3376 -0.1942
  124MOL   C23042296   0.904   1.364   4.275  0.0544  0.2178  1.0915
  124MOL   C23142297   0.650   1.280   4.442 -0.1499  0.6539 -0.4768
  124MOL   H23242298   0.723   1.093   4.376 -2.2492  1.0595 -0.3077
  124MOL   H23342299   0.767   1.081   4.142 -0.0585  0.6598 -0.1954
  124MOL   H23442300   0.854   1.175   3.935 -0.6820 -0.9978  0.3410
  124MOL   H23542301   1.020   1.476   3.908 -1.8456  0.0471  2.4470
  124MOL   H23642302   1.023   1.503   4.158  2.1007 -0.9194 -2.3530
  124MOL   H23742303   0.939   1.422   4.360 -0.7407  2.1777  0.1162
  124MOL   H23842304   0.615   1.244   4.539 -0.3317  2.6967  0.2274
  124MOL   H23942305   0.679   1.384   4.453 -1.3488  0.9558 -0.0306
  124MOL   C24042306   0.534   1.282   4.343 -0.0557 -0.1506 -0.1604
  124MOL   C24142307   0.475   1.147   4.347 -0.0511  0.2218  0.1890
  124MOL   C24242308   0.404   1.106   4.462  0.0241 -0.2622  0.0193
  124MOL   C24342309   0.360   0.971   4.480 -0.5050  1.0633 -0.7943
  124MOL   C24442310   0.387   0.874   4.379 -0.3438 -0.3664  0.0493
  124MOL   O24542311   0.350   0.745   4.406  0.6219  0.1930 -0.1809
  124MOL   C24642312   0.453   0.911   4.261  0.2571 -0.7931 -0.1720
  124MOL   C24742313   0.482   1.047   4.246  0.7916 -0.0818 -0.3313
  124MOL   C24842314   0.436   1.397   4.376  0.2316 -0.6673 -0.2452
  124MOL   H24942315   0.560   1.302   4.239 -0.6147  2.3026  0.1543
  124MOL   H25042316   0.370   1.183   4.530  3.4835  1.6087 -0.2261
  124MOL   H25142317   0.306   0.944   4.570 -0.9658  0.7945 -1.1496
  124MOL   H25242318   0.310   0.747   4.492  0.3256  0.8621 -0.3313
  124MOL   H25342319   0.455   0.845   4.175 -0.2693 -0.8008 -0.1810
  124MOL   H25442320   0.511   1.083   4.148  2.2261 -1.9481 -0.6303
  124MOL   H25542321   0.333   1.362   4.365  0.0087  0.2063 -1.0276
  124MOL   H25642322   0.450   1.431   4.478  1.2423  0.4162 -0.7388
  124MOL   C25742323   0.452   1.528   4.291  0.1642 -0.9493 -0.2746
  124MOL   C25842324   0.307   1.586   4.284 -0.8816 -0.1461 -0.5172
  124MOL   C25942325   0.225   1.557   4.172  0.0923  0.6280 -0.4344
  124MOL   C26042326   0.099   1.619   4.155  0.2751 -0.6803 -0.2593
  124MOL   C26142327   0.052   1.709   4.253 -0.2316  0.0306 -0.2515
  124MOL   O26242328   7.974   1.776   4.239 -0.7961 -0.5502 -0.5838
  124MOL   C26342329   0.142   1.748   4.355 -0.3117  0.5507  0.2432
  124MOL   C26442330   0.267   1.686   4.376  0.5514  0.1802  0.4722
  124MOL   C26542331   0.564   1.629   4.344  0.3789 -0.0549 -0.0017
  124MOL   H26642332   0.482   1.498   4.190 -0.4205 -0.6676 -0.5327
  124MOL   H26742333   0.259   1.489   4.095 -2.4116 -1.2106  0.0421
  124MOL   H26842334   0.048   1.611   4.060 -3.3852  1.3192  1.3982
  124MOL   H26942335   7.971   1.853   4.294  0.1947  0.5251 -2.0162
  124MOL   H27042336   0.126   1.833   4.419  1.0577  2.0574 -1.3847
  124MOL   H27142337   0.329   1.724   4.455  1.7626 -1.3300  0.2790
  124MOL   H27242338   0.658   1.575   4.349  0.4486 -0.0172 -0.9072
  124MOL   H27342339   0.547   1.662   4.447 -3.4270 -1.5670 -0.0680
  124MOL   C27442340   0.578   1.757   4.267 -0.2874 -0.7098 -0.5372
  124MOL   C27542341   0.583   1.712   4.116 -0.1701 -0.3738 -0.2459
  124MOL   C27642342   0.472   1.740   4.025 -0.1707 -0.3053 -0.4640
  124MOL   C27742343   0.471   1.696   3.892 -0.0562  0.3936 -0.3879
  124MOL   C27842344   0.581   1.616   3.854 -0.9410  0.3369  0.2267
  124MOL   O27942345   0.612   1.583   3.728  0.1363 -0.2927 -0.1459
  124MOL   C28042346   0.681   1.579   3.938 -0.8042  0.1828 -0.3229
  124MOL   C28142347   0.685   1.627   4.070  0.2543  0.1935  0.4523
  124MOL   C28242348   0.700   1.835   4.306  0.7763  0.1299  0.4358
  124MOL   H28342349   0.492   1.820   4.289  1.3900  1.5159 -0.2040
  124MOL   H28442350   0.394   1.805   4.062  1.8645  1.1810  1.3695
  124MOL   H28542351   0.400   1.721   3.814 -0.2357 -1.0609 -0.7103
  124MOL   H28642352   0.538   1.575   3.671 -0.2204 -0.0040  0.2742
  124MOL   H28742353   0.758   1.512   3.904 -0.6973 -0.0735  0.4112
  124MOL   H28842354   0.756   1.597   4.145  0.8344  0.6974  0.1063
  124MOL   H28942355   0.692   1.865   4.411 -0.6051  0.4239  0.2615
  124MOL   H29042356   0.796   1.785   4.297  1.1529  0.9927 -0.4232
  124MOL   C29142357   0.719   1.973   4.230 -0.1303 -0.1578 -0.2384
  124MOL   C29242358   0.798   1.958   4.101  0.0647 -0.1480 -0.4646
  124MOL   C29342359   0.739   1.985   3.977 -0.3082 -0.2182  0.0920
  124MOL   C29442360   0.801   1.952   3.856 -0.4614 -0.3771 -0.3147
  124MOL   C29542361   0.943   1.922   3.865 -0.7149 -0.3080  0.2096
  124MOL   O29642362   1.029   1.902   3.755 -0.8362 -0.2469 -0.6666
  124MOL   C29742363   1.010   1.909   3.990  0.1080 -0.2264 -0.5496
  124MOL   C29842364   0.936   1.932   4.106 -0.5835 -1.0849 -0.7795
  124MOL   C29942365   0.771   2.088   4.320 -0.4633 -0.0913 -0.3176
  124MOL   H30042366   0.615   1.989   4.201 -0.0142 -0.9987 -1.1403
  124MOL   H30142367   0.637   2.019   3.968  0.2304  1.2183 -0.6700
  124MOL   H30242368   0.757   1.965   3.758 -1.1918 -0.1038  0.0550
  124MOL   H30342369   1.016   1.966   3.686 -1.5918 -0.2913 -0.5646
  124MOL   H30442370   1.109   1.866   4.000  0.7944  1.0294 -1.8098
  124MOL   H30542371   0.985   1.910   4.200 -1.7521 -1.6496 -0.2912
  124MOL   H30642372   0.872   2.071   4.357 -1.0050  1.1854  1.8609
  124MOL   H30742373   0.716   2.100   4.414 -1.7641  0.2899 -1.1036
  124MOL   C30842374   0.779   2.226   4.244 -0.0862  0.0003 -0.0254
  124MOL   C30942375   0.919   2.296   4.260 -0.4855  0.3859  0.1959
  124MOL   C31042376   0.952   2.362   4.375  0.1090  1.0583  0.5541
  124MOL   C31142377   1.085   2.397   4.398 -0.2257 -0.5055  0.1619
  124MOL   C31242378   1.192   2.368   4.302  1.1217 -0.3271 -1.0620
  124MOL   O31342379   1.326   2.396   4.316 -0.4651  0.2206  0.7230
  124MOL   C31442380   1.144   2.315   4.180  0.0475 -0.3529  0.9869
  124MOL   C31542381   1.013   2.284   4.156  0.6887 -0.5004 -0.9379
  124MOL   C31642382   0.663   2.331   4.269 -0.4885  0.4791 -0.1712
  124MOL   H31742383   0.757   2.202   4.140 -1.3934  0.0365  0.2327
  124MOL   H31842384   0.877   2.372   4.451 -1.3478  1.4351 -0.8954
  124MOL   H31942385   1.107   2.453   4.488  3.4161 -0.1715 -0.8508
  124MOL   H32042386   1.373   2.326   4.273 -0.9855  0.3254 -0.0394
  124MOL   H32142387   1.219   2.299   4.105  1.7628 -1.1437  2.8152
  124MOL   H32242388   0.991   2.235   4.062 -0.3824 -1.8206 -0.0132
  124MOL   H32342389   0.666   2.403   4.188  2.1574  0.9310  0.2800
  124MOL   H32442390   0.683   2.376   4.366  0.0169  0.0535 -0.0752
  124MOL   C32542391   0.522   2.276   4.278  0.2032  0.0387 -0.9650
  124MOL   C32642392   0.461   2.205   4.152  0.7401  0.0229 -1.0219
  124MOL   C32742393   0.359   2.107   4.179 -0.4134  0.1755 -0.3419
  124MOL   C32842394   0.294   2.044   4.071  0.2431 -0.6056  0.4096
  124MOL   C32942395   0.325   2.073   3.937  0.0450  0.3007 -0.1292
  124MOL   O33042396   0.279   1.996   3.834  0.3378  0.4187 -0.3033
  124MOL   C33142397   0.428   2.169   3.914 -0.0379 -0.2881  0.2738
  124MOL   C33242398   0.494   2.235   4.020  0.0586  0.2637  0.1703
  124MOL   C33342399   0.436   2.397   4.317 -0.6041 -0.1466  0.2263
  124MOL   H33442400   0.533   2.207   4.362 -1.8720  0.0552 -0.6628
  124MOL   H33542401   0.329   2.086   4.280 -1.5456 -1.9881 -1.1042
  124MOL   H33642402   0.225   1.966   4.098  0.2020 -0.1370  1.7477
  124MOL   H33742403   0.199   1.949   3.850 -1.1866  2.7571 -0.8995
  124MOL   H33842404   0.461   2.196   3.815 -1.5306  0.6450  0.0027
  124MOL   H33942405   0.566   2.309   3.988  1.1300 -1.1163 -0.6516
  124MOL   H34042406   0.333   2.367   4.298 -0.1959 -0.9341 -0.7668
  124MOL   H34142407   0.470   2.480   4.256  0.8285 -1.4980 -0.8366
  124MOL   H34242408   0.447   2.432   4.420 -1.2961  1.9480 -0.3730
  125MOL     C142409   5.394   5.759   6.666 -0.0684 -0.2971 -0.3336
  125MOL     C242410   5.298   5.800   6.560  0.0110 -0.1435  0.3317
  125MOL     C342411   5.335   5.897   6.464  0.5310 -0.5008  0.2391
  125MOL     C442412   5.249   5.915   6.356  0.1524 -0.1929  0.3240
  125MOL     C542413   5.129   5.840   6.336 -0.0202  0.1754 -0.5977
  125MOL     O642414   5.051   5.855   6.228  0.3790  0.4805  0.0853
  125MOL     C742415   5.092   5.758   6.442  0.1789  0.4841 -0.1617
  125MOL     C842416   5.175   5.739   6.555  0.9108  0.1985  0.8498
  125MOL     C942417   5.536   5.711   6.613 -0.2585 -0.4285  0.4148
  125MOL    H1042418   5.424   5.850   6.717  0.1818  0.0508 -1.0975
  125MOL    H1142419   5.429   5.951   6.466 -0.2087  0.8871 -1.0404
  125MOL    H1242420   5.283   5.978   6.275  1.3911 -0.8994  0.2936
  125MOL    H1342421   5.075   5.936   6.185  0.2877  0.4667  0.0089
  125MOL    H1442422   4.998   5.706   6.434  0.2727 -0.1540  2.5373
  125MOL    H1542423   5.140   5.663   6.623  0.6086 -0.3924  0.0490
  125MOL    H1642424   5.599   5.788   6.568  0.2129 -1.8167 -1.3466
  125MOL    H1742425   5.521   5.638   6.534 -1.0865  0.7071 -0.4842
  125MOL    H1842426   5.337   5.685   6.722 -0.8253  0.4643 -0.0803
  125MOL    C1942427   5.617   5.635   6.722 -1.4652 -0.0664 -0.3039
  125MOL    C2042428   5.649   5.725   6.839 -0.2987 -0.2679  0.4395
  125MOL    C2142429   5.625   5.680   6.967  0.6662  0.1267 -0.6988
  125MOL    C2242430   5.641   5.770   7.076  0.3969  0.3663 -0.0168
  125MOL    C2342431   5.677   5.902   7.053 -0.3259 -1.2040 -0.0348
  125MOL    O2442432   5.692   5.994   7.154 -0.6969  0.2643 -0.5472
  125MOL    C2542433   5.703   5.949   6.923 -1.0124 -0.8413 -0.4671
  125MOL    C2642434   5.693   5.860   6.820  0.0873  0.3076  0.5425
  125MOL    C2742435   5.742   5.582   6.660 -0.4889 -0.6756 -0.9661
  125MOL    H2842436   5.562   5.548   6.757 -0.3705 -0.1494  1.3155
  125MOL    H2942437   5.597   5.577   6.982  0.0374  0.7118  2.5959
  125MOL    H3042438   5.633   5.731   7.176 -0.3892 -0.2465 -0.3132
  125MOL    H3142439   5.651   6.074   7.125 -0.1327  0.7253 -0.0852
  125MOL    H3242440   5.740   6.046   6.892 -2.7477  0.6863  1.9796
  125MOL    H3342441   5.724   5.887   6.721  0.1203 -0.1353  0.4317
  125MOL    H3442442   5.803   5.541   6.740 -1.3494  4.0865  2.3100
  125MOL    H3542443   5.795   5.666   6.613  0.0015 -0.4801 -0.0825
  125MOL    C3642444   5.727   5.465   6.556  0.2553  0.6740 -0.5483
  125MOL    C3742445   5.664   5.341   6.626 -0.4832  0.0501 -0.4767
  125MOL    C3842446   5.528   5.306   6.608  0.6234 -0.2331 -0.0195
  125MOL    C3942447   5.473   5.189   6.656  0.1504  0.4003  0.3046
  125MOL    C4042448   5.554   5.101   6.732 -0.2456  0.1828  0.7399
  125MOL    O4142449   5.509   4.981   6.788 -0.2898 -0.3336  0.9443
  125MOL    C4242450   5.691   5.134   6.756 -0.9037  0.1246  0.2495
  125MOL    C4342451   5.742   5.255   6.705 -0.7482 -1.0529 -0.2247
  125MOL    C4442452   5.865   5.436   6.485  0.8455 -0.0681 -0.4577
  125MOL    H4542453   5.666   5.493   6.470  0.3373 -1.0615 -1.2040
  125MOL    H4642454   5.462   5.371   6.552 -1.1137  1.1163  3.4565
  125MOL    H4742455   5.371   5.168   6.627  0.1816  1.6101 -0.7226
  125MOL    H4842456   5.418   4.969   6.766  0.0438 -0.2003 -0.5230
  125MOL    H4942457   5.745   5.076   6.829  0.0851  1.9174  0.9848
  125MOL    H5042458   5.845   5.284   6.723 -1.4070  1.2678 -0.0893
  125MOL    H5142459   5.881   5.539   6.456 -1.9614  0.4267 -0.4321
  125MOL    H5242460   5.948   5.402   6.546  0.7405  0.5403  0.0286
  125MOL    C5342461   5.853   5.350   6.359  0.2799 -0.5328  0.7482
  125MOL    C5442462   5.931   5.413   6.247  0.4104  0.0374 -0.4483
  125MOL    C5542463   5.881   5.447   6.120 -0.1934  0.3669  0.3689
  125MOL    C5642464   5.960   5.503   6.020 -0.6019  0.0919 -0.0586
  125MOL    C5742465   6.097   5.512   6.043 -0.1349  0.6592  0.4516
  125MOL    O5842466   6.181   5.570   5.956 -0.1415 -0.3257  0.6167
  125MOL    C5942467   6.151   5.494   6.173 -0.1858  0.6032 -0.0971
  125MOL    C6042468   6.068   5.434   6.279  0.7914  0.2100  0.3223
  125MOL    C6142469   5.891   5.208   6.396  0.7449  0.8942 -0.1490
  125MOL    H6242470   5.746   5.353   6.337  0.8083  1.4689 -1.6593
  125MOL    H6342471   5.775   5.434   6.098 -0.4929  1.1631  1.3214
  125MOL    H6442472   5.920   5.532   5.923  0.6091 -0.3644 -0.7114
  125MOL    H6542473   6.136   5.619   5.889  0.5214 -0.4655  0.0668
  125MOL    H6642474   6.252   5.517   6.202 -0.5794  1.3344  0.7119
  125MOL    H6742475   6.113   5.410   6.374  0.6671 -0.5910  0.1812
  125MOL    H6842476   5.853   5.160   6.486  1.6468  2.5130  1.1272
  125MOL    H6942477   5.999   5.202   6.410  0.8074  0.4667 -0.7979
  125MOL    C7042478   5.843   5.110   6.294  0.8090 -0.6795  0.5803
  125MOL    C7142479   5.694   5.087   6.316  0.3834  0.1333 -0.5564
  125MOL    C7242480   5.593   5.173   6.256 -0.3935  0.0185 -0.5453
  125MOL    C7342481   5.457   5.150   6.277  0.0904  0.2123 -0.0211
  125MOL    C7442482   5.414   5.041   6.356 -1.7694 -0.0111 -0.2324
  125MOL    O7542483   5.278   5.018   6.361  0.1260  0.1015  0.1631
  125MOL    C7642484   5.507   4.964   6.424  0.4442  1.0781  0.2588
  125MOL    C7742485   5.644   4.985   6.408  0.6187 -0.6574 -0.0202
  125MOL    C7842486   5.929   4.978   6.309  0.7617 -0.1081  0.0684
  125MOL    H7942487   5.860   5.166   6.203 -0.6236 -2.0711 -0.5790
  125MOL    H8042488   5.617   5.252   6.186  0.6829 -0.7655 -1.0799
  125MOL    H8142489   5.390   5.220   6.229  1.0249  0.9109 -0.3300
  125MOL    H8242490   5.248   4.934   6.391 -0.2666  0.4208  0.6632
  125MOL    H8342491   5.468   4.877   6.476  0.3718  0.8141 -0.2409
  125MOL    H8442492   5.718   4.925   6.459 -0.3050  0.3240  2.5106
  125MOL    H8542493   5.886   4.902   6.244 -0.8546  0.1067  0.8558
  125MOL    H8642494   5.936   4.938   6.410 -0.8473  0.2883  0.3548
  125MOL    C8742495   6.072   5.005   6.253  0.1237 -0.0097  0.0919
  125MOL    C8842496   6.066   4.999   6.096 -0.2472 -0.2804 -0.7646
  125MOL    C8942497   6.066   5.121   6.028 -0.9372 -0.8183 -0.0639
  125MOL    C9042498   6.026   5.119   5.892  0.2124 -0.4499  0.4925
  125MOL    C9142499   5.989   4.997   5.828 -0.4721  0.5171  0.8219
  125MOL    O9242500   5.949   5.004   5.696  0.1704  0.1109 -0.4230
  125MOL    C9342501   6.011   4.874   5.895 -0.3895  0.1011  0.4058
  125MOL    C9442502   6.048   4.877   6.028 -0.4123  0.4693 -0.3030
  125MOL    C9542503   6.181   4.909   6.306 -0.4796 -0.5047  0.2571
  125MOL    H9642504   6.111   5.105   6.273  0.1949  0.2095 -1.0881
  125MOL    H9742505   6.081   5.211   6.085 -1.1239  0.0561 -1.3649
  125MOL    H9842506   6.013   5.213   5.841  1.4787 -1.1695 -1.1780
  125MOL    H9942507   5.982   4.944   5.631 -0.7455  0.0880 -0.8756
  125MOL   H10042508   6.008   4.774   5.855 -1.3741  0.8156 -1.3547
  125MOL   H10142509   6.047   4.784   6.082  3.2470  1.0054  0.8463
  125MOL   H10242510   6.156   4.808   6.273  0.5351 -0.5840 -0.2881
  125MOL   H10342511   6.279   4.939   6.270 -0.3942  0.1531  1.0130
  125MOL   C10442512   6.202   4.889   6.460  0.6468  0.0120  0.3191
  125MOL   C10542513   6.206   5.025   6.537  0.7478  0.3654  0.2425
  125MOL   C10642514   6.298   5.117   6.487 -0.2638  0.0571 -0.0905
  125MOL   C10742515   6.315   5.242   6.547 -0.2573  0.1084 -0.4721
  125MOL   C10842516   6.232   5.279   6.661  0.3247  0.5768  0.0528
  125MOL   O10942517   6.238   5.397   6.718 -0.2334 -0.0016  0.2960
  125MOL   C11042518   6.145   5.184   6.710  0.1223  0.4166  0.1915
  125MOL   C11142519   6.135   5.049   6.660  0.0064  0.3010 -0.0157
  125MOL   C11242520   6.311   4.781   6.491 -0.4007 -0.5493  0.6044
  125MOL   H11342521   6.113   4.843   6.503  0.4198  0.3497  0.2119
  125MOL   H11442522   6.355   5.096   6.398  1.0769  2.4670  0.1448
  125MOL   H11542523   6.393   5.304   6.507 -0.0577  0.7993  0.9577
  125MOL   H11642524   6.281   5.469   6.675  0.3428 -0.0191  0.8280
  125MOL   H11742525   6.094   5.200   6.804  2.2406 -0.1242  1.4624
  125MOL   H11842526   6.057   4.986   6.700 -3.8516  3.8206 -1.6627
  125MOL   H11942527   6.310   4.782   6.600  1.6821  0.1371  0.6324
  125MOL   H12042528   6.408   4.825   6.468  1.1029 -2.3454  3.2106
  125MOL   C12142529   6.280   4.639   6.431  0.5550 -0.5480 -0.1490
  125MOL   C12242530   6.341   4.613   6.293 -0.2163  0.7256  0.3250
  125MOL   C12342531   6.259   4.599   6.180 -0.2968  0.8075 -0.5291
  125MOL   C12442532   6.317   4.567   6.056  0.4818  0.4515 -0.0322
  125MOL   C12542533   6.453   4.537   6.048 -0.4416  0.2205  0.5749
  125MOL   O12642534   6.510   4.498   5.928  0.0851  0.1196  0.3639
  125MOL   C12742535   6.533   4.554   6.165  0.3916 -0.3324  0.2751
  125MOL   C12842536   6.480   4.589   6.289  0.0547  0.3541  0.3028
  125MOL   C12942537   6.316   4.526   6.531 -0.1609  0.6906 -0.7752
  125MOL   H13042538   6.172   4.634   6.413  0.5401  0.7604 -0.4559
  125MOL   H13142539   6.151   4.603   6.185 -0.2938 -1.2291  2.7009
  125MOL   H13242540   6.256   4.560   5.967  2.9061 -1.7432 -1.5972
  125MOL   H13342541   6.589   4.449   5.947  0.7754  0.0209 -2.6283
  125MOL   H13442542   6.635   4.519   6.163  1.2939  1.9928  2.7432
  125MOL   H13542543   6.545   4.594   6.375 -1.5776  1.7474  1.4923
  125MOL   H13642544   6.290   4.567   6.629 -0.2585 -0.4848 -0.3042
  125MOL   H13742545   6.421   4.500   6.542 -0.4376 -0.7335 -1.4083
  125MOL   C13842546   6.232   4.387   6.514 -0.4938  0.6138 -0.1069
  125MOL   C13942547   6.238   4.315   6.646 -0.2157 -0.2417  0.1035
  125MOL   C14042548   6.126   4.294   6.733  0.2159  0.3493 -0.0831
  125MOL   C14142549   6.142   4.242   6.864  0.9293  0.5797  0.3127
  125MOL   C14242550   6.271   4.198   6.902  0.1175 -0.3984  0.0551
  125MOL   O14342551   6.295   4.142   7.028 -0.0113 -0.0458  0.0624
  125MOL   C14442552   6.379   4.203   6.811  0.2624 -0.0739  0.8519
  125MOL   C14542553   6.363   4.263   6.687  0.2902  0.2076  0.0775
  125MOL   C14642554   6.263   4.307   6.386  0.2056  0.5235  0.0845
  125MOL   H14742555   6.134   4.431   6.496  0.0199  1.3438 -1.2344
  125MOL   H14842556   6.031   4.331   6.699 -0.1668 -1.2512 -0.8166
  125MOL   H14942557   6.058   4.229   6.931 -0.1039 -0.0017 -1.0798
  125MOL   H15042558   6.383   4.109   7.026  0.1612  0.4397 -0.8630
  125MOL   H15142559   6.471   4.154   6.839 -0.6276 -0.9174  2.4040
  125MOL   H15242560   6.452   4.273   6.627 -0.2216  1.0772 -0.5367
  125MOL   H15342561   6.372   4.302   6.376  0.0555  0.7249 -1.7757
  125MOL   H15442562   6.218   4.371   6.311  0.1679  1.1918  0.6660
  125MOL   C15542563   6.202   4.163   6.379 -0.1684  0.9032  0.5470
  125MOL   C15642564   6.268   4.073   6.272 -0.0623  0.1319  0.0115
  125MOL   C15742565   6.247   3.934   6.279  0.5892  0.5385 -0.2856
  125MOL   C15842566   6.303   3.849   6.178 -0.0987 -0.3128 -0.1571
  125MOL   C15942567   6.385   3.911   6.078  0.0307 -0.0662 -0.6709
  125MOL   O16042568   6.449   3.834   5.982  0.2573  0.1918  0.0226
  125MOL   C16142569   6.393   4.051   6.058  0.1082 -0.3039 -0.1446
  125MOL   C16242570   6.339   4.128   6.160  0.7442 -0.0259 -0.6748
  125MOL   C16342571   6.049   4.170   6.381  0.2957  0.1191 -0.7285
  125MOL   H16442572   6.223   4.117   6.476 -1.5970 -1.2245 -0.1136
  125MOL   H16542573   6.195   3.894   6.365  3.3179  0.2892  1.2777
  125MOL   H16642574   6.286   3.743   6.176 -4.0092  0.2782 -1.4364
  125MOL   H16742575   6.474   3.879   5.903  0.1102 -1.9285 -1.2932
  125MOL   H16842576   6.456   4.095   5.981  1.9976 -2.2762  0.2298
  125MOL   H16942577   6.347   4.235   6.157 -1.7594  0.2069 -0.4298
  125MOL   H17042578   6.040   4.237   6.466 -1.5631 -1.1594  0.1255
  125MOL   H17142579   6.005   4.075   6.411  2.5891 -0.6357  0.3570
  125MOL   C17242580   5.989   4.215   6.244  0.3558  0.6541  0.0465
  125MOL   C17342581   5.890   4.324   6.261 -0.0435  0.1218 -0.3740
  125MOL   C17442582   5.797   4.325   6.369  0.4502 -0.2834 -0.2524
  125MOL   C17542583   5.708   4.434   6.381 -0.5959 -0.6217  0.4210
  125MOL   C17642584   5.710   4.543   6.284 -0.5352 -0.9524 -0.5486
  125MOL   O17742585   5.619   4.647   6.285  0.4300  0.1620 -0.3215
  125MOL   C17842586   5.805   4.541   6.181  0.3179 -0.0677  0.2052
  125MOL   C17942587   5.885   4.430   6.170 -0.3911 -0.0723 -0.5788
  125MOL   C18042588   5.919   4.093   6.172 -0.2210 -0.6163  0.0952
  125MOL   H18142589   6.065   4.260   6.180 -1.4078  1.7678 -1.3305
  125MOL   H18242590   5.799   4.237   6.433 -1.7003 -0.4967 -0.4370
  125MOL   H18342591   5.647   4.433   6.469 -1.9347  1.3156 -0.4391
  125MOL   H18442592   5.621   4.697   6.205  0.6745 -0.7674 -0.9017
  125MOL   H18542593   5.803   4.619   6.107  1.3204 -1.2665 -1.1095
  125MOL   H18642594   5.947   4.420   6.082  1.4424  1.0258  0.5875
  125MOL   H18742595   5.827   4.074   6.227 -0.8793 -0.1437 -0.8440
  125MOL   H18842596   5.983   4.006   6.186 -0.9492 -1.3186 -0.9080
  125MOL   C18942597   5.874   4.120   6.022  0.3753 -0.4289  0.9013
  125MOL   C19042598   5.996   4.077   5.935 -0.5426  0.6425 -0.4541
  125MOL   C19142599   6.073   4.178   5.874 -0.3158 -0.0299  0.5794
  125MOL   C19242600   6.161   4.151   5.767 -0.2102  0.0296 -0.0790
  125MOL   C19342601   6.181   4.015   5.735  0.1468 -0.4311 -0.2619
  125MOL   O19442602   6.274   3.985   5.639  0.9769  0.4005  0.4388
  125MOL   C19542603   6.122   3.911   5.812  0.2634  0.0436  0.1342
  125MOL   C19642604   6.033   3.942   5.914  0.1848 -0.2676  0.8200
  125MOL   C19742605   5.750   4.046   5.969 -0.1679  0.0748  0.3632
  125MOL   H19842606   5.854   4.227   6.011  0.6344 -0.5244 -0.4911
  125MOL   H19942607   6.057   4.279   5.909  0.2799  0.4419 -0.5013
  125MOL   H20042608   6.207   4.233   5.714 -1.1790  0.0328 -0.9448
  125MOL   H20142609   6.280   3.893   5.616  0.0676  0.6278 -0.6978
  125MOL   H20242610   6.141   3.807   5.791 -0.4016  0.1301 -0.9624
  125MOL   H20342611   5.977   3.866   5.965  1.7171 -0.6787  1.9304
  125MOL   H20442612   5.765   3.940   5.990  1.0371  0.1646 -0.0088
  125MOL   H20542613   5.765   4.049   5.861  0.9390 -1.6097  0.4552
  125MOL   C20642614   5.612   4.105   6.019 -0.0158 -0.5011 -0.2394
  125MOL   C20742615   5.597   4.075   6.166  0.1810 -0.9781  0.3692
  125MOL   C20842616   5.611   3.945   6.213  0.0367 -0.2791  0.4692
  125MOL   C20942617   5.571   3.914   6.341 -0.2697  0.2281  0.2223
  125MOL   C21042618   5.548   4.016   6.433  0.2790 -0.7559 -0.5937
  125MOL   O21142619   5.498   3.966   6.552  0.1989 -0.5383 -0.2392
  125MOL   C21242620   5.546   4.147   6.395 -0.0517 -0.3976  0.2939
  125MOL   C21342621   5.571   4.173   6.259  0.0254  0.1720  0.4521
  125MOL   C21442622   5.495   4.058   5.936  0.5238 -0.0845 -0.2422
  125MOL   H21542623   5.609   4.214   6.007 -0.0301 -0.2827  1.6663
  125MOL   H21642624   5.618   3.862   6.144 -2.2547 -1.7079  1.8808
  125MOL   H21742625   5.553   3.814   6.377 -1.2309  0.1890 -0.3365
  125MOL   H21842626   5.494   4.025   6.626 -1.9244 -0.5379 -0.3237
  125MOL   H21942627   5.517   4.226   6.463  1.9211  0.9581 -0.4151
  125MOL   H22042628   5.572   4.274   6.221  0.0085  0.3761  0.9792
  125MOL   H22142629   5.479   3.950   5.937  1.8692 -0.2993 -0.7257
  125MOL   H22242630   5.538   4.060   5.836  0.1023  0.2143 -0.4208
  125MOL   C22342631   5.362   4.149   5.926  0.0182  0.2543 -0.1504
  125MOL   C22442632   5.285   4.149   6.062 -0.3970 -0.1035  0.0395
  125MOL   C22542633   5.246   4.029   6.123  0.4873  0.1159 -0.1858
  125MOL   C22642634   5.175   4.044   6.246  0.5024  0.7190 -0.7307
  125MOL   C22742635   5.160   4.167   6.312  0.4616 -0.2779  0.0118
  125MOL   O22842636   5.084   4.176   6.425  0.4238 -0.0644  0.3714
  125MOL   C22942637   5.205   4.279   6.250  0.7917 -0.4171  0.0866
  125MOL   C23042638   5.264   4.275   6.122  0.2826  0.6244  0.7202
  125MOL   C23142639   5.270   4.082   5.829  0.5510  0.3914 -0.1834
  125MOL   H23242640   5.399   4.244   5.889 -3.3279  1.4626 -0.5428
  125MOL   H23342641   5.285   3.934   6.091 -0.4990 -0.2360 -0.3755
  125MOL   H23442642   5.138   3.956   6.297  0.4168  0.1993 -1.6652
  125MOL   H23542643   5.059   4.267   6.432 -0.6471 -0.2628 -0.6277
  125MOL   H23642644   5.194   4.370   6.308  1.4821 -1.1753  1.4493
  125MOL   H23742645   5.287   4.364   6.064  0.5455 -1.3601 -2.3306
  125MOL   H23842646   5.323   4.064   5.735  0.5146 -1.1565  0.0811
  125MOL   H23942647   5.247   3.981   5.862  0.4592 -0.4326 -2.6348
  125MOL   C24042648   5.141   4.160   5.793 -1.1005 -0.5120 -0.2936
  125MOL   C24142649   5.103   4.136   5.648 -0.7022  0.3526 -0.7511
  125MOL   C24242650   5.065   4.004   5.607 -1.1264  0.1957  0.3093
  125MOL   C24342651   5.029   3.984   5.475 -0.2370 -0.4702 -0.3764
  125MOL   C24442652   5.030   4.082   5.378  0.1482 -0.4546 -0.1522
  125MOL   O24542653   4.994   4.045   5.252 -0.2863  0.0425 -0.1271
  125MOL   C24642654   5.064   4.211   5.417  0.2916 -0.0147 -0.2222
  125MOL   C24742655   5.095   4.237   5.553  0.2179 -0.2903 -0.0494
  125MOL   C24842656   5.015   4.129   5.881 -0.1109 -0.4882 -0.2922
  125MOL   H24942657   5.170   4.263   5.814 -0.2781 -1.4141  3.3049
  125MOL   H25042658   5.054   3.924   5.679 -0.2527  0.0290  0.2618
  125MOL   H25142659   4.996   3.884   5.449 -2.9735  0.7681 -1.8422
  125MOL   H25242660   4.944   3.965   5.260 -1.6646  1.2463  4.6805
  125MOL   H25342661   5.063   4.293   5.347  0.1133 -1.7105 -2.2305
  125MOL   H25442662   5.119   4.340   5.574 -0.0458 -0.7171  2.5010
  125MOL   H25542663   4.972   4.030   5.870  1.7970 -1.4424  0.6339
  125MOL   H25642664   5.043   4.127   5.986 -1.1047  0.4963 -0.0035
  125MOL   C25742665   4.904   4.242   5.864  0.4954 -0.7150  0.0140
  125MOL   C25842666   4.795   4.212   5.762 -0.1183  0.7748  0.2085
  125MOL   C25942667   4.708   4.097   5.767  0.1218 -0.3851 -0.1469
  125MOL   C26042668   4.605   4.083   5.674  0.3438  0.1985  0.3740
  125MOL   C26142669   4.582   4.178   5.577  0.4252  0.8301 -0.3433
  125MOL   O26242670   4.483   4.152   5.492 -0.1065  0.0724 -0.0695
  125MOL   C26342671   4.664   4.290   5.570 -0.5568  0.2678 -0.6143
  125MOL   C26442672   4.775   4.304   5.656 -0.0691  0.5959  0.0087
  125MOL   C26542673   4.836   4.266   5.996 -0.2953  0.5574 -0.6466
  125MOL   H26642674   4.963   4.331   5.843  0.4880 -0.1846  2.1316
  125MOL   H26742675   4.705   4.037   5.857  2.3438  0.2388  0.3702
  125MOL   H26842676   4.542   3.996   5.686  0.5342  0.2579  1.8124
  125MOL   H26942677   4.442   4.068   5.506  1.4539 -0.9100 -1.2691
  125MOL   H27042678   4.645   4.356   5.486 -1.1269  0.6325 -0.1936
  125MOL   H27142679   4.844   4.386   5.641  2.9404 -1.8633 -0.0357
  125MOL   H27242680   4.905   4.244   6.077 -1.3165 -2.2246 -0.4651
  125MOL   H27342681   4.769   4.181   6.012 -0.6974  0.8187 -0.9302
  125MOL   C27442682   4.761   4.400   6.006  0.4573 -0.2291  0.3748
  125MOL   C27542683   4.868   4.497   6.046  0.8425 -0.4522  0.0247
  125MOL   C27642684   4.912   4.500   6.181  0.0801  0.2248  0.3048
  125MOL   C27742685   5.019   4.570   6.225 -0.6648 -0.4819  0.1968
  125MOL   C27842686   5.094   4.643   6.137  0.0900  0.7443 -0.4671
  125MOL   O27942687   5.201   4.708   6.195 -0.2553  0.6564  0.0067
  125MOL   C28042688   5.055   4.644   5.999 -0.3157 -0.3533 -0.0643
  125MOL   C28142689   4.943   4.571   5.955 -0.7773  0.4312  0.3806
  125MOL   C28242690   4.651   4.390   6.109  0.4007  0.3951 -0.1756
  125MOL   H28342691   4.720   4.429   5.909  0.8873  1.7766  0.7596
  125MOL   H28442692   4.857   4.438   6.250 -0.0353 -0.3113 -0.2683
  125MOL   H28542693   5.048   4.567   6.329 -1.3322 -0.2700  0.3848
  125MOL   H28642694   5.210   4.695   6.288 -1.1414  2.9140  0.4302
  125MOL   H28742695   5.126   4.702   5.943  1.4627 -0.0057  2.4400
  125MOL   H28842696   4.922   4.577   5.849  0.0407  0.2200  0.2042
  125MOL   H28942697   4.687   4.314   6.178 -0.5154 -1.2945 -1.5351
  125MOL   H29042698   4.647   4.476   6.176 -0.8756  0.9245 -0.9119
  125MOL   C29142699   4.507   4.337   6.070 -0.1154 -0.3109 -0.3554
  125MOL   C29242700   4.430   4.438   5.990  0.5826 -0.5427 -0.0098
  125MOL   C29342701   4.407   4.562   6.051  0.2145 -0.3624 -0.1826
  125MOL   C29442702   4.344   4.659   5.975  0.2183 -0.0530  0.0284
  125MOL   C29542703   4.292   4.628   5.844 -0.1716  0.2078 -0.3811
  125MOL   O29642704   4.219   4.718   5.775  0.0933  0.0390  0.0235
  125MOL   C29742705   4.316   4.501   5.791 -0.5843  0.1268  0.5920
  125MOL   C29842706   4.388   4.405   5.861  0.2757  0.1884  0.6999
  125MOL   C29942707   4.417   4.280   6.181 -0.0756 -0.0236  0.8014
  125MOL   H30042708   4.538   4.258   6.002  3.1065 -0.4609  1.1670
  125MOL   H30142709   4.443   4.579   6.152  0.5978 -0.5392 -0.2921
  125MOL   H30242710   4.337   4.757   6.020 -1.4538  0.0673 -0.4294
  125MOL   H30342711   4.132   4.693   5.747 -0.0332 -0.0744  0.5143
  125MOL   H30442712   4.287   4.476   5.690 -0.5049 -1.4811  0.9448
  125MOL   H30542713   4.404   4.308   5.817  2.3884  1.4016 -1.2721
  125MOL   H30642714   4.340   4.347   6.219  0.3230 -0.0951  1.7330
  125MOL   H30742715   4.492   4.257   6.256  0.4260  0.7089  0.5293
  125MOL   C30842716   4.362   4.140   6.139 -0.2266  0.2960 -0.3936
  125MOL   C30942717   4.258   4.143   6.029  0.1665  0.3978  0.3160
  125MOL   C31042718   4.147   4.228   6.050  0.3362  0.4262 -0.8095
  125MOL   C31142719   4.049   4.240   5.943  0.2620 -0.0456  0.3362
  125MOL   C31242720   4.068   4.180   5.814 -0.0940  0.3116  0.0792
  125MOL   O31342721   3.976   4.196   5.717  0.4998  0.4147  0.3206
  125MOL   C31442722   4.173   4.083   5.804  0.5733  0.8192  0.1412
  125MOL   C31542723   4.269   4.068   5.908 -0.4529  0.6783 -0.2306
  125MOL   C31642724   4.323   4.048   6.266  0.0875 -0.3056  0.2577
  125MOL   H31742725   4.446   4.092   6.088  0.2853  0.7102  0.0529
  125MOL   H31842726   4.124   4.282   6.141  2.9929 -0.5836  0.5354
  125MOL   H31942727   3.961   4.298   5.965  0.3248  0.4716 -0.7408
  125MOL   H32042728   3.964   4.124   5.657  0.4500  0.3588  0.3992
  125MOL   H32142729   4.187   4.015   5.721 -1.7592 -0.9894  1.1705
  125MOL   H32242730   4.358   4.011   5.884 -0.4863 -1.0417  3.4391
  125MOL   H32342731   4.262   3.963   6.236  0.7065 -1.3208  1.8523
  125MOL   H32442732   4.259   4.099   6.339  1.7816  1.4598  0.5528
  125MOL   C32542733   4.435   3.978   6.347 -0.1191  0.0498 -0.2541
  125MOL   C32642734   4.559   3.944   6.264  0.6465 -0.1236 -0.1305
  125MOL   C32742735   4.568   3.843   6.163 -0.1955 -0.5933 -0.0880
  125MOL   C32842736   4.691   3.816   6.102 -0.0931  0.9165  0.2638
  125MOL   C32942737   4.803   3.886   6.133  0.5051 -0.4294 -0.1739
  125MOL   O33042738   4.919   3.855   6.074  0.1662  0.4542  0.3024
  125MOL   C33142739   4.801   3.992   6.226 -0.4943  0.2455  0.6979
  125MOL   C33242740   4.679   4.015   6.292 -0.4571  0.1623  0.1108
  125MOL   C33342741   4.382   3.866   6.427  0.1157  0.5438 -0.1642
  125MOL   H33442742   4.463   4.051   6.423 -2.0793  0.5249  0.0531
  125MOL   H33542743   4.478   3.792   6.134  0.1306 -0.3680 -1.5431
  125MOL   H33642744   4.699   3.750   6.017 -1.5024 -0.8750  1.4860
  125MOL   H33742745   4.985   3.918   6.099  1.3836 -0.8120  0.3865
  125MOL   H33842746   4.886   4.054   6.248  0.1548 -0.8490  1.3204
  125MOL   H33942747   4.675   4.095   6.365  2.7785  0.0026  0.5353
  125MOL   H34042748   4.367   3.770   6.378  1.4024  0.8906 -1.2878
  125MOL   H34142749   4.283   3.892   6.464 -0.2091 -0.9622  0.0293
  125MOL   H34242750   4.439   3.837   6.515  0.2246 -1.2011 -0.7872
  126MOL     C142751   5.322   4.844   0.230  0.0272  0.0799  0.3673
  126MOL     C242752   5.366   4.704   0.196 -0.0035  0.8307 -0.1442
  126MOL     C342753   5.485   4.648   0.141  0.0561 -0.1505 -0.8995
  126MOL     C442754   5.517   4.508   0.131 -0.1781  0.0609  0.3824
  126MOL     C542755   5.409   4.425   0.153 -0.0574  0.4375  0.1807
  126MOL     O642756   5.423   4.293   0.135  0.4473 -0.3880  0.0322
  126MOL     C742757   5.288   4.470   0.204  0.7452  0.4258 -0.4346
  126MOL     C842758   5.269   4.607   0.228  0.3543  0.2860  0.2129
  126MOL     C942759   5.432   4.950   0.266  0.4902  0.4372 -0.6588
  126MOL    H1042760   5.266   4.865   0.139  2.6580  1.0277 -1.0672
  126MOL    H1142761   5.566   4.718   0.125 -0.6469  0.9377  0.2118
  126MOL    H1242762   5.610   4.465   0.100  0.8448  0.1167  3.2022
  126MOL    H1342763   5.504   4.280   0.089 -0.0350 -2.0422 -0.4149
  126MOL    H1442764   5.203   4.406   0.224  0.5797  1.6781  3.2834
  126MOL    H1542765   5.172   4.636   0.267 -1.1890 -1.4894 -2.2026
  126MOL    H1642766   5.507   4.942   0.187 -0.1486 -1.1575 -1.1239
  126MOL    H1742767   5.486   4.927   0.358  1.3786  1.8532 -0.8103
  126MOL    H1842768   5.238   4.843   0.299  0.0384 -2.3471  0.3960
  126MOL    C1942769   5.383   5.102   0.275 -0.5183  0.7627  0.7492
  126MOL    C2042770   5.278   5.135   0.172 -0.8442  0.6877 -0.1145
  126MOL    C2142771   5.302   5.103   0.034 -0.5905 -0.8127  0.3326
  126MOL    C2242772   5.199   5.128   7.979  0.3136  0.4770  0.2793
  126MOL    C2342773   5.070   5.174   8.022 -0.2651 -0.1383 -0.5675
  126MOL    O2442774   4.968   5.189   7.929  0.3133  0.2990 -0.3321
  126MOL    C2542775   5.049   5.209   0.117  0.7574  0.0535  0.2213
  126MOL    C2642776   5.152   5.186   0.209 -0.3931  0.5141  0.1625
  126MOL    C2742777   5.500   5.188   0.256 -0.4472  0.1721 -0.2265
  126MOL    H2842778   5.340   5.117   0.374 -0.0483  0.5079  0.9957
  126MOL    H2942779   5.391   5.049   0.003 -0.1234  0.7100 -1.0895
  126MOL    H3042780   5.206   5.095   7.876  0.7554  1.5584 -0.0503
  126MOL    H3142781   4.883   5.202   7.966  0.1777  0.4091 -0.6783
  126MOL    H3242782   4.955   5.252   0.147 -0.2338 -2.2820  0.5992
  126MOL    H3342783   5.130   5.211   0.312  0.0577 -0.6038  0.5409
  126MOL    H3442784   5.536   5.170   0.155  1.0255  1.3834  0.0726
  126MOL    H3542785   5.581   5.149   0.318 -0.4145  0.8486  0.1667
  126MOL    C3642786   5.477   5.342   0.267  0.0690  0.1592  0.8237
  126MOL    C3742787   5.530   5.412   0.139  0.1358  0.0136  0.4176
  126MOL    C3842788   5.662   5.461   0.127 -0.1991 -0.7197  0.5470
  126MOL    C3942789   5.701   5.532   0.011  0.1307  0.8038 -0.4463
  126MOL    C4042790   5.603   5.583   7.966 -0.4599  0.1540 -0.3266
  126MOL    O4142791   5.634   5.663   7.867  0.5431  0.6503 -0.2001
  126MOL    C4242792   5.468   5.549   7.988  0.6036  0.1772  0.1699
  126MOL    C4342793   5.434   5.447   0.045  0.3040  0.0139  0.7617
  126MOL    C4442794   5.529   5.396   0.401  0.2855 -0.5058 -0.0675
  126MOL    H4542795   5.369   5.354   0.270  0.1869  0.9984  1.8528
  126MOL    H4642796   5.741   5.431   0.194  0.3491 -0.8983 -0.1639
  126MOL    H4742797   5.800   5.576   0.009 -0.3107  1.7540 -1.2231
  126MOL    H4842798   5.556   5.712   7.845 -0.8830 -0.7349  1.7077
  126MOL    H4942799   5.388   5.572   7.918 -0.1496 -0.7875  0.7070
  126MOL    H5042800   5.335   5.407   0.061 -0.6046  3.3351  3.9487
  126MOL    H5142801   5.637   5.394   0.398  0.2744  0.3647 -1.1213
  126MOL    H5242802   5.512   5.504   0.402  1.6224 -0.2905  2.1523
  126MOL    C5342803   5.457   5.347   0.528  0.7104 -0.0064 -1.3230
  126MOL    C5442804   5.542   5.396   0.650  0.4555 -0.1236  0.0561
  126MOL    C5542805   5.616   5.307   0.733 -0.5675 -0.5517  0.0868
  126MOL    C5642806   5.694   5.348   0.840  0.7480 -0.1706 -0.1456
  126MOL    C5742807   5.678   5.483   0.882 -0.7778  0.3481  0.4936
  126MOL    O5842808   5.730   5.523   0.999  0.2533  0.0877  0.0328
  126MOL    C5942809   5.600   5.575   0.807 -0.1883  0.8270 -0.1944
  126MOL    C6042810   5.531   5.534   0.686 -0.1083  0.0385  0.7749
  126MOL    C6142811   5.306   5.390   0.541  0.6480  0.0818  0.5845
  126MOL    H6242812   5.468   5.239   0.538 -0.5507 -0.2009 -2.0104
  126MOL    H6342813   5.629   5.202   0.713  2.2020 -0.8295  3.0089
  126MOL    H6442814   5.742   5.271   0.898  0.0290  0.3895  1.2250
  126MOL    H6542815   5.796   5.463   1.031 -0.2860 -0.2025  0.6062
  126MOL    H6642816   5.584   5.679   0.832 -3.0360  0.6950 -1.2616
  126MOL    H6742817   5.471   5.599   0.624  2.0186  1.4341  0.1300
  126MOL    H6842818   5.247   5.359   0.454  0.4355 -2.7878  1.7176
  126MOL    H6942819   5.297   5.498   0.547  1.1107  0.1518  0.0968
  126MOL    C7042820   5.225   5.324   0.661  0.7427 -0.5796  0.2055
  126MOL    C7142821   5.212   5.173   0.637 -0.1222 -0.2565  0.0280
  126MOL    C7242822   5.114   5.114   0.551 -0.1501  0.0616  0.3301
  126MOL    C7342823   5.122   4.974   0.528  0.5382 -0.4813 -1.0263
  126MOL    C7442824   5.224   4.893   0.578  0.0523 -0.4116  0.1304
  126MOL    O7542825   5.238   4.764   0.549  0.0800 -0.1518 -0.2127
  126MOL    C7642826   5.317   4.952   0.670 -0.2221 -0.8104  0.0314
  126MOL    C7742827   5.315   5.092   0.690 -0.0235  0.4869 -0.6370
  126MOL    C7842828   5.097   5.401   0.683  0.6445  0.2511  0.0537
  126MOL    H7942829   5.289   5.332   0.748 -2.1386 -0.1186  2.3677
  126MOL    H8042830   5.041   5.182   0.511  0.8993  1.1443  0.2471
  126MOL    H8142831   5.048   4.941   0.457 -1.3479 -0.3724  0.8416
  126MOL    H8242832   5.326   4.737   0.569  0.3163  0.6835 -0.0925
  126MOL    H8342833   5.393   4.889   0.714  1.7494  0.8280 -0.9990
  126MOL    H8442834   5.379   5.138   0.763  1.0338 -1.3664 -0.3563
  126MOL    H8542835   5.041   5.385   0.592 -0.4304 -2.5246  1.1670
  126MOL    H8642836   5.122   5.508   0.688  0.9024  0.2166 -0.5374
  126MOL    C8742837   5.018   5.376   0.813 -0.1766  0.0948 -0.0851
  126MOL    C8842838   4.866   5.399   0.788 -0.8218  0.3429  0.1108
  126MOL    C8942839   4.821   5.519   0.732 -0.3050 -0.2853  0.2744
  126MOL    C9042840   4.682   5.538   0.705 -0.5586  0.0401 -0.0906
  126MOL    C9142841   4.589   5.444   0.757 -0.0630 -0.6855  0.3440
  126MOL    O9242842   4.453   5.475   0.758  0.0022  0.3027  0.1207
  126MOL    C9342843   4.637   5.325   0.811 -0.6885 -0.4271  1.0907
  126MOL    C9442844   4.776   5.304   0.825 -0.0300  0.6673 -0.2827
  126MOL    C9542845   5.053   5.477   0.932  0.2429  0.3492  0.0117
  126MOL    H9642846   5.028   5.274   0.848 -0.4800 -0.2592 -1.0111
  126MOL    H9742847   4.883   5.600   0.700 -0.5068 -0.2969 -0.1446
  126MOL    H9842848   4.640   5.629   0.666 -1.7562 -0.6395 -0.3807
  126MOL    H9942849   4.409   5.434   0.831 -0.4339 -1.1341 -0.9241
  126MOL   H10042850   4.572   5.250   0.854  0.7103 -1.9081  0.6615
  126MOL   H10142851   4.809   5.217   0.880 -2.1214  1.8069  3.0046
  126MOL   H10242852   5.049   5.576   0.886  2.3982  0.2819 -0.3540
  126MOL   H10342853   4.977   5.480   1.011  0.2170  1.1006 -0.0348
  126MOL   C10442854   5.197   5.461   0.995 -0.4341  0.7004  0.5062
  126MOL   C10542855   5.229   5.316   1.037 -0.2020  0.1326 -0.6852
  126MOL   C10642856   5.356   5.258   1.015 -0.0854 -0.0997 -0.1266
  126MOL   C10742857   5.368   5.129   1.061 -0.7166 -0.5372 -0.4601
  126MOL   C10842858   5.268   5.057   1.128 -0.4126 -0.2384  0.6155
  126MOL   O10942859   5.297   4.932   1.172 -0.4926 -0.1786  0.3859
  126MOL   C11042860   5.144   5.108   1.139 -0.3452 -0.4558 -0.0414
  126MOL   C11142861   5.123   5.238   1.087  0.5613 -0.1451 -0.4789
  126MOL   C11242862   5.216   5.544   1.116  0.4383  0.5230 -0.3791
  126MOL   H11342863   5.280   5.493   0.932 -0.1122 -0.1413  0.4924
  126MOL   H11442864   5.432   5.307   0.956 -0.6673 -0.4074 -1.1363
  126MOL   H11542865   5.464   5.082   1.043  0.1470 -0.0646  2.5954
  126MOL   H11642866   5.223   4.886   1.208  0.5800 -0.5641  2.1712
  126MOL   H11742867   5.060   5.054   1.180 -1.4097  1.7905  0.8173
  126MOL   H11842868   5.023   5.275   1.104  0.9236 -0.0599  1.6121
  126MOL   H11942869   5.316   5.519   1.150  0.6274  0.8941 -0.6603
  126MOL   H12042870   5.148   5.506   1.193  1.1415 -1.5703 -0.7358
  126MOL   C12142871   5.202   5.692   1.105 -0.6270  0.1124 -0.2752
  126MOL   C12242872   5.186   5.744   1.251  0.8783 -0.1125 -0.4291
  126MOL   C12342873   5.295   5.791   1.326  0.1792 -0.6993  0.1174
  126MOL   C12442874   5.266   5.840   1.455  0.3067  0.1330  0.2138
  126MOL   C12542875   5.134   5.848   1.506 -0.1935  0.1657  0.0473
  126MOL   O12642876   5.113   5.909   1.624 -0.3968  0.4689 -0.2167
  126MOL   C12742877   5.029   5.808   1.429  0.7113  0.4477 -0.3311
  126MOL   C12842878   5.056   5.754   1.301 -0.0704  0.2341 -0.2327
  126MOL   C12942879   5.298   5.764   1.019 -0.2276 -0.0111 -0.0012
  126MOL   H13042880   5.105   5.718   1.062 -0.4442  1.4526  0.0864
  126MOL   H13142881   5.392   5.782   1.280  0.4460  0.2795  0.4824
  126MOL   H13242882   5.347   5.882   1.513 -0.2764 -0.4277  1.4561
  126MOL   H13342883   5.027   5.900   1.662  0.2710 -0.8839  1.0157
  126MOL   H13442884   4.932   5.817   1.475  0.3616 -0.0520 -0.9546
  126MOL   H13542885   4.974   5.716   1.243  0.3589 -1.7331  0.4134
  126MOL   H13642886   5.320   5.703   0.931 -1.1485  0.8544 -0.8383
  126MOL   H13742887   5.396   5.783   1.062  0.3384 -1.0902 -0.7884
  126MOL   C13842888   5.256   5.914   0.976 -0.0307  0.4270  0.5677
  126MOL   C13942889   5.145   5.901   0.872  0.2399  0.3419 -0.2005
  126MOL   C14042890   5.162   5.814   0.762  0.6951 -0.0581  0.0599
  126MOL   C14142891   5.058   5.805   0.666  0.1738 -0.3446 -0.1308
  126MOL   C14242892   4.939   5.883   0.679 -0.4286 -0.2395  0.0293
  126MOL   O14342893   4.845   5.879   0.580  0.3912 -0.5002 -0.2287
  126MOL   C14442894   4.929   5.973   0.788 -0.4304 -0.7300 -0.8471
  126MOL   C14542895   5.032   5.983   0.886 -0.2286 -0.5487  0.2764
  126MOL   C14642896   5.369   6.001   0.910 -0.7651  0.3797  0.4178
  126MOL   H14742897   5.206   5.969   1.056 -0.6978 -1.0004  1.1489
  126MOL   H14842898   5.260   5.774   0.741  1.5658  1.3275  1.4458
  126MOL   H14942899   5.064   5.738   0.582 -0.4377 -1.9324  1.0497
  126MOL   H15042900   4.869   5.829   0.504 -0.9702  1.5500 -2.0640
  126MOL   H15142901   4.850   6.046   0.796  0.4549 -0.0487  2.0453
  126MOL   H15242902   5.018   6.046   0.972  0.3983 -1.5150  1.0815
  126MOL   H15342903   5.335   6.024   0.810 -0.7278  2.6671  0.9205
  126MOL   H15442904   5.457   5.942   0.882 -0.5134  0.4306  1.0735
  126MOL   C15542905   5.396   6.141   0.988 -0.0717 -0.6208 -0.1124
  126MOL   C15642906   5.438   6.253   0.895 -0.1423 -0.5094 -0.3528
  126MOL   C15742907   5.351   6.363   0.871  0.0129 -1.0365  0.6364
  126MOL   C15842908   5.380   6.466   0.780  0.3154 -0.1889  0.2531
  126MOL   C15942909   5.506   6.466   0.704 -0.1236  0.0252 -0.4728
  126MOL   O16042910   5.533   6.555   0.607 -0.1085 -0.2043  0.3703
  126MOL   C16142911   5.589   6.351   0.728 -0.1898 -0.1359 -0.0737
  126MOL   C16242912   5.558   6.255   0.825 -0.6804 -0.0766  0.1276
  126MOL   C16342913   5.491   6.107   1.105 -0.0690 -0.5778  0.2950
  126MOL   H16442914   5.297   6.173   1.020  0.6813  1.7200 -0.0281
  126MOL   H16542915   5.252   6.366   0.912  0.0091  1.0041  0.5384
  126MOL   H16642916   5.302   6.537   0.761 -0.8620 -2.2053 -2.8496
  126MOL   H16742917   5.495   6.641   0.599  1.2272  0.2277 -1.8302
  126MOL   H16842918   5.680   6.342   0.669  0.3736  1.2190  0.5642
  126MOL   H16942919   5.622   6.168   0.832  0.6207  1.0004  2.0889
  126MOL   H17042920   5.590   6.084   1.066 -0.0752  0.3005 -0.2382
  126MOL   H17142921   5.440   6.026   1.158 -0.4380  0.1933  1.1412
  126MOL   C17242922   5.518   6.226   1.206  0.4139  0.3612 -0.4386
  126MOL   C17342923   5.627   6.199   1.310 -0.4496  0.0572 -0.2684
  126MOL   C17442924   5.607   6.104   1.415  0.5801  0.3355 -0.6956
  126MOL   C17542925   5.696   6.083   1.524  0.2382 -0.0951  0.0609
  126MOL   C17642926   5.815   6.158   1.524  0.1778 -0.1740  0.0466
  126MOL   O17742927   5.909   6.159   1.623  0.6424 -0.1917 -0.6111
  126MOL   C17842928   5.836   6.253   1.416 -0.1186  0.1801 -0.1479
  126MOL   C17942929   5.741   6.278   1.314 -0.2570  0.2036 -0.1223
  126MOL   C18042930   5.384   6.268   1.277 -0.7446  0.3939  0.0572
  126MOL   H18142931   5.548   6.316   1.154 -0.7035  0.0964 -1.5405
  126MOL   H18242932   5.516   6.047   1.427 -0.1349  1.5744 -0.1295
  126MOL   H18342933   5.666   6.011   1.598 -0.2576  0.9322  0.8656
  126MOL   H18442934   5.902   6.086   1.682  0.6401 -2.5427 -3.4252
  126MOL   H18542935   5.932   6.302   1.408  0.3498 -0.4198  1.4998
  126MOL   H18642936   5.761   6.359   1.245  1.0771 -0.7423 -0.8755
  126MOL   H18742937   5.344   6.180   1.328  0.2994  0.6016  1.2644
  126MOL   H18842938   5.302   6.288   1.208  0.7680 -0.9674 -2.2019
  126MOL   C18942939   5.397   6.390   1.372  0.1750  0.7635 -0.2188
  126MOL   C19042940   5.446   6.519   1.299  0.9117  0.0723  0.0036
  126MOL   C19142941   5.409   6.548   1.168  0.7939 -0.4081  0.1862
  126MOL   C19242942   5.478   6.651   1.100 -0.5320 -0.4383 -0.1851
  126MOL   C19342943   5.572   6.734   1.169  0.3545 -0.5274  0.5614
  126MOL   O19442944   5.637   6.836   1.104 -0.9184 -0.3331  0.5496
  126MOL   C19542945   5.604   6.706   1.305 -0.5999 -0.1499 -0.8633
  126MOL   C19642946   5.542   6.595   1.368 -0.4471 -0.1968  0.1516
  126MOL   C19742947   5.255   6.408   1.442 -0.1949  0.4481  0.9978
  126MOL   H19842948   5.477   6.364   1.441 -1.2613  0.0284  1.1794
  126MOL   H19942949   5.335   6.482   1.126  1.9664 -1.2601 -0.5455
  126MOL   H20042950   5.462   6.660   0.994  0.9789  0.5778 -0.3412
  126MOL   H20142951   5.690   6.895   1.155  0.9415 -1.3281 -0.1660
  126MOL   H20242952   5.669   6.773   1.360 -1.1989 -0.9071  0.8204
  126MOL   H20342953   5.562   6.584   1.473  0.8939  0.6326 -0.0034
  126MOL   H20442954   5.217   6.307   1.462 -1.0986  0.7025  0.5611
  126MOL   H20542955   5.183   6.465   1.384 -0.3892 -0.2795  0.5048
  126MOL   C20642956   5.280   6.481   1.581 -0.2111 -0.1094  0.3052
  126MOL   C20742957   5.349   6.386   1.673  0.0375 -0.6400  0.2177
  126MOL   C20842958   5.281   6.265   1.715  0.3882 -0.2527 -0.0570
  126MOL   C20942959   5.350   6.180   1.799 -0.4597  0.1872 -1.1223
  126MOL   C21042960   5.489   6.196   1.823  0.0654  0.4722  0.1468
  126MOL   O21142961   5.542   6.106   1.899  0.0838 -0.4701  0.2568
  126MOL   C21242962   5.559   6.312   1.780 -0.5981  0.7014 -0.2673
  126MOL   C21342963   5.485   6.409   1.707 -0.6557 -0.2373 -0.4552
  126MOL   C21442964   5.143   6.521   1.638  0.5360  0.3211  0.5655
  126MOL   H21542965   5.356   6.556   1.558  0.8696 -1.2304  0.1277
  126MOL   H21642966   5.181   6.242   1.680  1.4085 -2.4019 -1.6641
  126MOL   H21742967   5.298   6.091   1.834  2.0384 -0.7720  0.2441
  126MOL   H21842968   5.484   6.070   1.965  0.0083 -0.8461 -0.0110
  126MOL   H21942969   5.665   6.321   1.799 -0.6248 -3.2288  2.3293
  126MOL   H22042970   5.541   6.500   1.689 -0.5877  0.1049  1.3594
  126MOL   H22142971   5.155   6.542   1.744 -2.0406 -0.4383  1.0300
  126MOL   H22242972   5.064   6.446   1.631 -0.8338  1.7884  0.2826
  126MOL   C22342973   5.080   6.655   1.590 -0.1469  0.3749  0.6236
  126MOL   C22442974   5.181   6.774   1.565 -0.4774 -0.0290  0.5122
  126MOL   C22542975   5.232   6.789   1.433  0.2891  0.8978 -0.2512
  126MOL   C22642976   5.314   6.896   1.396  0.0272  0.4267  0.0206
  126MOL   C22742977   5.361   6.980   1.496  0.1289 -0.1056  0.2113
  126MOL   O22842978   5.462   7.073   1.467 -0.4339 -0.0271 -0.4805
  126MOL   C22942979   5.308   6.970   1.627 -0.3346 -0.3120  0.0955
  126MOL   C23042980   5.212   6.876   1.660 -0.5961 -0.2049 -0.0065
  126MOL   C23142981   4.970   6.696   1.699 -0.3602  0.0612 -0.0558
  126MOL   H23242982   5.032   6.639   1.493  1.0255  0.0858  0.0865
  126MOL   H23342983   5.203   6.726   1.350  0.9385  2.2879 -1.5577
  126MOL   H23442984   5.344   6.912   1.293  1.4770  1.6852  0.6346
  126MOL   H23542985   5.486   7.145   1.523  0.0809 -0.9085  0.4612
  126MOL   H23642986   5.338   7.047   1.696  0.4975  0.0625 -0.6597
  126MOL   H23742987   5.164   6.875   1.756  0.1805 -1.1642  0.3705
  126MOL   H23842988   4.894   6.618   1.711 -1.5818  1.3753  1.0095
  126MOL   H23942989   5.015   6.715   1.796 -0.6846  1.8283 -0.2394
  126MOL   C24042990   4.869   6.806   1.658  0.2777 -0.1287  0.5191
  126MOL   C24142991   4.762   6.751   1.560 -0.1393 -0.3107  0.0526
  126MOL   C24242992   4.639   6.702   1.601 -0.0398 -0.3001  0.3580
  126MOL   C24342993   4.548   6.659   1.502  0.4516  0.1814 -1.2468
  126MOL   C24442994   4.579   6.655   1.364  0.0098 -0.2544 -0.5540
  126MOL   O24542995   4.488   6.603   1.282  0.2508  0.2380 -0.2188
  126MOL   C24642996   4.708   6.703   1.321 -0.4104 -0.1828 -0.0623
  126MOL   C24742997   4.794   6.749   1.416 -0.3177  0.0349 -0.2021
  126MOL   C24842998   4.808   6.885   1.775 -0.0033  0.0205 -0.3639
  126MOL   H24942999   4.923   6.882   1.601 -0.7540  0.0006 -0.3124
  126MOL   H25043000   4.619   6.693   1.707  0.4692  0.2658  0.5069
  126MOL   H25143001   4.454   6.613   1.530  2.0800 -1.5360  1.5880
  126MOL   H25243002   4.517   6.585   1.194  1.4586  0.5852  0.0986
  126MOL   H25343003   4.742   6.697   1.219  1.0375 -1.2484  0.4616
  126MOL   H25443004   4.885   6.799   1.387  0.6452 -1.0509  0.8727
  126MOL   H25543005   4.754   6.963   1.722 -1.2759 -0.3287  0.3990
  126MOL   H25643006   4.733   6.834   1.835  1.0296 -0.9139  0.1605
  126MOL   C25743007   4.911   6.968   1.866  0.0128 -1.0433 -1.0414
  126MOL   C25843008   4.868   7.120   1.879  0.3637  0.0235 -0.5762
  126MOL   C25943009   4.969   7.216   1.853 -0.4643 -0.2204  0.3612
  126MOL   C26043010   4.940   7.353   1.878 -0.0904 -0.3069  0.4947
  126MOL   C26143011   4.806   7.395   1.904  0.2304 -0.5342 -0.0985
  126MOL   O26243012   4.777   7.529   1.908  0.5397 -0.6960  0.1785
  126MOL   C26343013   4.696   7.302   1.925  0.1496  0.6890  0.0868
  126MOL   C26443014   4.735   7.163   1.920  0.0027  0.5640 -0.0329
  126MOL   C26543015   4.926   6.913   2.012 -0.1271  0.2182 -0.0237
  126MOL   H26643016   5.011   6.976   1.823  0.8376  0.7550  1.0790
  126MOL   H26743017   5.064   7.197   1.804 -0.0069  0.4162  1.0140
  126MOL   H26843018   5.011   7.433   1.863 -1.4604  0.8676  0.1915
  126MOL   H26943019   4.851   7.575   1.871 -0.0645  0.2971  0.1893
  126MOL   H27043020   4.602   7.337   1.964 -1.6875 -1.5434 -2.1956
  126MOL   H27143021   4.664   7.083   1.940  0.8661  0.0675  1.0828
  126MOL   H27243022   4.931   6.804   2.001  0.0342  0.1793  0.4519
  126MOL   H27343023   4.830   6.937   2.059  1.1377  0.9970  2.1914
  126MOL   C27443024   5.046   6.955   2.096 -0.3985 -0.1976  0.3268
  126MOL   C27543025   5.173   6.908   2.024 -0.2993 -0.2439  0.0624
  126MOL   C27643026   5.199   6.769   2.009 -0.8972  0.5208  0.2908
  126MOL   C27743027   5.318   6.727   1.948  0.3928 -0.2678  0.0926
  126MOL   C27843028   5.412   6.817   1.908 -0.1954  0.1223 -0.7108
  126MOL   O27943029   5.527   6.772   1.853 -0.3226  0.5175  0.3443
  126MOL   C28043030   5.393   6.961   1.936  0.2009  0.1047  0.1516
  126MOL   C28143031   5.268   7.006   1.983  0.5088  0.6196 -0.4293
  126MOL   C28243032   5.044   6.877   2.232 -1.1295 -0.0875 -0.4420
  126MOL   H28343033   5.054   7.063   2.106 -2.0377 -0.1256  0.9522
  126MOL   H28443034   5.132   6.691   2.042  1.1470 -1.7497 -0.7978
  126MOL   H28543035   5.342   6.623   1.928  1.0789 -0.1041  0.0614
  126MOL   H28643036   5.553   6.690   1.893 -0.9960  0.1888  0.1261
  126MOL   H28743037   5.470   7.028   1.903  1.4241 -1.6190 -0.5706
  126MOL   H28843038   5.244   7.109   2.008 -0.5659 -0.0554  1.4060
  126MOL   H28943039   4.986   6.785   2.220 -0.2543 -0.4842 -1.7317
  126MOL   H29043040   5.148   6.855   2.255 -1.3341 -0.3803  0.2011
  126MOL   C29143041   5.003   6.969   2.342 -0.9433 -0.0571 -0.3455
  126MOL   C29243042   5.080   7.103   2.351  0.6243  0.5301 -0.4753
  126MOL   C29343043   5.006   7.214   2.404 -0.4263 -0.6380  0.1087
  126MOL   C29443044   5.070   7.340   2.417 -0.1041  0.1230 -0.1076
  126MOL   C29543045   5.204   7.350   2.381 -0.6484 -0.0744 -0.0669
  126MOL   O29643046   5.261   7.473   2.380  0.5185  0.3301 -0.6339
  126MOL   C29743047   5.283   7.241   2.345  0.0826  0.4871  0.4832
  126MOL   C29843048   5.218   7.119   2.327  0.2836 -0.1453  0.0163
  126MOL   C29943049   4.995   6.890   2.481  0.6925  0.3832 -0.3377
  126MOL   H30043050   4.901   6.994   2.314 -1.7169 -2.1784  0.4838
  126MOL   H30143051   4.905   7.219   2.443 -0.2731  2.5276  0.2092
  126MOL   H30243052   5.012   7.428   2.439  1.2076  0.6878  1.1719
  126MOL   H30343053   5.199   7.544   2.387 -1.4446 -1.2819 -0.9135
  126MOL   H30443054   5.389   7.257   2.340  0.7408 -1.6106  5.0201
  126MOL   H30543055   5.270   7.028   2.305  0.9735 -0.2658  2.0884
  126MOL   H30643056   4.970   6.958   2.562  0.5692 -0.2874  0.1844
  126MOL   H30743057   5.097   6.869   2.514  1.2492  1.3534 -1.3916
  126MOL   C30843058   4.884   6.785   2.490 -0.4161  0.2717  0.5464
  126MOL   C30943059   4.750   6.839   2.453 -0.3860 -0.5215  0.2833
  126MOL   C31043060   4.679   6.934   2.531 -0.7199 -0.0223  0.1338
  126MOL   C31143061   4.552   6.981   2.482  0.0022  0.8182 -0.1173
  126MOL   C31243062   4.500   6.942   2.359  0.0371  0.4378  0.2788
  126MOL   O31343063   4.385   7.003   2.325 -0.1300  0.3841 -0.5613
  126MOL   C31443064   4.560   6.839   2.290  0.3130 -0.1659 -0.1529
  126MOL   C31543065   4.687   6.784   2.338  0.0385  0.0376 -0.2684
  126MOL   C31643066   4.881   6.697   2.622  0.6354 -0.7612  1.0302
  126MOL   H31743067   4.913   6.713   2.414 -2.1239  0.9834 -0.8096
  126MOL   H31843068   4.715   7.000   2.608  1.6652 -0.3995 -0.6242
  126MOL   H31943069   4.510   7.069   2.530  1.6696  1.1629  0.7543
  126MOL   H32043070   4.327   6.956   2.266 -1.0303 -0.0949  0.6872
  126MOL   H32143071   4.516   6.794   2.202 -1.6413  2.3847 -0.5541
  126MOL   H32243072   4.732   6.702   2.284 -0.2682  0.8276 -1.7528
  126MOL   H32343073   4.808   6.618   2.605  1.6745 -0.9648 -3.2272
  126MOL   H32443074   4.845   6.760   2.703 -0.8312 -2.1611  1.4757
  126MOL   C32543075   5.016   6.620   2.651 -0.0482  0.8039  0.0969
  126MOL   C32643076   5.068   6.543   2.526  1.0322  0.3134 -0.1024
  126MOL   C32743077   5.177   6.586   2.450 -0.3828  0.4056 -0.1696
  126MOL   C32843078   5.202   6.528   2.322 -0.7873  0.1514  0.3899
  126MOL   C32943079   5.135   6.415   2.279 -0.3586  0.2415  0.2045
  126MOL   O33043080   5.172   6.347   2.164  0.1559 -0.0627  0.5858
  126MOL   C33143081   5.025   6.370   2.354 -0.0675  0.0233  0.3632
  126MOL   C33243082   4.990   6.436   2.471 -0.2538  0.6336 -0.4505
  126MOL   C33343083   5.002   6.530   2.777 -1.0318 -0.2717  0.0173
  126MOL   H33443084   5.088   6.695   2.686  0.1589  0.9639 -0.6546
  126MOL   H33543085   5.240   6.670   2.476 -0.5461  1.3833 -2.7087
  126MOL   H33643086   5.287   6.559   2.262 -0.1450 -0.4177  1.0052
  126MOL   H33743087   5.256   6.372   2.130 -0.7426  0.9230 -0.9521
  126MOL   H33843088   4.966   6.285   2.323 -0.2694 -0.3533  1.7381
  126MOL   H33943089   4.896   6.399   2.507 -0.8459  2.8162  0.3502
  126MOL   H34043090   4.942   6.442   2.752 -2.1446  0.4906 -0.0235
  126MOL   H34143091   4.943   6.585   2.850 -1.6072 -0.0245 -0.6240
  126MOL   H34243092   5.102   6.500   2.806 -0.4951  0.9913 -0.5031
  127MOL     C143093   5.875   7.875   0.187 -0.9126  0.6892 -0.2232
  127MOL     C243094   6.023   7.845   0.187  0.2732 -0.5781 -0.3138
  127MOL     C343095   6.090   7.909   0.291 -0.1376  0.3328  0.2695
  127MOL     C443096   6.223   7.873   0.310  0.1283 -0.2750  0.2370
  127MOL     C543097   6.288   7.777   0.231  0.0699  0.7517  0.9153
  127MOL     O643098   6.420   7.744   0.258  0.1493  0.2203 -0.5693
  127MOL     C743099   6.220   7.705   0.130 -0.3367  0.0894  0.3721
  127MOL     C843100   6.091   7.754   0.101 -0.7360 -0.5115  0.7825
  127MOL     C943101   5.830   8.016   0.132 -0.5350  0.2681  0.7702
  127MOL    H1043102   5.815   7.797   0.140 -0.2374  0.4460 -0.6851
  127MOL    H1143103   6.040   7.981   0.353  0.7824  0.5837  0.7346
  127MOL    H1243104   6.280   7.908   0.395 -0.3952  0.7053  0.1931
  127MOL    H1343105   6.451   7.773   0.343 -0.1450 -1.3572  0.1082
  127MOL    H1443106   6.270   7.630   0.071 -0.1275  2.4456 -2.5556
  127MOL    H1543107   6.047   7.708   0.013 -3.3652 -0.1531  1.8584
  127MOL    H1643108   5.865   0.005   0.032 -0.7567  0.4797  0.7493
  127MOL    H1743109   5.874   0.055   0.196 -0.9085  0.0518  1.2888
  127MOL    H1843110   5.844   7.867   0.291 -0.9487  5.4097  0.2450
  127MOL    C1943111   5.677   0.001   0.133  0.1716 -0.1116  0.4590
  127MOL    C2043112   5.605   7.933   0.057  0.3815  0.4267  1.1220
  127MOL    C2143113   5.531   7.832   0.121 -0.5739  0.3344 -0.7273
  127MOL    C2243114   5.457   7.737   0.046  0.2739  0.1113  0.1095
  127MOL    C2343115   5.447   7.751   7.944 -0.1687  0.1632  0.4122
  127MOL    O2443116   5.365   7.668   7.866  0.6847 -0.1018  0.2139
  127MOL    C2543117   5.527   7.847   7.876  0.1467  0.0260  0.4677
  127MOL    C2643118   5.602   7.940   7.954 -0.3742 -0.8054  0.3078
  127MOL    C2743119   5.640   0.142   0.089 -0.6078  0.0855  0.0089
  127MOL    H2843120   5.637   8.019   0.233  0.7286 -0.8802  0.5403
  127MOL    H2943121   5.532   7.828   0.229  0.3177 -0.3971 -0.7543
  127MOL    H3043122   5.406   7.662   0.105 -1.4618  0.7546 -0.5469
  127MOL    H3143123   5.312   7.701   7.795  1.8168 -0.0004 -0.5952
  127MOL    H3243124   5.521   7.873   7.771  0.7012 -0.5902  0.2792
  127MOL    H3343125   5.661   8.014   7.903  1.1158 -1.3839  1.1479
  127MOL    H3443126   5.684   0.147   8.027 -2.1547  2.7790 -0.5949
  127MOL    H3543127   5.694   0.215   0.150 -1.8526  1.6409 -0.7020
  127MOL    C3643128   5.490   0.171   0.090 -0.5439 -0.6952  0.6882
  127MOL    C3743129   5.455   0.237   7.996 -0.4007  0.1340 -0.6823
  127MOL    C3843130   5.377   0.162   7.913  0.8278  0.5493  0.4990
  127MOL    C3943131   5.333   0.219   7.791 -0.0938 -1.2681  0.2303
  127MOL    C4043132   5.370   0.343   7.752 -0.5447 -0.0307 -0.2263
  127MOL    O4143133   5.324   0.389   7.639  0.2568 -0.4332  0.2697
  127MOL    C4243134   5.450   0.423   7.837 -0.2587  0.1770 -0.3745
  127MOL    C4343135   5.494   0.368   7.962 -0.5190  0.1723  0.5619
  127MOL    C4443136   5.451   0.260   0.215  0.0486  0.0648  0.3903
  127MOL    H4543137   5.433   0.078   0.091 -1.8126  0.0273 -1.1994
  127MOL    H4643138   5.360   0.055   7.919 -0.1299  0.3679 -3.7947
  127MOL    H4743139   5.283   0.159   7.716 -2.7790  0.9322  0.1570
  127MOL    H4843140   5.332   0.482   7.621  2.3003 -1.2035 -3.4437
  127MOL    H4943141   5.461   0.529   7.820 -0.7901  0.2310 -0.3935
  127MOL    H5043142   5.567   0.415   8.025  0.2838 -1.6575  1.0527
  127MOL    H5143143   5.483   0.219   0.311 -1.4375  1.2031  1.3960
  127MOL    H5243144   5.502   0.356   0.213  1.8220 -0.8672 -0.4277
  127MOL    C5343145   5.299   0.278   0.234 -0.2434 -0.0696 -0.0597
  127MOL    C5443146   5.228   0.147   0.229 -0.3272  0.1360 -0.1759
  127MOL    C5543147   5.252   0.051   0.328  0.3304  0.2353 -0.0713
  127MOL    C5643148   5.190   7.959   0.319 -0.8992  0.1443 -0.1141
  127MOL    C5743149   5.112   7.928   0.210  0.3324 -0.5182  0.4997
  127MOL    O5843150   5.075   7.803   0.189 -0.4286 -0.2407  0.4004
  127MOL    C5943151   5.102   8.020   0.108  0.0590  0.2377 -0.1422
  127MOL    C6043152   5.146   0.115   0.120 -0.8040 -0.3390  0.9962
  127MOL    C6143153   5.270   0.359   0.365 -0.4267  0.4937  0.2812
  127MOL    H6243154   5.255   0.335   0.151  0.4092  1.2171  0.4607
  127MOL    H6343155   5.320   0.065   0.410  0.0310  1.9481 -0.0874
  127MOL    H6443156   5.214   7.881   0.389  2.6386  0.3602 -0.9990
  127MOL    H6543157   5.093   7.741   0.258  0.8320 -0.3621 -0.0306
  127MOL    H6643158   5.047   7.996   0.018  1.9081 -3.0061 -0.4896
  127MOL    H6743159   5.122   0.178   0.036 -0.4501 -1.5832 -0.0490
  127MOL    H6843160   5.331   0.449   0.360 -0.3614  0.4382  0.0958
  127MOL    H6943161   5.318   0.311   0.451  1.7248  2.3297  0.1380
  127MOL    C7043162   5.119   0.397   0.389  0.4273 -0.3978 -1.1302
  127MOL    C7143163   5.046   0.432   0.257 -0.5165  0.0968 -0.1428
  127MOL    C7243164   5.099   0.532   0.171 -0.0554 -0.2505  0.0407
  127MOL    C7343165   5.044   0.548   0.045  0.8079 -0.4920  0.5707
  127MOL    C7443166   4.939   0.467   8.036 -0.2787  1.0429  0.1742
  127MOL    O7543167   4.885   0.469   7.910  0.5034 -0.4394 -0.0824
  127MOL    C7643168   4.881   0.378   0.088  0.6536  0.0282 -0.9142
  127MOL    C7743169   4.932   0.360   0.219 -0.0681 -0.0349 -0.6586
  127MOL    C7843170   5.095   0.507   0.492 -0.2792 -0.2469 -0.1809
  127MOL    H7943171   5.063   0.309   0.419  0.0140  0.0547 -0.5815
  127MOL    H8043172   5.193   0.581   0.189 -0.1290 -0.1391  0.1241
  127MOL    H8143173   5.098   0.606   8.009  2.8032 -2.2619  0.5780
  127MOL    H8243174   4.934   0.525   7.853 -3.6277  1.0432 -2.4066
  127MOL    H8343175   4.793   0.322   0.062 -0.7775  1.8665 -0.1732
  127MOL    H8443176   4.884   0.280   0.273 -0.8464  1.5198  1.0170
  127MOL    H8543177   4.990   0.538   0.494  0.4762  2.3857  0.7641
  127MOL    H8643178   5.150   0.597   0.463  0.7529 -1.7319 -3.0450
  127MOL    C8743179   5.127   0.464   0.639  0.4091 -0.2474 -0.7012
  127MOL    C8843180   5.038   0.345   0.689  1.1027 -0.4488 -1.0618
  127MOL    C8943181   4.904   0.366   0.737 -0.9241 -0.5451  0.0736
  127MOL    C9043182   4.828   0.264   0.783 -0.4883  0.2882  0.2696
  127MOL    C9143183   4.874   0.135   0.768 -0.1537 -0.1909  0.4305
  127MOL    O9243184   4.794   0.023   0.782 -0.4325 -0.0827 -0.3880
  127MOL    C9343185   5.006   0.107   0.725 -0.3373 -0.3585  0.1690
  127MOL    C9443186   5.091   0.216   0.686  0.1912 -0.4091  0.0851
  127MOL    C9543187   5.129   0.576   0.742 -0.1090  0.0854  0.4438
  127MOL    H9643188   5.227   0.422   0.642 -0.3529 -2.0439  0.5790
  127MOL    H9743189   4.862   0.465   0.745 -0.5369 -0.3428 -0.4069
  127MOL    H9843190   4.727   0.287   0.811 -0.4718 -0.5431  1.0344
  127MOL    H9943191   4.702   0.040   0.793 -0.4698 -1.2764  1.3994
  127MOL   H10043192   5.051   0.009   0.728 -2.3064 -1.2605  1.4206
  127MOL   H10143193   5.191   0.194   0.650 -0.4275  0.2735 -2.0721
  127MOL   H10243194   5.025   0.602   0.762  0.6109  4.5264 -0.9959
  127MOL   H10343195   5.151   0.527   0.837  1.8974 -0.5762 -0.3155
  127MOL   C10443196   5.223   0.697   0.714 -0.3685  0.0248 -0.0163
  127MOL   C10543197   5.343   0.663   0.619  0.6481  0.3272 -0.0395
  127MOL   C10643198   5.357   0.739   0.504 -0.5127 -0.3253 -0.5319
  127MOL   C10743199   5.472   0.734   0.427  0.5822  0.0201 -0.2847
  127MOL   C10843200   5.575   0.645   0.463  0.1820  0.4598 -0.2973
  127MOL   O10943201   5.693   0.637   0.390 -0.3257 -0.0559 -0.1476
  127MOL   C11043202   5.564   0.565   0.576  0.0853 -0.7708  0.0691
  127MOL   C11143203   5.453   0.578   0.657 -0.0038  0.4891  0.5904
  127MOL   C11243204   5.275   0.756   0.853 -0.4444 -0.9283 -0.1346
  127MOL   H11343205   5.162   0.774   0.668 -1.5737 -0.5336  0.6205
  127MOL   H11443206   5.285   0.812   0.471 -1.5361 -0.2204  1.8044
  127MOL   H11543207   5.488   0.804   0.346 -0.4469 -0.0388 -0.5412
  127MOL   H11643208   5.739   0.557   0.412  0.9285  1.2451  2.3206
  127MOL   H11743209   5.637   0.492   0.607  1.6662  1.0581  0.8297
  127MOL   H11843210   5.444   0.507   0.738 -0.8800 -1.3770 -1.0936
  127MOL   H11943211   5.356   0.699   0.899  0.0269 -1.3845 -1.4941
  127MOL   H12043212   5.184   0.760   0.912 -0.8507  0.9053 -0.8706
  127MOL   C12143213   5.329   0.894   0.835  0.2265 -0.6382 -0.5309
  127MOL   C12243214   5.226   0.997   0.778 -0.0228  0.7569  0.2013
  127MOL   C12343215   5.260   1.096   0.677 -0.5328 -0.4228 -0.2126
  127MOL   C12443216   5.170   1.183   0.618  0.2879  0.0600  0.4884
  127MOL   C12543217   5.037   1.179   0.660 -0.7473 -1.2630  0.0511
  127MOL   O12643218   4.948   1.278   0.609 -0.3914  0.2105 -0.3566
  127MOL   C12743219   4.997   1.086   0.759  0.3681 -0.3387  0.7779
  127MOL   C12843220   5.087   0.996   0.817 -0.5690 -0.3113  0.4536
  127MOL   C12943221   5.386   0.945   0.972 -0.8834 -0.0342 -0.0750
  127MOL   H13043222   5.410   0.898   0.762  1.1470 -1.7628  0.4020
  127MOL   H13143223   5.362   1.110   0.643 -1.0429  2.8160 -0.5580
  127MOL   H13243224   5.200   1.246   0.536 -1.3139  1.0240  0.6392
  127MOL   H13343225   4.980   1.322   0.531  0.1398 -0.6045 -0.6079
  127MOL   H13443226   4.891   1.092   0.779 -0.5580 -1.3730 -3.2851
  127MOL   H13543227   5.053   0.927   0.892  0.8373 -0.3306  1.0928
  127MOL   H13643228   5.443   0.861   1.012 -2.1932 -2.1469 -2.5618
  127MOL   H13743229   5.300   0.959   1.037 -0.4585 -0.4976  0.5976
  127MOL   C13843230   5.482   1.060   0.972 -0.1832  0.0424  0.2102
  127MOL   C13943231   5.592   1.035   0.868 -0.8649  0.1575  0.9836
  127MOL   C14043232   5.607   1.111   0.750 -0.5599  0.3243 -0.0987
  127MOL   C14143233   5.686   1.072   0.642 -0.0064  0.7428  0.3378
  127MOL   C14243234   5.752   0.949   0.652 -0.8008 -0.3818  0.5385
  127MOL   O14343235   5.826   0.894   0.551  0.0882  0.1448 -0.0732
  127MOL   C14443236   5.741   0.872   0.771 -0.6377 -0.1066 -0.1729
  127MOL   C14543237   5.667   0.914   0.875  0.8017 -0.9148  0.3418
  127MOL   C14643238   5.527   1.087   1.117  0.0056 -0.4941  0.8004
  127MOL   H14743239   5.418   1.142   0.941 -2.2353 -1.7081 -0.2956
  127MOL   H14843240   5.553   1.204   0.739 -0.8190 -0.0823 -2.7178
  127MOL   H14943241   5.698   1.136   0.555  0.1286  2.6284  1.7237
  127MOL   H15043242   5.817   0.801   0.539  1.9099  0.1770 -2.2496
  127MOL   H15143243   5.792   0.777   0.781  0.9107  0.9637  2.8430
  127MOL   H15243244   5.654   0.859   0.966 -1.7648  1.4307  1.4736
  127MOL   H15343245   5.601   1.008   1.129  1.4611  0.0708 -3.5516
  127MOL   H15443246   5.449   1.078   1.192  0.3794  1.1180  1.3962
  127MOL   C15543247   5.584   1.233   1.127 -0.1035 -0.1275 -0.1429
  127MOL   C15643248   5.666   1.233   1.255 -0.0892  0.3081  0.1754
  127MOL   C15743249   5.620   1.293   1.371 -0.4184  0.0751  0.0485
  127MOL   C15843250   5.688   1.283   1.494  0.4968  1.1424  0.0199
  127MOL   C15943251   5.811   1.217   1.496 -0.0459  0.8038 -0.4717
  127MOL   O16043252   5.877   1.210   1.613  0.2122 -0.3194 -0.1055
  127MOL   C16143253   5.869   1.167   1.379  0.6171  0.2423  0.3344
  127MOL   C16243254   5.797   1.178   1.260  0.6177  0.2010 -0.3453
  127MOL   C16343255   5.473   1.340   1.118  0.1838 -0.3128 -0.1802
  127MOL   H16443256   5.663   1.251   1.055 -0.0529  0.9387  0.1736
  127MOL   H16543257   5.532   1.355   1.378  0.6483  1.9619 -2.5728
  127MOL   H16643258   5.641   1.327   1.580  2.0845  2.3989  0.2776
  127MOL   H16743259   5.929   1.133   1.632 -0.8832 -0.9764  0.2650
  127MOL   H16843260   5.959   1.108   1.374  1.0264  0.9003 -0.0790
  127MOL   H16943261   5.843   1.131   1.174 -0.7572 -0.4063 -0.7636
  127MOL   H17043262   5.421   1.330   1.213 -0.3385  0.6783 -0.3588
  127MOL   H17143263   5.404   1.334   1.034  1.4865  1.9153 -1.4921
  127MOL   C17243264   5.525   1.490   1.114 -0.3721  0.0266 -0.8748
  127MOL   C17343265   5.446   1.580   1.214  0.1525  0.0008  0.4601
  127MOL   C17443266   5.512   1.692   1.269 -0.0939  0.2996 -0.1643
  127MOL   C17543267   5.444   1.778   1.354 -0.7274  0.5491  1.0565
  127MOL   C17643268   5.308   1.757   1.387  0.4181 -0.7606 -0.4159
  127MOL   O17743269   5.243   1.845   1.465  0.2930 -1.0828 -0.2327
  127MOL   C17843270   5.241   1.657   1.321  0.0401 -0.1209 -1.0459
  127MOL   C17943271   5.308   1.557   1.242  0.5034 -0.9156 -0.0876
  127MOL   C18043272   5.527   1.550   0.970 -0.0693  0.4683  0.0834
  127MOL   H18143273   5.626   1.487   1.153 -1.0166  0.2472  0.8386
  127MOL   H18243274   5.619   1.701   1.252 -0.2276  1.1603 -0.5562
  127MOL   H18343275   5.496   1.864   1.392  1.9952 -1.1564  1.3408
  127MOL   H18443276   5.155   1.822   1.489 -0.5156  0.8123 -1.2829
  127MOL   H18543277   5.137   1.648   1.348  0.3672  0.2464  0.3588
  127MOL   H18643278   5.259   1.474   1.194 -0.5917  0.5471 -1.5999
  127MOL   H18743279   5.529   1.659   0.979 -1.0093  0.7017 -2.0779
  127MOL   H18843280   5.432   1.535   0.918 -0.7666  2.4673  0.7069
  127MOL   C18943281   5.645   1.502   0.882  0.1347  0.4059  0.0940
  127MOL   C19043282   5.614   1.555   0.741 -0.1277 -0.5926 -0.0099
  127MOL   C19143283   5.584   1.694   0.721  0.2171 -0.6523  0.2170
  127MOL   C19243284   5.538   1.731   0.592 -0.4069  0.0221  0.2585
  127MOL   C19343285   5.513   1.637   0.488 -0.5464  0.1408 -0.1281
  127MOL   O19443286   5.461   1.673   0.370 -0.4160  0.3310 -0.1045
  127MOL   C19543287   5.536   1.504   0.506 -0.0527  0.4643 -0.1399
  127MOL   C19643288   5.597   1.464   0.631  0.9069 -0.3615  0.0523
  127MOL   C19743289   5.785   1.557   0.926  0.1782 -0.1966  0.5828
  127MOL   H19843290   5.631   1.394   0.876 -0.6768  0.5509 -0.8423
  127MOL   H19943291   5.607   1.769   0.795  0.9913 -0.9084  0.2506
  127MOL   H20043292   5.525   1.837   0.583  2.2207  0.3596  0.1088
  127MOL   H20143293   5.497   1.755   0.341  1.9829 -1.1166 -1.3326
  127MOL   H20243294   5.522   1.437   0.423  1.9206  0.3796 -0.4172
  127MOL   H20343295   5.631   1.364   0.652  0.8951  0.0290  2.0525
  127MOL   H20443296   5.776   1.583   1.032 -0.2789  1.5825  0.1184
  127MOL   H20543297   5.808   1.647   0.871 -0.1054 -1.2824 -1.3534
  127MOL   C20643298   5.893   1.442   0.932 -0.5138  0.1836 -0.6226
  127MOL   C20743299   6.020   1.485   1.014 -0.3838  0.2133  0.1282
  127MOL   C20843300   6.096   1.601   0.974  0.0740  0.7644 -0.3935
  127MOL   C20943301   6.202   1.638   1.054  0.0691 -0.2857  0.1589
  127MOL   C21043302   6.250   1.564   1.162  0.2148  0.3765 -0.0314
  127MOL   O21143303   6.348   1.608   1.246 -0.2326  0.3118  0.0748
  127MOL   C21243304   6.183   1.441   1.188  0.7186 -0.2235  0.3206
  127MOL   C21343305   6.063   1.406   1.122  0.9961 -0.3367 -0.2789
  127MOL   C21443306   5.926   1.385   0.791  0.6906  0.7628  0.9034
  127MOL   H21543307   5.852   1.358   0.987 -1.1855  2.6467  2.7629
  127MOL   H21643308   6.070   1.655   0.884 -0.3158 -2.3668 -2.2068
  127MOL   H21743309   6.250   1.730   1.024 -0.5292 -0.1428 -0.3697
  127MOL   H21843310   6.359   1.568   1.331 -0.8800  0.6933  0.3384
  127MOL   H21943311   6.215   1.373   1.266 -1.7326 -1.6752  0.0870
  127MOL   H22043312   6.020   1.310   1.146 -2.5646  1.2354 -0.0502
  127MOL   H22143313   5.922   1.463   0.716  1.0264 -1.0691 -1.0495
  127MOL   H22243314   5.848   1.311   0.775  0.6312  0.1523  3.6924
  127MOL   C22343315   6.058   1.302   0.766 -0.0679 -0.1652 -0.2177
  127MOL   C22443316   6.081   1.202   0.884 -0.0615 -0.8551 -0.4990
  127MOL   C22543317   5.981   1.106   0.912 -0.0491  0.3959  0.5929
  127MOL   C22643318   5.989   1.018   1.017 -0.8517  0.0743  0.3572
  127MOL   C22743319   6.112   1.018   1.091  0.3440  0.1039 -0.4501
  127MOL   O22843320   6.143   0.923   1.185 -0.3915  0.6479  0.4262
  127MOL   C22943321   6.207   1.112   1.062  0.0261  0.1138 -0.7736
  127MOL   C23043322   6.198   1.200   0.956 -0.2509  0.0960  0.4428
  127MOL   C23143323   6.174   1.399   0.742 -0.1595  0.7661  1.1527
  127MOL   H23243324   6.043   1.232   0.683  2.0574 -1.0861  0.1269
  127MOL   H23343325   5.891   1.123   0.855  0.4859 -1.6274 -0.8813
  127MOL   H23443326   5.906   0.950   1.030 -1.7127  1.1347  0.4758
  127MOL   H23543327   6.236   0.912   1.183 -0.7176 -3.1085  2.6253
  127MOL   H23643328   6.297   1.105   1.122 -0.2308 -0.5610 -0.4673
  127MOL   H23743329   6.279   1.266   0.925 -1.8756  2.3614  0.8974
  127MOL   H23843330   6.151   1.496   0.698  1.6266  0.2860 -0.9458
  127MOL   H23943331   6.229   1.426   0.832  2.7373 -2.2321  0.3735
  127MOL   C24043332   6.282   1.354   0.645  0.0672 -0.0137 -0.3040
  127MOL   C24143333   6.217   1.317   0.514 -0.1499 -0.3857  0.3645
  127MOL   C24243334   6.174   1.427   0.443 -0.4048 -0.6675  0.9226
  127MOL   C24343335   6.107   1.409   0.320  0.4170  0.1404  0.4363
  127MOL   C24443336   6.069   1.283   0.282  0.4531  0.7475  0.3455
  127MOL   O24543337   5.987   1.266   0.173  0.4343  0.0873  0.0223
  127MOL   C24643338   6.113   1.169   0.354  0.4076  0.2170 -0.1114
  127MOL   C24743339   6.185   1.185   0.474 -0.5523 -0.0333 -0.2241
  127MOL   C24843340   6.397   1.465   0.645 -0.2027  0.1203 -0.1250
  127MOL   H24943341   6.332   1.264   0.680 -1.1473 -0.3931  0.4960
  127MOL   H25043342   6.209   1.525   0.471 -0.1538 -0.3482 -0.4560
  127MOL   H25143343   6.079   1.492   0.256  2.0475 -0.7317 -1.4548
  127MOL   H25243344   5.974   1.176   0.148  2.7162 -0.2777 -0.0027
  127MOL   H25343345   6.094   1.067   0.323  2.6710  0.6535 -3.1847
  127MOL   H25443346   6.219   1.099   0.530  0.1974 -0.8012 -1.8385
  127MOL   H25543347   6.362   1.568   0.635 -0.9490 -0.2384 -1.3476
  127MOL   H25643348   6.444   1.461   0.743  1.0474 -3.3665 -0.7950
  127MOL   C25743349   6.517   1.464   0.543  0.9508  0.1169  0.2149
  127MOL   C25843350   6.616   1.573   0.592  0.2858 -0.2825 -0.6268
  127MOL   C25943351   6.676   1.565   0.723  0.7417 -0.8862 -0.6979
  127MOL   C26043352   6.747   1.677   0.774  0.0306  1.0516 -0.2661
  127MOL   C26143353   6.761   1.795   0.702  0.3760 -0.1928  0.6670
  127MOL   O26243354   6.852   1.882   0.742 -0.6091  0.0980 -0.2597
  127MOL   C26343355   6.703   1.803   0.572 -0.5442 -0.6340  0.1958
  127MOL   C26443356   6.638   1.692   0.523 -0.0138 -0.7349 -0.0485
  127MOL   C26543357   6.578   1.324   0.532  0.9665 -0.8016 -0.0531
  127MOL   H26643358   6.478   1.477   0.442  2.3513  1.9189 -0.1092
  127MOL   H26743359   6.660   1.484   0.792  2.1611 -0.0270  0.6728
  127MOL   H26843360   6.791   1.673   0.873 -0.0399 -0.3820 -0.2859
  127MOL   H26943361   6.873   1.952   0.682  1.3093  0.9487  1.3461
  127MOL   H27043362   6.721   1.887   0.507 -1.4050 -1.0430 -0.5804
  127MOL   H27143363   6.593   1.705   0.425  3.1444  1.3325 -1.3034
  127MOL   H27243364   6.502   1.259   0.490  0.5473  0.2933 -1.0120
  127MOL   H27343365   6.584   1.290   0.635  2.1555 -1.3893 -0.3045
  127MOL   C27443366   6.715   1.308   0.459  0.3348 -0.1101  0.3622
  127MOL   C27543367   6.836   1.327   0.550  0.3227 -0.2448 -0.5799
  127MOL   C27643368   6.868   1.223   0.643  0.3571  0.2119 -0.1962
  127MOL   C27743369   6.996   1.239   0.713  0.1483  0.0762 -0.1005
  127MOL   C27843370   7.081   1.352   0.696 -0.6881 -0.2800 -0.0282
  127MOL   O27943371   7.198   1.362   0.759 -0.2969 -0.1191  0.1437
  127MOL   C28043372   7.037   1.450   0.610  0.4864 -0.0487 -0.3456
  127MOL   C28143373   6.919   1.442   0.534 -1.0819 -0.2986  0.5594
  127MOL   C28243374   6.727   1.383   0.325 -0.2092 -0.5121  0.2440
  127MOL   H28343375   6.723   1.204   0.429  0.8325  0.4362 -1.4754
  127MOL   H28443376   6.806   1.136   0.656 -1.5939  1.1080 -3.0238
  127MOL   H28543377   7.033   1.159   0.775  1.0003  0.1405 -0.5244
  127MOL   H28643378   7.217   1.450   0.788  0.9476 -0.5406  0.6360
  127MOL   H28743379   7.096   1.541   0.610 -1.6561  1.3777 -0.4284
  127MOL   H28843380   6.908   1.520   0.460 -0.8868 -0.6652  0.1433
  127MOL   H28943381   6.700   1.487   0.338  0.6423 -0.2771  0.1318
  127MOL   H29043382   6.830   1.392   0.290 -0.4551 -0.0284 -0.3749
  127MOL   C29143383   6.635   1.326   0.201 -0.7148 -0.4508 -0.2207
  127MOL   C29243384   6.712   1.235   0.106  0.9105  0.2800 -0.6430
  127MOL   C29343385   6.835   1.266   0.056  0.0372  0.0401 -0.3284
  127MOL   C29443386   6.894   1.187   7.994  0.3366 -1.3447  0.1706
  127MOL   C29543387   6.832   1.074   7.949 -0.0651  0.1598  0.1842
  127MOL   O29643388   6.895   1.013   7.844 -0.0891 -0.8514 -0.6982
  127MOL   C29743389   6.710   1.035   8.001  0.8794 -1.0103 -0.5207
  127MOL   C29843390   6.654   1.115   0.064  0.1668  0.1974  0.0385
  127MOL   C29943391   6.579   1.454   0.119  0.2559 -0.0547  0.5471
  127MOL   H30043392   6.551   1.275   0.248  0.1532  0.3164  2.2343
  127MOL   H30143393   6.895   1.349   0.091  0.7047 -0.6144  0.0881
  127MOL   H30243394   6.993   1.208   7.955  0.3750 -0.7841  0.5637
  127MOL   H30343395   6.989   1.008   7.844  0.0739  1.5720  1.0825
  127MOL   H30443396   6.648   0.948   7.986 -2.1960  0.4095  2.9887
  127MOL   H30543397   6.560   1.081   0.104  0.5027 -0.7506  0.0229
  127MOL   H30643398   6.660   1.517   0.082 -0.6651  1.0561  0.3919
  127MOL   H30743399   6.525   1.524   0.183 -0.9283 -0.2491 -0.2152
  127MOL   C30843400   6.482   1.419   0.004 -0.2282 -0.3696 -0.5020
  127MOL   C30943401   6.475   1.534   7.942  0.1089  0.3637  0.6199
  127MOL   C31043402   6.525   1.520   7.814  0.4063  0.1778  0.2488
  127MOL   C31143403   6.529   1.632   7.731 -0.7935  0.5768  0.4485
  127MOL   C31243404   6.488   1.754   7.780  0.0311  0.0739 -0.5592
  127MOL   O31343405   6.502   1.871   7.714  0.4123  0.3932  0.6195
  127MOL   C31443406   6.427   1.766   7.909 -0.3082 -0.4120  0.8709
  127MOL   C31543407   6.421   1.655   7.988 -0.3749  0.4292 -0.6235
  127MOL   C31643408   6.348   1.349   0.048 -0.3443 -0.0695  0.3983
  127MOL   H31743409   6.540   1.342   7.992  0.2702 -1.0748  1.1462
  127MOL   H31843410   6.568   1.427   7.780 -2.4646 -1.2004  0.2411
  127MOL   H31943411   6.580   1.628   7.636 -1.9882  0.2094 -0.1818
  127MOL   H32043412   6.505   1.866   7.620  1.1825 -0.8005  0.7011
  127MOL   H32143413   6.382   1.856   7.949 -0.0574  0.8496 -1.5931
  127MOL   H32243414   6.387   1.674   0.051  0.3975  0.1640 -0.3073
  127MOL   H32343415   6.291   1.426   0.099 -0.9956 -0.7098  0.6565
  127MOL   H32443416   6.357   1.268   0.120  3.4798 -0.2994 -0.2156
  127MOL   C32543417   6.258   1.292   7.975  1.0787  0.0313  0.2357
  127MOL   C32643418   6.330   1.176   7.903 -0.2334 -0.0858 -0.4023
  127MOL   C32743419   6.323   1.051   7.964 -0.2807  0.1975 -0.3788
  127MOL   C32843420   6.364   0.940   7.885 -0.1351 -1.1155 -0.4230
  127MOL   C32943421   6.407   0.948   7.754 -0.8615 -0.4397 -0.4500
  127MOL   O33043422   6.419   0.839   7.676 -0.4243  0.2226  0.1898
  127MOL   C33143423   6.424   1.071   7.698 -0.2161 -0.1096 -0.3348
  127MOL   C33243424   6.391   1.188   7.772  1.2862 -0.3310  0.0582
  127MOL   C33343425   6.197   1.387   7.869  0.0581  0.1012  0.3845
  127MOL   H33443426   6.179   1.247   8.034  1.7768  0.1965  1.3150
  127MOL   H33543427   6.278   1.033   0.023  2.6000  0.3949  1.0376
  127MOL   H33643428   6.362   0.846   7.939 -0.3653 -1.0815 -0.3748
  127MOL   H33743429   6.423   0.866   7.585  0.7904  1.2844  0.5455
  127MOL   H33843430   6.451   1.085   7.594  0.4369 -0.1479 -0.1719
  127MOL   H33943431   6.397   1.286   7.726 -0.4031 -0.3849 -0.3116
  127MOL   H34043432   6.266   1.444   7.807 -2.3841  3.7156  0.8281
  127MOL   H34143433   6.143   1.465   7.923  0.6278  0.2160  0.8014
  127MOL   H34243434   6.126   1.330   7.809  0.4318 -0.2239  0.2509
  128MOL     C143435   1.322   1.461   3.141  0.0546  0.1202  0.2926
  128MOL     C243436   1.290   1.410   2.998 -0.6555  0.6320 -0.0377
  128MOL     C343437   1.163   1.389   2.950  0.0896  0.0555  0.2103
  128MOL     C443438   1.129   1.363   2.817 -1.0465 -0.2664  0.0633
  128MOL     C543439   1.240   1.351   2.726 -0.3354  0.0001  0.2344
  128MOL     O643440   1.229   1.316   2.597  0.0538  1.0074 -0.3467
  128MOL     C743441   1.366   1.376   2.769 -0.1149  0.5978 -0.4366
  128MOL     C843442   1.395   1.407   2.901 -0.7203  0.6166 -0.7059
  128MOL     C943443   1.276   1.600   3.182  0.4020 -0.5734 -0.2844
  128MOL    H1043444   1.283   1.384   3.208 -1.8683 -0.5848 -1.5415
  128MOL    H1143445   1.083   1.386   3.023 -0.2595  0.3944 -0.1563
  128MOL    H1243446   1.029   1.349   2.780 -0.2140 -1.3511 -1.8360
  128MOL    H1343447   1.163   1.253   2.572 -0.3510  1.2238  0.1583
  128MOL    H1443448   1.447   1.384   2.698 -0.8289  3.5357 -0.9796
  128MOL    H1543449   1.497   1.422   2.934 -0.8970  0.4666 -0.0874
  128MOL    H1643450   1.169   1.612   3.168  0.1080  0.2242  2.3918
  128MOL    H1743451   1.298   1.679   3.109 -0.1219 -0.9307 -0.8351
  128MOL    H1843452   1.430   1.463   3.154  0.0508 -0.8670  0.5001
  128MOL    C1943453   1.314   1.636   3.330 -0.6670  1.0469  0.3351
  128MOL    C2043454   1.270   1.530   3.427  1.1230 -0.4168 -0.7133
  128MOL    C2143455   1.366   1.454   3.497 -0.4543 -0.2020 -0.6275
  128MOL    C2243456   1.326   1.359   3.597 -0.0297  0.3093 -0.6483
  128MOL    C2343457   1.192   1.343   3.633  0.0957 -0.1831 -0.0532
  128MOL    O2443458   1.154   1.252   3.731 -0.1724  0.1430 -0.2825
  128MOL    C2543459   1.091   1.421   3.567 -0.4816  0.2558  0.3671
  128MOL    C2643460   1.133   1.518   3.466 -0.1157  0.6485 -0.7044
  128MOL    C2743461   1.263   1.777   3.379 -0.1500 -0.1268  0.4613
  128MOL    H2843462   1.423   1.633   3.323 -0.8157 -0.7040 -2.5006
  128MOL    H2943463   1.471   1.464   3.472 -0.6489 -2.2312 -2.4359
  128MOL    H3043464   1.402   1.306   3.653  0.7362  0.3947 -1.5940
  128MOL    H3143465   1.090   1.286   3.791  0.5128 -0.3054  0.7087
  128MOL    H3243466   0.988   1.413   3.597 -0.7687 -0.4370 -0.8023
  128MOL    H3343467   1.054   1.577   3.423 -2.0277 -2.0866 -1.1346
  128MOL    H3443468   1.266   1.777   3.487 -0.7345 -2.7589  0.5199
  128MOL    H3543469   1.157   1.799   3.370 -0.0908  0.9397  2.2548
  128MOL    C3643470   1.336   1.905   3.331 -0.3475 -0.5699  0.3884
  128MOL    C3743471   1.484   1.895   3.345 -0.9103 -0.3595  0.0171
  128MOL    C3843472   1.565   1.930   3.233  0.9273  0.1757  0.6415
  128MOL    C3943473   1.704   1.930   3.246 -1.0787  0.7492  0.0880
  128MOL    C4043474   1.759   1.908   3.374 -0.3957  0.2600  0.6408
  128MOL    O4143475   1.888   1.915   3.394  0.5760 -0.0466 -0.3597
  128MOL    C4243476   1.677   1.873   3.482  0.1270  0.3589  0.4326
  128MOL    C4343477   1.542   1.863   3.470  0.4533 -0.6443 -0.3731
  128MOL    C4443478   1.280   2.039   3.389  0.0064 -0.2137 -0.0950
  128MOL    H4543479   1.317   1.910   3.224  0.8021 -0.3800  0.1899
  128MOL    H4643480   1.521   1.945   3.136  0.0441  1.0091  1.1683
  128MOL    H4743481   1.772   1.957   3.167  0.4514 -0.3553  0.9880
  128MOL    H4843482   1.932   1.940   3.314 -2.4674 -1.2902 -2.5485
  128MOL    H4943483   1.718   1.835   3.574 -1.3883 -1.0580  0.5588
  128MOL    H5043484   1.482   1.825   3.552 -1.0077  0.3539 -0.9711
  128MOL    H5143485   1.172   2.023   3.384  0.0275 -0.5626  0.4992
  128MOL    H5243486   1.302   2.040   3.496  0.5786 -0.0923 -0.2182
  128MOL    C5343487   1.323   2.172   3.323  0.0128 -0.0098 -0.1547
  128MOL    C5443488   1.207   2.201   3.225 -0.2250 -0.2354 -0.2366
  128MOL    C5543489   1.078   2.241   3.274  0.2344  0.2018  0.0766
  128MOL    C5643490   0.971   2.267   3.180 -0.3154 -0.9049  0.4628
  128MOL    C5743491   1.006   2.263   3.043  0.1142  0.2561  0.1116
  128MOL    O5843492   0.917   2.305   2.955  0.5963  0.5223 -0.0379
  128MOL    C5943493   1.130   2.221   2.996  0.1218  0.0669  0.7032
  128MOL    C6043494   1.238   2.185   3.087  0.7034  0.3474 -0.4429
  128MOL    C6143495   1.334   2.298   3.421 -0.5044 -0.1771  0.8215
  128MOL    H6243496   1.418   2.143   3.278  0.4376 -1.1725  1.4638
  128MOL    H6343497   1.063   2.240   3.380  1.7415 -2.0432  0.3227
  128MOL    H6443498   0.877   2.305   3.216 -0.4310  1.1782 -1.8130
  128MOL    H6543499   0.941   2.275   2.868  0.9117  0.5201  0.0490
  128MOL    H6643500   1.139   2.213   2.889  0.3914 -0.6309  0.7702
  128MOL    H6743501   1.329   2.136   3.056  0.1000 -0.1527 -1.4733
  128MOL    H6843502   1.246   2.322   3.481 -0.4986  1.9253  0.0347
  128MOL    H6943503   1.349   2.387   3.360 -2.3022  0.7232  1.6212
  128MOL    C7043504   1.454   2.298   3.517  0.3551 -0.0170  0.6088
  128MOL    C7143505   1.428   2.421   3.613 -0.2352  0.5275  0.3051
  128MOL    C7243506   1.391   2.393   3.744  0.7487  0.3621 -0.4795
  128MOL    C7343507   1.384   2.494   3.838 -0.7063 -0.3323  0.1362
  128MOL    C7443508   1.391   2.627   3.796  0.2834  0.4500 -0.0657
  128MOL    O7543509   1.382   2.732   3.878 -0.1956  0.2873 -0.1219
  128MOL    C7643510   1.426   2.655   3.660 -0.0829 -0.7075 -0.3279
  128MOL    C7743511   1.433   2.551   3.569  0.1019 -0.1779  0.1133
  128MOL    C7843512   1.584   2.321   3.439 -0.5435 -0.3563  0.1375
  128MOL    H7943513   1.456   2.206   3.575 -0.2339 -1.6367 -1.8410
  128MOL    H8043514   1.382   2.289   3.770  0.7702  0.2421 -0.9397
  128MOL    H8143515   1.367   2.469   3.942  2.3336  2.0749  1.2937
  128MOL    H8243516   1.341   2.708   3.959 -0.0570 -0.6916 -0.3414
  128MOL    H8343517   1.437   2.758   3.627  1.2545 -1.6936 -3.1425
  128MOL    H8443518   1.455   2.574   3.465  0.8314 -0.4906  0.1997
  128MOL    H8543519   1.586   2.423   3.401  1.5623 -0.6999 -0.7238
  128MOL    H8643520   1.589   2.250   3.356  0.2945 -0.0887 -0.0452
  128MOL    C8743521   1.712   2.286   3.523 -0.2266 -0.4128  0.3148
  128MOL    C8843522   1.705   2.310   3.675 -0.4429  0.4869 -0.4901
  128MOL    C8943523   1.736   2.437   3.734  0.2106 -0.1723 -0.2522
  128MOL    C9043524   1.739   2.443   3.874 -0.2331 -0.3856  0.2427
  128MOL    C9143525   1.711   2.328   3.954 -0.4902 -0.7398 -0.4685
  128MOL    O9243526   1.732   2.332   4.089  0.2159 -0.4392  0.7988
  128MOL    C9343527   1.680   2.211   3.896 -0.0932 -0.3517  0.4244
  128MOL    C9443528   1.684   2.200   3.756  0.0937 -0.7212 -0.8447
  128MOL    C9543529   1.835   2.358   3.464 -0.2268 -0.3308 -0.0958
  128MOL    H9643530   1.738   2.183   3.499  1.5769  0.0829  0.0204
  128MOL    H9743531   1.753   2.526   3.676  0.2956  0.1386  0.2487
  128MOL    H9843532   1.760   2.541   3.916 -2.5174 -1.0370  3.0346
  128MOL    H9943533   1.785   2.408   4.110 -0.8565  0.5613 -0.0300
  128MOL   H10043534   1.671   2.119   3.953 -0.1901 -1.1125 -0.7995
  128MOL   H10143535   1.665   2.106   3.707 -0.3058  0.1356 -2.3598
  128MOL   H10243536   1.823   2.466   3.462  0.7156 -0.1360  2.3809
  128MOL   H10343537   1.921   2.351   3.531 -1.5081 -0.4697  1.5662
  128MOL   C10443538   1.878   2.318   3.316  0.2463  0.2218 -0.4913
  128MOL   C10543539   2.029   2.335   3.313 -0.2892  0.3773 -0.1709
  128MOL   C10643540   2.112   2.227   3.362 -0.1779  0.6415  0.0754
  128MOL   C10743541   2.254   2.237   3.368  0.2751  0.4204  0.2023
  128MOL   C10843542   2.316   2.355   3.318  0.5776 -0.3318  0.2358
  128MOL   O10943543   2.450   2.359   3.299 -0.1658 -0.2616  0.4198
  128MOL   C11043544   2.234   2.463   3.283 -0.5662 -0.0673  0.1590
  128MOL   C11143545   2.093   2.453   3.277 -0.3515 -0.1797 -0.0396
  128MOL   C11243546   1.803   2.390   3.199  0.0919 -0.3112  0.7299
  128MOL   H11343547   1.856   2.212   3.301 -1.0684  0.3230  0.6256
  128MOL   H11443548   2.076   2.136   3.408 -0.2739  0.4936 -0.2908
  128MOL   H11543549   2.315   2.163   3.417  0.2897 -1.4183 -2.5067
  128MOL   H11643550   2.488   2.278   3.328  2.1414  0.3880 -0.6533
  128MOL   H11743551   2.285   2.556   3.260  1.6552 -1.2140  0.2588
  128MOL   H11843552   2.042   2.540   3.239  0.4878  0.9718  1.4240
  128MOL   H11943553   1.799   2.495   3.228  2.4602 -0.5484  2.0488
  128MOL   H12043554   1.698   2.362   3.202 -0.0050 -0.1162 -0.6594
  128MOL   C12143555   1.858   2.375   3.055 -0.2101 -0.8791  0.5311
  128MOL   C12243556   1.857   2.235   2.994  0.1067 -0.3603 -0.1320
  128MOL   C12343557   1.974   2.147   2.995 -0.2084 -0.7066 -0.2062
  128MOL   C12443558   1.959   2.019   2.937 -0.1894  0.1845 -0.2666
  128MOL   C12543559   1.831   1.969   2.884  0.0229  0.1768  0.3996
  128MOL   O12643560   1.827   1.841   2.831  0.3403 -0.2859 -0.0190
  128MOL   C12743561   1.721   2.051   2.894 -0.1529  0.6530 -0.3788
  128MOL   C12843562   1.736   2.177   2.953 -0.8081 -0.2324 -0.4786
  128MOL   C12943563   1.780   2.479   2.964 -0.4011  0.3811 -0.2539
  128MOL   H13043564   1.963   2.403   3.056 -0.1661 -0.8699 -1.5914
  128MOL   H13143565   2.072   2.183   3.026 -0.7985 -0.5407  1.5468
  128MOL   H13243566   2.040   1.948   2.938 -0.5082 -0.2482 -2.2512
  128MOL   H13343567   1.741   1.818   2.800  1.2485 -0.3570 -2.5964
  128MOL   H13443568   1.633   2.017   2.841  1.1595 -0.5940 -1.8586
  128MOL   H13543569   1.649   2.238   2.970 -0.3052  0.1640  0.7852
  128MOL   H13643570   1.769   2.575   3.014  1.9349  0.2795  0.5133
  128MOL   H13743571   1.676   2.448   2.950 -0.0954 -0.8286  0.1154
  128MOL   C13843572   1.850   2.506   2.831  0.0986 -0.3528 -0.3165
  128MOL   C13943573   1.958   2.610   2.832 -0.7589  0.1662  0.5557
  128MOL   C14043574   1.928   2.740   2.875 -0.0664  0.3192 -0.4075
  128MOL   C14143575   2.031   2.838   2.875  0.1831  0.7075  0.5039
  128MOL   C14243576   2.160   2.803   2.830 -0.0060  0.2904 -0.9249
  128MOL   O14343577   2.259   2.891   2.826  0.0307  0.0608 -0.5356
  128MOL   C14443578   2.193   2.672   2.801  0.1459  0.4698  1.0181
  128MOL   C14543579   2.089   2.577   2.799 -0.5046  0.2241 -0.5339
  128MOL   C14643580   1.749   2.541   2.729  0.6792 -0.1431  0.3992
  128MOL   H14743581   1.894   2.411   2.802  1.2844  0.6774 -1.9517
  128MOL   H14843582   1.831   2.775   2.907 -0.3472 -0.9034  0.0843
  128MOL   H14943583   2.001   2.940   2.897  0.4376  1.5072 -2.5595
  128MOL   H15043584   2.248   2.958   2.891  0.3024 -0.3375 -0.0667
  128MOL   H15143585   2.296   2.644   2.781 -0.2623 -1.1503  1.1034
  128MOL   H15243586   2.105   2.471   2.787 -1.3235  0.1077 -0.6227
  128MOL   H15343587   1.792   2.613   2.659  0.3784  0.0393  0.4015
  128MOL   H15443588   1.657   2.575   2.775 -0.5164 -3.2370  0.4040
  128MOL   C15543589   1.711   2.422   2.633  0.4374 -0.4560  0.9043
  128MOL   C15643590   1.839   2.375   2.560 -0.0795  0.1969  0.7550
  128MOL   C15743591   1.900   2.441   2.448 -0.0574  0.0972 -0.1057
  128MOL   C15843592   2.020   2.398   2.384 -0.0821 -0.4354  0.1983
  128MOL   C15943593   2.082   2.282   2.425  0.6391 -0.0184 -0.1566
  128MOL   O16043594   2.203   2.246   2.368  0.3413 -0.3650  0.5583
  128MOL   C16143595   2.033   2.222   2.542 -0.2215 -0.6270 -0.1350
  128MOL   C16243596   1.911   2.261   2.605 -0.2300  0.2141 -0.1959
  128MOL   C16343597   1.590   2.441   2.541 -0.1091 -0.2995 -0.0659
  128MOL   H16443598   1.681   2.343   2.703 -2.2808  0.3782  0.7332
  128MOL   H16543599   1.850   2.526   2.405 -2.2337 -0.1493  1.8760
  128MOL   H16643600   2.067   2.467   2.315 -0.3003  1.7852  2.1988
  128MOL   H16743601   2.222   2.302   2.294 -1.9324 -0.3009 -0.0196
  128MOL   H16843602   2.095   2.145   2.585  0.4863 -0.5936 -1.0700
  128MOL   H16943603   1.867   2.201   2.683  1.4101  1.6564  1.9261
  128MOL   H17043604   1.569   2.349   2.486 -1.2616  0.1674 -0.4065
  128MOL   H17143605   1.606   2.516   2.463 -0.9377 -0.5466 -0.4772
  128MOL   C17243606   1.456   2.460   2.618  0.0500 -0.3217 -0.2665
  128MOL   C17343607   1.353   2.362   2.570  0.6136 -0.4806 -0.6174
  128MOL   C17443608   1.287   2.275   2.662  0.0470 -0.3284 -0.2865
  128MOL   C17543609   1.178   2.193   2.614  0.4685 -0.3744 -0.1350
  128MOL   C17643610   1.129   2.220   2.484  0.1479  0.6664 -0.1846
  128MOL   O17743611   1.009   2.163   2.441 -0.2867 -0.2681  0.0917
  128MOL   C17843612   1.188   2.307   2.400 -0.0610  0.3993 -0.0540
  128MOL   C17943613   1.302   2.379   2.442 -0.4618  0.0943  0.0345
  128MOL   C18043614   1.400   2.600   2.621  0.7283  0.0132  0.2419
  128MOL   H18143615   1.482   2.432   2.720  2.0244 -2.6867 -1.3729
  128MOL   H18243616   1.309   2.261   2.767 -1.2142  1.3396  0.2192
  128MOL   H18343617   1.122   2.129   2.681  0.0312  1.1667  0.9901
  128MOL   H18443618   0.989   2.192   2.353 -3.3085  1.7039  1.3784
  128MOL   H18543619   1.158   2.316   2.296  2.7366  1.9612 -0.7894
  128MOL   H18643620   1.345   2.455   2.378  1.4414  0.0466  1.2263
  128MOL   H18743621   1.362   2.615   2.520  1.9575  0.3921 -0.1719
  128MOL   H18843622   1.483   2.670   2.626  1.4997 -0.8684 -0.1968
  128MOL   C18943623   1.311   2.631   2.732 -0.1539 -0.4738 -0.6024
  128MOL   C19043624   1.379   2.629   2.873 -0.2515 -0.4984  0.4916
  128MOL   C19143625   1.354   2.519   2.962  0.0640  0.3461  0.2827
  128MOL   C19243626   1.412   2.514   3.089 -0.2432 -0.1585 -0.8450
  128MOL   C19343627   1.495   2.620   3.128  0.2586  0.8688  0.5506
  128MOL   O19443628   1.560   2.597   3.250 -0.1756 -0.1133  0.2404
  128MOL   C19543629   1.528   2.731   3.042  0.0633  0.2491 -0.4214
  128MOL   C19643630   1.466   2.730   2.915 -0.3390 -0.2969 -0.3262
  128MOL   C19743631   1.215   2.754   2.720  0.4298 -0.2505  0.4064
  128MOL   H19843632   1.245   2.544   2.737 -1.3534  0.3007 -2.3955
  128MOL   H19943633   1.294   2.437   2.925 -0.8251  0.8599  0.5702
  128MOL   H20043634   1.412   2.426   3.151 -0.9086  0.5282  0.1531
  128MOL   H20143635   1.600   2.676   3.284 -0.9734  1.8364 -3.0925
  128MOL   H20243636   1.599   2.808   3.069  0.9808 -0.6028 -0.3605
  128MOL   H20343637   1.492   2.806   2.843  0.3765  0.6905  0.9338
  128MOL   H20443638   1.265   2.849   2.706  1.3960 -1.1594 -2.8297
  128MOL   H20543639   1.177   2.760   2.822 -2.1028  0.3916 -0.5154
  128MOL   C20643640   1.095   2.746   2.622  0.3409  0.0068  0.2780
  128MOL   C20743641   1.132   2.730   2.477 -0.0621 -0.2271 -0.7665
  128MOL   C20843642   1.227   2.811   2.418  0.7563 -0.1718  0.0629
  128MOL   C20943643   1.236   2.819   2.282  0.4539  0.0939 -0.0954
  128MOL   C21043644   1.160   2.734   2.201 -0.9307  0.2080  0.2339
  128MOL   O21143645   1.177   2.748   2.066  0.1708 -0.3183 -0.6953
  128MOL   C21243646   1.075   2.636   2.258 -1.0842 -0.1785  0.5125
  128MOL   C21343647   1.052   2.643   2.395  0.3531 -0.2991 -0.1493
  128MOL   C21443648   0.995   2.862   2.631  0.1482  0.3591 -0.4605
  128MOL   H21543649   1.041   2.653   2.639  0.9768 -0.5117 -0.5454
  128MOL   H21643650   1.283   2.887   2.470 -1.4169  0.5571  1.3992
  128MOL   H21743651   1.301   2.891   2.236 -1.3303 -0.5389 -3.7323
  128MOL   H21843652   1.126   2.709   1.997  0.2715 -0.2969 -0.7821
  128MOL   H21943653   1.007   2.574   2.201 -0.5198  2.8255 -3.6824
  128MOL   H22043654   0.977   2.579   2.440 -0.4043 -0.4135 -1.5623
  128MOL   H22143655   0.950   2.881   2.533 -0.6017 -0.2512 -0.2474
  128MOL   H22243656   1.046   2.957   2.643  1.2016 -0.2553 -0.0726
  128MOL   C22343657   0.893   2.834   2.749 -0.1200 -0.2379 -0.3418
  128MOL   C22443658   0.800   2.710   2.727 -0.2012  0.1112  0.1282
  128MOL   C22543659   0.769   2.660   2.597  0.2794 -0.5997 -0.7303
  128MOL   C22643660   0.675   2.559   2.576  0.1665  0.0293 -0.0556
  128MOL   C22743661   0.597   2.511   2.687  0.1482 -0.0240 -0.4919
  128MOL   O22843662   0.498   2.416   2.661 -0.2139  0.2221 -0.2291
  128MOL   C22943663   0.637   2.541   2.818 -0.2324 -0.1583  0.7113
  128MOL   C23043664   0.737   2.647   2.834  0.2304  0.1574  0.0912
  128MOL   C23143665   0.808   2.958   2.780  0.9338 -0.4759 -0.1549
  128MOL   H23243666   0.951   2.808   2.837  2.7063 -3.4482 -3.0067
  128MOL   H23343667   0.807   2.703   2.505  0.1273 -2.0118 -1.4709
  128MOL   H23443668   0.646   2.548   2.473  0.1092  1.5393 -0.2204
  128MOL   H23543669   0.525   2.367   2.585 -0.1705  2.0291 -1.4066
  128MOL   H23643670   0.585   2.492   2.899 -0.9688  1.3233  1.1670
  128MOL   H23743671   0.757   2.674   2.937  0.3193  0.2968  0.0370
  128MOL   H23843672   0.760   2.980   2.685 -0.5702 -1.2871  0.3940
  128MOL   H23943673   0.729   2.932   2.851 -1.9214 -0.0460 -3.0609
  128MOL   C24043674   0.880   3.083   2.827 -0.1691 -0.5581 -0.8263
  128MOL   C24143675   1.018   3.066   2.894  0.0436  0.1445  0.1113
  128MOL   C24243676   1.016   2.997   3.015  0.1189 -0.4290 -0.7094
  128MOL   C24343677   1.135   2.989   3.089 -0.2107  0.6513 -0.2518
  128MOL   C24443678   1.256   3.047   3.044 -0.0062  0.1005  0.0563
  128MOL   O24543679   1.368   3.046   3.121  0.1456  0.2243  0.7532
  128MOL   C24643680   1.258   3.105   2.918 -0.2624  0.0926 -0.1788
  128MOL   C24743681   1.137   3.118   2.843 -0.6009  0.0142  0.5072
  128MOL   C24843682   0.868   3.201   2.735 -0.0280 -0.3629  0.0690
  128MOL   H24943683   0.822   3.106   2.917  0.4357 -3.6121  0.4035
  128MOL   H25043684   0.925   2.948   3.048 -1.6200  2.2302 -1.3403
  128MOL   H25143685   1.127   2.929   3.179 -2.7306  0.0082 -0.8516
  128MOL   H25243686   1.381   2.975   3.182 -1.3939 -0.1205  0.6985
  128MOL   H25343687   1.359   3.119   2.881 -0.1340 -0.5358 -0.0765
  128MOL   H25443688   1.142   3.177   2.752 -2.5950  0.8171  0.8837
  128MOL   H25543689   0.939   3.277   2.767  0.2946 -0.1168 -1.2060
  128MOL   H25643690   0.899   3.175   2.634 -0.4722  1.0840 -0.4502
  128MOL   C25743691   0.732   3.271   2.726 -0.3167  0.3188 -0.0616
  128MOL   C25843692   0.660   3.304   2.860 -0.2974  0.0360 -0.1130
  128MOL   C25943693   0.687   3.426   2.929 -0.2147 -0.9954 -0.0622
  128MOL   C26043694   0.600   3.467   3.027 -0.1949 -0.2098 -0.1368
  128MOL   C26143695   0.496   3.389   3.066  0.5598  0.0669  0.4022
  128MOL   O26243696   0.419   3.442   3.172 -0.3862  0.0675  0.0983
  128MOL   C26343697   0.466   3.269   3.011 -0.2022 -0.2236  0.2291
  128MOL   C26443698   0.548   3.222   2.904 -1.0672  0.6676  0.5024
  128MOL   C26543699   0.749   3.387   2.627  0.2106  0.2669  0.5798
  128MOL   H26643700   0.666   3.199   2.677  0.6770  0.9910 -2.4466
  128MOL   H26743701   0.767   3.489   2.895 -0.4914 -0.7097 -0.1881
  128MOL   H26843702   0.621   3.558   3.081  0.6312 -0.7469  0.4585
  128MOL   H26943703   0.385   3.368   3.221 -1.2076 -0.1252 -0.7542
  128MOL   H27043704   0.373   3.219   3.032  0.4313 -2.5117 -2.0628
  128MOL   H27143705   0.527   3.136   2.841  1.5533  1.0520 -0.9667
  128MOL   H27243706   0.843   3.437   2.650  0.3403  0.1456  0.3042
  128MOL   H27343707   0.678   3.464   2.658 -0.5555  0.3634 -1.3903
  128MOL   C27443708   0.731   3.355   2.477 -0.5374 -0.7445 -0.2165
  128MOL   C27543709   0.815   3.457   2.401 -0.7941  0.5482  0.2387
  128MOL   C27643710   0.924   3.415   2.316 -0.8000 -0.2949  0.2353
  128MOL   C27743711   1.000   3.511   2.253  0.4229 -0.0918 -0.5912
  128MOL   C27843712   0.961   3.648   2.265 -0.1903 -0.1951  0.5540
  128MOL   O27943713   1.049   3.743   2.219  0.4111  0.1446  0.2214
  128MOL   C28043714   0.848   3.693   2.340 -0.0717  0.1373 -0.1608
  128MOL   C28143715   0.782   3.591   2.411  0.6846 -0.4243 -0.0685
  128MOL   C28243716   0.593   3.367   2.426  0.6454 -0.0589 -0.2020
  128MOL   H28343717   0.760   3.252   2.455 -1.5198 -0.9386 -0.6082
  128MOL   H28443718   0.951   3.311   2.303  1.4613  0.2633  0.2260
  128MOL   H28543719   1.094   3.486   2.206  1.2108  0.5993  0.5766
  128MOL   H28643720   1.067   3.812   2.282 -0.1483 -1.6136  2.3640
  128MOL   H28743721   0.815   3.795   2.352  0.7258  0.3933 -0.1568
  128MOL   H28843722   0.693   3.619   2.465 -0.0139  0.5572 -1.6810
  128MOL   H28943723   0.555   3.469   2.434 -0.8041 -0.6480  0.6540
  128MOL   H29043724   0.594   3.351   2.319  2.0549  1.8136 -0.4908
  128MOL   C29143725   0.477   3.273   2.483 -0.3309 -0.0245 -0.6898
  128MOL   C29243726   0.501   3.126   2.438  0.3041 -0.1781 -0.2701
  128MOL   C29343727   0.533   3.095   2.309  0.2863 -0.3728  0.4042
  128MOL   C29443728   0.571   2.966   2.267 -0.5134 -0.3196  0.0301
  128MOL   C29543729   0.583   2.861   2.359 -0.0224  0.0365 -0.3648
  128MOL   O29643730   0.622   2.738   2.323  0.4705  0.7967  0.1358
  128MOL   C29743731   0.544   2.886   2.490  0.0328  0.2280  0.8786
  128MOL   C29843732   0.503   3.020   2.531 -0.5428  0.0698 -0.1782
  128MOL   C29943733   0.340   3.323   2.420 -0.0119 -0.3634 -0.1295
  128MOL   H30043734   0.467   3.280   2.591 -0.4323 -1.7812 -0.5811
  128MOL   H30143735   0.525   3.175   2.237 -3.8004  0.1501  1.3249
  128MOL   H30243736   0.592   2.959   2.162 -1.8241  0.4030 -0.2995
  128MOL   H30343737   0.654   2.740   2.234  0.8426  3.7550  0.2972
  128MOL   H30443738   0.537   2.807   2.563 -1.6039 -1.0342 -0.5760
  128MOL   H30543739   0.474   3.028   2.635  0.4581  1.3176  0.0217
  128MOL   H30643740   0.350   3.334   2.312 -0.3618 -1.1813 -0.2514
  128MOL   H30743741   0.327   3.423   2.460  1.3061 -0.1283 -0.2869
  128MOL   C30843742   0.207   3.254   2.449  0.6294  0.6453 -0.5864
  128MOL   C30943743   0.190   3.120   2.383 -0.3480 -0.1058 -0.1458
  128MOL   C31043744   0.194   3.110   2.246  0.0231 -0.9701 -0.0091
  128MOL   C31143745   0.195   2.988   2.179  0.1469 -0.0029  0.1875
  128MOL   C31243746   0.180   2.867   2.250  0.1172 -0.1876 -0.3857
  128MOL   O31343747   0.179   2.748   2.181 -0.4027 -0.0953 -0.0317
  128MOL   C31443748   0.164   2.876   2.387 -0.2795  0.0272  0.2039
  128MOL   C31543749   0.176   2.998   2.453  0.1930  0.4686 -0.5666
  128MOL   C31643750   0.088   3.340   2.410 -0.2368 -0.9260 -0.2376
  128MOL   H31743751   0.199   3.244   2.558  0.6221 -0.0024 -0.6452
  128MOL   H31843752   0.202   3.197   2.183  0.4824 -2.2530 -1.7625
  128MOL   H31943753   0.210   2.983   2.072 -0.1707 -0.6666  0.1753
  128MOL   H32043754   0.232   2.682   2.223 -1.3339 -1.8179 -1.4701
  128MOL   H32143755   0.151   2.790   2.451 -2.4719  0.4209  0.3164
  128MOL   H32243756   0.167   3.001   2.561  2.4344  1.3907 -0.3760
  128MOL   H32343757   8.032   3.290   2.434 -0.1701 -0.5669  0.8123
  128MOL   H32443758   0.088   3.363   2.303 -2.7136  1.0765  0.1647
  128MOL   C32543759   0.073   3.480   2.473 -0.5359 -0.1673  0.3371
  128MOL   C32643760   0.119   3.507   2.618 -0.2672  0.3567 -0.1951
  128MOL   C32743761   0.226   3.597   2.646  0.2731 -0.3015  1.2379
  128MOL   C32843762   0.264   3.628   2.779  0.2204  0.0140  1.0288
  128MOL   C32943763   0.200   3.567   2.885  0.8090 -0.1078  0.4064
  128MOL   O33043764   0.238   3.588   3.013 -0.2419 -0.1957  1.3355
  128MOL   C33143765   0.102   3.472   2.862  0.1406 -0.6596  0.0487
  128MOL   C33243766   0.069   3.436   2.731  0.2410 -0.8536  0.1755
  128MOL   C33343767   7.965   3.530   2.468  0.1462 -0.1610  0.1299
  128MOL   H33443768   0.126   3.553   2.412  1.9993 -1.4162  1.0081
  128MOL   H33543769   0.281   3.645   2.567 -2.2593 -1.1932 -1.1095
  128MOL   H33643770   0.326   3.716   2.794  1.4547  0.2756 -4.4909
  128MOL   H33743771   0.329   3.615   3.015 -0.1764 -0.3367  0.3161
  128MOL   H33843772   0.048   3.427   2.944  1.3237 -0.5772  0.8695
  128MOL   H33943773   8.033   3.358   2.725 -2.0532  1.0777  2.0956
  128MOL   H34043774   7.906   3.458   2.526  2.3680 -1.5540  0.7517
  128MOL   H34143775   7.924   3.532   2.367 -0.0475  0.0942  0.2137
  128MOL   H34243776   7.954   3.625   2.521 -0.6669 -0.1755 -0.0006
  129MOL     C143777   2.452   2.833   4.581  0.9296  0.2793  0.5568
  129MOL     C243778   2.581   2.747   4.602  1.0262  0.7781 -0.1494
  129MOL     C343779   2.712   2.798   4.576  0.5266 -0.4475  0.2790
  129MOL     C443780   2.827   2.711   4.580 -0.0877  0.4775 -0.2183
  129MOL     C543781   2.803   2.575   4.616  0.3608 -0.6600  0.3273
  129MOL     O643782   2.902   2.483   4.629  0.3339 -0.2966  0.0969
  129MOL     C743783   2.672   2.526   4.641  0.3781 -0.2051  0.0832
  129MOL     C843784   2.562   2.618   4.644  0.5157  0.4490  0.5328
  129MOL     C943785   2.382   2.793   4.451 -0.0844 -0.4050  0.3000
  129MOL    H1043786   2.383   2.813   4.662 -0.7119  0.3177 -0.8042
  129MOL    H1143787   2.713   2.901   4.544 -1.2494 -0.6503 -0.5031
  129MOL    H1243788   2.925   2.743   4.547  0.5653  0.1833  1.3568
  129MOL    H1343789   2.988   2.520   4.616  0.0098  0.8980  1.1151
  129MOL    H1443790   2.665   2.421   4.665  0.7918 -0.4433 -0.8225
  129MOL    H1543791   2.467   2.574   4.670  0.4807 -0.4604 -1.0804
  129MOL    H1643792   2.298   2.861   4.440 -0.5883 -0.7249  1.9893
  129MOL    H1743793   2.348   2.689   4.456  0.0045 -0.4208  0.5871
  129MOL    H1843794   2.471   2.939   4.565 -0.4185  0.5586  0.7236
  129MOL    C1943795   2.471   2.808   4.320 -0.4508  0.1893 -0.4215
  129MOL    C2043796   2.564   2.938   4.308 -0.0140  0.3190  0.0189
  129MOL    C2143797   2.510   3.060   4.345  0.3343 -0.1364  0.2311
  129MOL    C2243798   2.585   3.182   4.339  0.5370  0.1856 -0.3741
  129MOL    C2343799   2.717   3.178   4.287  0.7968  0.5733 -0.3983
  129MOL    O2443800   2.784   3.299   4.292  0.1101  0.8086  0.0430
  129MOL    C2543801   2.774   3.057   4.259  0.4332 -0.3787  0.1907
  129MOL    C2643802   2.700   2.934   4.271  0.5125  0.4026 -0.0010
  129MOL    C2743803   2.385   2.798   4.196 -0.0067  0.2962 -0.6144
  129MOL    H2843804   2.537   2.722   4.335 -1.6770 -0.8270 -0.7612
  129MOL    H2943805   2.415   3.061   4.395  0.4854  1.2378  0.5126
  129MOL    H3043806   2.536   3.275   4.363  2.3642  1.3234 -1.0439
  129MOL    H3143807   2.747   3.380   4.322 -0.8448  0.3523  0.0884
  129MOL    H3243808   2.873   3.054   4.217  0.4770  1.3069  0.1309
  129MOL    H3343809   2.730   2.839   4.231 -0.6839 -0.2562  0.6466
  129MOL    H3443810   2.440   2.831   4.107 -0.8866  1.7180 -0.6432
  129MOL    H3543811   2.298   2.863   4.193 -1.4998 -1.6553 -0.3653
  129MOL    C3643812   2.339   2.658   4.172  0.5327 -0.0237  0.6877
  129MOL    C3743813   2.454   2.564   4.151  0.1682 -0.4499  0.0059
  129MOL    C3843814   2.462   2.452   4.236 -0.4646 -0.0948  0.2066
  129MOL    C3943815   2.574   2.360   4.216 -0.3353  0.3668 -0.6193
  129MOL    C4043816   2.660   2.377   4.101 -0.4513  0.0218 -0.2027
  129MOL    O4143817   2.748   2.271   4.078  0.5226  0.0358 -0.3120
  129MOL    C4243818   2.642   2.486   4.017 -0.5487  0.0727 -0.9622
  129MOL    C4343819   2.537   2.581   4.042 -0.5579  0.1208  0.2081
  129MOL    C4443820   2.238   2.665   4.049  0.6381  0.1323 -0.2136
  129MOL    H4543821   2.270   2.638   4.254 -0.8199 -1.8263 -0.8588
  129MOL    H4643822   2.395   2.431   4.319 -1.3708 -0.8912 -0.7156
  129MOL    H4743823   2.585   2.280   4.288 -0.9689 -0.2350 -1.1873
  129MOL    H4843824   2.772   2.223   4.156  0.6770 -0.7379 -0.8322
  129MOL    H4943825   2.702   2.506   3.929  0.8476  0.6115  0.0944
  129MOL    H5043826   2.527   2.663   3.973  0.0465  0.0344  0.0211
  129MOL    H5143827   2.165   2.745   4.064 -0.7018 -0.5531 -2.7820
  129MOL    H5243828   2.302   2.697   3.967  1.9281 -0.9230  0.3611
  129MOL    C5343829   2.169   2.528   4.028  0.0327 -0.5679 -0.2035
  129MOL    C5443830   2.085   2.490   4.153  0.5657 -0.3704  0.2185
  129MOL    C5543831   2.097   2.361   4.210 -0.5743 -0.1576  0.9359
  129MOL    C5643832   2.021   2.319   4.317 -0.8990  0.5302  0.4005
  129MOL    C5743833   1.929   2.410   4.377  0.3921  0.1388  0.1953
  129MOL    O5843834   1.846   2.360   4.473 -0.2878  0.5534  0.2331
  129MOL    C5943835   1.909   2.536   4.318  1.4726  0.3299 -0.1301
  129MOL    C6043836   1.993   2.582   4.213 -0.4295  0.1141 -0.3788
  129MOL    C6143837   2.078   2.507   3.901  0.0465  0.2934 -0.5527
  129MOL    H6243838   2.254   2.461   4.014  0.8156  0.6393 -1.4630
  129MOL    H6343839   2.168   2.294   4.164 -0.5431  1.5961 -1.7064
  129MOL    H6443840   2.016   2.219   4.357 -1.1319 -0.1001 -1.1766
  129MOL    H6543841   1.895   2.298   4.524 -2.3496 -0.5114  0.9721
  129MOL    H6643842   1.843   2.599   4.376 -2.2223 -3.0786 -0.3805
  129MOL    H6743843   1.984   2.687   4.189 -2.0210 -0.3067 -1.7578
  129MOL    H6843844   2.004   2.587   3.897  0.5811  0.7655 -1.0144
  129MOL    H6943845   2.023   2.415   3.922 -0.4745  0.3702 -1.5818
  129MOL    C7043846   2.140   2.492   3.763 -0.0904 -0.1151 -0.1887
  129MOL    C7143847   2.234   2.377   3.745 -0.3134  0.4440  0.4784
  129MOL    C7243848   2.196   2.251   3.702 -0.1555  0.1803  0.1443
  129MOL    C7343849   2.288   2.141   3.698  0.5508  0.0742 -0.1806
  129MOL    C7443850   2.424   2.167   3.714 -0.3077  0.9662 -0.5582
  129MOL    O7543851   2.511   2.058   3.709 -0.3911 -0.2380 -0.1684
  129MOL    C7643852   2.466   2.295   3.756  0.0872 -0.1431  0.5362
  129MOL    C7743853   2.370   2.395   3.780 -0.0894 -1.0611 -0.1340
  129MOL    C7843854   2.199   2.617   3.691  0.2132 -0.5433 -0.2038
  129MOL    H7943855   2.048   2.462   3.714  0.6273 -2.1386 -0.3378
  129MOL    H8043856   2.092   2.224   3.691  0.0318  0.3289 -2.2235
  129MOL    H8143857   2.250   2.041   3.685 -0.6937  0.4623  0.4066
  129MOL    H8243858   2.600   2.087   3.726 -1.0735  2.0973 -0.4356
  129MOL    H8343859   2.570   2.322   3.766  0.6349 -2.2893  0.7350
  129MOL    H8443860   2.410   2.492   3.807 -1.9855  0.2924 -2.0579
  129MOL    H8543861   2.200   2.584   3.587  0.5912 -0.4113 -0.2450
  129MOL    H8643862   2.302   2.626   3.726  1.2612 -4.2342 -2.0966
  129MOL    C8743863   2.133   2.752   3.703  0.3366  0.2037  0.0628
  129MOL    C8843864   2.006   2.747   3.626  0.3129  0.6034 -0.6302
  129MOL    C8943865   1.881   2.776   3.693 -0.9374 -0.0676 -0.0461
  129MOL    C9043866   1.759   2.796   3.623 -0.6081  0.6140  0.6712
  129MOL    C9143867   1.758   2.777   3.487 -1.5224 -0.1703  0.1834
  129MOL    O9243868   1.644   2.785   3.417 -0.1092 -0.1899  0.2850
  129MOL    C9343869   1.879   2.740   3.424  0.1165  0.2475 -0.6399
  129MOL    C9443870   2.002   2.725   3.489 -0.1199 -0.1250  0.8964
  129MOL    C9543871   2.228   2.876   3.680 -0.0669 -0.6162 -0.6915
  129MOL    H9643872   2.114   2.766   3.809  1.0910 -0.7739  0.3387
  129MOL    H9743873   1.881   2.798   3.799 -1.3571 -1.5793  0.2792
  129MOL    H9843874   1.672   2.831   3.677 -0.7429 -0.3077  1.0608
  129MOL    H9943875   1.586   2.836   3.472 -0.8033 -0.6686 -0.0085
  129MOL   H10043876   1.878   2.739   3.316  0.4330 -1.2756 -0.6461
  129MOL   H10143877   2.089   2.702   3.430 -1.9629  0.8548 -2.3267
  129MOL   H10243878   2.320   2.857   3.735  1.2300 -0.3964 -2.7291
  129MOL   H10343879   2.258   2.881   3.575  1.8141  2.1409 -0.1064
  129MOL   C10443880   2.167   3.013   3.716 -0.1795 -0.1943  0.1110
  129MOL   C10543881   2.241   3.134   3.663  0.6410  0.5779  0.1034
  129MOL   C10643882   2.224   3.160   3.525 -0.2634 -0.3505  0.3402
  129MOL   C10743883   2.283   3.266   3.464 -0.3198  0.2409  0.0411
  129MOL   C10843884   2.368   3.352   3.533 -0.6761  0.6136 -0.7749
  129MOL   O10943885   2.424   3.463   3.483  0.2627 -0.2926  0.6475
  129MOL   C11043886   2.391   3.325   3.675 -0.7096 -0.3083  0.1296
  129MOL   C11143887   2.330   3.212   3.740 -0.4271  0.1735  0.6853
  129MOL   C11243888   2.104   3.035   3.864 -0.4760  0.0366 -0.0327
  129MOL   H11343889   2.077   3.012   3.656 -0.8301  0.5470  1.0575
  129MOL   H11443890   2.183   3.089   3.455  0.7491 -0.6419  0.0203
  129MOL   H11543891   2.262   3.276   3.359  0.6026  0.6388 -0.1074
  129MOL   H11643892   2.474   3.516   3.543  1.7312 -1.3742  0.4049
  129MOL   H11743893   2.468   3.381   3.727 -1.2255 -0.3757  0.9769
  129MOL   H11843894   2.343   3.195   3.845  3.7016 -1.4770 -0.0100
  129MOL   H11943895   2.172   3.011   3.946 -1.0983  0.8715  0.7289
  129MOL   H12043896   2.033   2.954   3.879  1.5263 -1.9828 -1.0829
  129MOL   C12143897   2.032   3.172   3.877  0.3964  0.3110  0.7323
  129MOL   C12243898   1.932   3.207   3.761  0.6142 -0.6688 -0.1722
  129MOL   C12343899   1.813   3.129   3.742  0.1221  0.2526 -0.2872
  129MOL   C12443900   1.729   3.159   3.630  0.5310  0.4327  0.0333
  129MOL   C12543901   1.773   3.261   3.534 -0.2346 -0.6606  1.1141
  129MOL   O12643902   1.692   3.289   3.425 -0.4750  0.0758 -0.3503
  129MOL   C12743903   1.888   3.335   3.555  0.5536  0.5554  0.3875
  129MOL   C12843904   1.971   3.301   3.662  0.3637 -0.2431  0.0202
  129MOL   C12943905   1.974   3.204   4.015  0.3304  0.1905 -1.1094
  129MOL   H13043906   2.119   3.236   3.867 -0.7609  1.6144 -1.1596
  129MOL   H13143907   1.771   3.057   3.811 -1.9006  2.7301  1.1255
  129MOL   H13243908   1.636   3.106   3.618  0.4245  0.5936  0.1564
  129MOL   H13343909   1.725   3.351   3.362 -0.7996 -0.2335 -0.8332
  129MOL   H13443910   1.928   3.403   3.481  1.7848 -1.1947 -0.5987
  129MOL   H13543911   2.061   3.360   3.674 -0.6786  1.3669  0.0494
  129MOL   H13643912   2.034   3.153   4.091  3.0382 -1.2386 -4.0761
  129MOL   H13743913   1.879   3.152   4.026  1.6460 -2.2634 -0.9312
  129MOL   C13843914   1.974   3.357   4.044 -0.5593  0.1294  0.9371
  129MOL   C13943915   2.119   3.411   4.059  0.4566  0.2226 -0.0053
  129MOL   C14043916   2.216   3.333   4.131  0.1872  0.2217 -0.4686
  129MOL   C14143917   2.347   3.376   4.137 -0.0608  0.4186 -0.5130
  129MOL   C14243918   2.383   3.488   4.059 -0.4571 -0.1752 -0.3539
  129MOL   O14343919   2.511   3.531   4.071  0.4094 -0.4278  0.3460
  129MOL   C14443920   2.289   3.557   3.984  0.4674 -0.2078  0.3843
  129MOL   C14543921   2.155   3.515   3.976 -0.5700 -0.1226 -0.1346
  129MOL   C14643922   1.895   3.398   4.163 -0.7394 -0.4272 -0.4575
  129MOL   H14743923   1.930   3.420   3.966 -2.4427 -2.2149  0.0173
  129MOL   H14843924   2.181   3.256   4.198 -0.5580  0.6075 -0.4063
  129MOL   H14943925   2.404   3.330   4.215 -3.6648 -0.5098  1.6803
  129MOL   H15043926   2.560   3.483   4.005  0.6347  0.3088 -0.0279
  129MOL   H15143927   2.317   3.636   3.916  0.0534 -2.5850 -2.6857
  129MOL   H15243928   2.093   3.577   3.914  0.3385  0.9299 -0.0209
  129MOL   H15343929   1.925   3.500   4.188 -0.8668 -0.5475  0.2013
  129MOL   H15443930   1.920   3.342   4.253 -0.6535  2.4240  1.3613
  129MOL   C15543931   1.744   3.388   4.145 -0.1657  0.3905 -0.9614
  129MOL   C15643932   1.670   3.487   4.055  0.6181 -0.2708 -1.1437
  129MOL   C15743933   1.677   3.482   3.920  0.0071  0.6219 -0.1425
  129MOL   C15843934   1.603   3.568   3.835 -0.8188  0.3067 -0.5471
  129MOL   C15943935   1.520   3.670   3.893  0.3585 -0.7180 -0.3301
  129MOL   O16043936   1.452   3.761   3.820 -0.0164 -0.4727 -0.5629
  129MOL   C16143937   1.517   3.680   4.030 -0.2542  0.3807 -0.3996
  129MOL   C16243938   1.583   3.586   4.116 -0.3731 -0.4096  0.0496
  129MOL   C16343939   1.664   3.350   4.278 -0.0371 -0.0720 -0.4065
  129MOL   H16443940   1.736   3.301   4.080  0.5126 -0.2379 -0.2199
  129MOL   H16543941   1.743   3.407   3.879 -2.1017 -1.4699  0.2109
  129MOL   H16643942   1.612   3.537   3.732  0.3594 -0.7746 -0.1380
  129MOL   H16743943   1.425   3.848   3.845 -0.7534 -0.8811  0.0690
  129MOL   H16843944   1.458   3.762   4.069 -0.3863  0.1940 -0.2052
  129MOL   H16943945   1.565   3.586   4.222 -0.5601 -1.7214  0.0243
  129MOL   H17043946   1.559   3.345   4.247  1.0280 -0.7442 -4.2002
  129MOL   H17143947   1.677   3.432   4.348  1.3844  1.2598 -2.1789
  129MOL   C17243948   1.711   3.214   4.342  0.8405 -0.1610 -0.2071
  129MOL   C17343949   1.695   3.089   4.252 -0.3973  0.3218  0.0836
  129MOL   C17443950   1.576   3.072   4.181  0.5768  0.5631 -0.0444
  129MOL   C17543951   1.556   2.975   4.086 -0.3616 -0.2518 -0.0625
  129MOL   C17643952   1.659   2.884   4.058 -0.4317  0.4733 -0.0363
  129MOL   O17743953   1.652   2.791   3.958  0.3859 -0.5594 -0.3140
  129MOL   C17843954   1.788   2.897   4.123  0.0909 -0.0993 -0.5600
  129MOL   C17943955   1.803   2.999   4.220  0.0620 -0.8269 -0.3145
  129MOL   C18043956   1.634   3.189   4.475  0.2367  0.0706  0.4959
  129MOL   H18143957   1.817   3.219   4.368  0.9087  1.1474 -0.7038
  129MOL   H18243958   1.502   3.150   4.182 -1.0210 -0.9443  0.5560
  129MOL   H18343959   1.468   2.977   4.023  0.7755 -0.3234 -1.6866
  129MOL   H18443960   1.567   2.786   3.918 -0.4941 -2.8872  1.7846
  129MOL   H18543961   1.871   2.835   4.092 -1.1435 -2.2428  0.3039
  129MOL   H18643962   1.895   3.021   4.273  0.2569 -0.0862 -0.9531
  129MOL   H18743963   1.529   3.178   4.451  0.4013 -0.6513  0.1078
  129MOL   H18843964   1.639   3.276   4.541  0.0006 -0.8973  1.8187
  129MOL   C18943965   1.681   3.080   4.567 -1.2791  0.5897  0.3297
  129MOL   C19043966   1.828   3.107   4.609  0.5526  0.1171  0.8892
  129MOL   C19143967   1.923   3.024   4.563  0.2720 -0.3945 -0.3885
  129MOL   C19243968   2.058   3.032   4.593  0.7776 -0.3632 -0.0049
  129MOL   C19343969   2.101   3.132   4.682 -0.2137  0.3526  0.4144
  129MOL   O19443970   2.229   3.130   4.724 -0.5416  0.1030 -0.2843
  129MOL   C19543971   2.011   3.230   4.724  0.4700  0.0151 -0.0592
  129MOL   C19643972   1.875   3.221   4.685  0.3978  0.3419  0.9467
  129MOL   C19743973   1.604   3.058   4.699 -0.1655 -0.2160  0.1840
  129MOL   H19843974   1.677   2.993   4.502  2.4275 -0.4657  1.4232
  129MOL   H19943975   1.888   2.944   4.499 -0.5001 -0.8214  0.5484
  129MOL   H20043976   2.132   2.965   4.552  0.0895 -0.3220 -1.3564
  129MOL   H20143977   2.249   3.197   4.787 -3.1752  0.6128  0.0803
  129MOL   H20243978   2.049   3.305   4.791 -1.0677 -2.0149  3.1777
  129MOL   H20343979   1.804   3.297   4.712  1.1691  2.0999 -1.7227
  129MOL   H20443980   1.496   3.056   4.684  0.0181  2.1216 -1.8086
  129MOL   H20543981   1.634   3.144   4.759  1.2184 -0.3800 -0.2533
  129MOL   C20643982   1.652   2.932   4.781 -0.3739 -0.0537  0.5177
  129MOL   C20743983   1.568   2.810   4.743  0.0228  0.1639 -0.4502
  129MOL   C20843984   1.443   2.784   4.806  0.0590  0.1782  0.1381
  129MOL   C20943985   1.365   2.681   4.749  0.1206  0.5737  0.1784
  129MOL   C21043986   1.413   2.586   4.654  0.0903  0.2511 -0.0612
  129MOL   O21143987   1.325   2.498   4.594  0.0995 -0.0205  0.1444
  129MOL   C21243988   1.543   2.611   4.605  0.0792 -0.4686 -0.0986
  129MOL   C21343989   1.622   2.715   4.652  0.3243 -0.3002 -0.4178
  129MOL   C21443990   1.655   2.961   4.935  0.2663  0.6423  0.2132
  129MOL   H21543991   1.757   2.916   4.758  0.0820  3.9365 -0.3866
  129MOL   H21643992   1.392   2.865   4.857  0.1028  0.3988 -0.1678
  129MOL   H21743993   1.264   2.667   4.785  0.3644 -0.0988  0.6154
  129MOL   H21843994   1.353   2.489   4.504 -0.5573 -0.4400 -0.0223
  129MOL   H21943995   1.581   2.547   4.528 -1.8052 -0.7219 -0.8524
  129MOL   H22043996   1.719   2.719   4.605  0.6665  1.7469  0.4112
  129MOL   H22143997   1.556   2.948   4.979  1.7864 -2.0088  3.0534
  129MOL   H22243998   1.684   3.065   4.949  3.0030 -0.0026 -0.5157
  129MOL   C22343999   1.749   2.869   5.021  0.3780 -0.7479  0.1752
  129MOL   C22444000   1.707   2.878   5.174 -0.1044  0.6551  0.6654
  129MOL   C22544001   1.757   2.960   5.274 -0.4929 -0.7033  0.4127
  129MOL   C22644002   1.704   2.949   5.402 -1.1664  0.1268  0.0573
  129MOL   C22744003   1.594   2.859   5.430 -0.0013 -0.1297 -0.3025
  129MOL   O22844004   1.535   2.857   5.556 -0.0536  0.0491  0.0035
  129MOL   C22944005   1.549   2.770   5.338  0.0620  0.0277  0.1264
  129MOL   C23044006   1.608   2.780   5.213 -0.2118 -0.3654  0.2866
  129MOL   C23144007   1.897   2.901   5.006  0.3325  0.2509 -0.3860
  129MOL   H23244008   1.735   2.771   4.975 -0.5853 -0.7947  0.5499
  129MOL   H23344009   1.828   3.038   5.254 -2.1807  1.2274  1.7280
  129MOL   H23444010   1.742   3.021   5.473  1.0896  1.3743 -2.3388
  129MOL   H23544011   1.459   2.801   5.549  0.9458 -0.9369 -3.7737
  129MOL   H23644012   1.467   2.700   5.352 -0.5974  0.1876 -2.6568
  129MOL   H23744013   1.571   2.718   5.132  0.8686 -1.0780  0.3313
  129MOL   H23844014   1.937   2.881   4.906  0.7357  0.4436 -0.2664
  129MOL   H23944015   1.921   3.005   5.030 -0.5084  0.8168 -1.9525
  129MOL   C24044016   1.991   2.806   5.091  0.1359  0.2614  0.6013
  129MOL   C24144017   1.948   2.656   5.091  0.1865  0.4355 -0.1305
  129MOL   C24244018   1.944   2.581   4.972  0.5813  0.2375  0.1175
  129MOL   C24344019   1.925   2.440   4.981 -0.4153 -0.4641  0.2339
  129MOL   C24444020   1.907   2.378   5.106 -0.4162 -0.7018 -0.2404
  129MOL   O24544021   1.861   2.248   5.111 -0.2296  0.2935  0.5364
  129MOL   C24644022   1.919   2.449   5.221  0.9390 -0.1852 -0.3578
  129MOL   C24744023   1.940   2.588   5.213  0.7775 -0.0068  0.6184
  129MOL   C24844024   2.134   2.824   5.039  0.2537 -0.2913  0.3225
  129MOL   H24944025   1.991   2.845   5.193 -0.0733  0.4357  0.5356
  129MOL   H25044026   1.960   2.624   4.875  0.2570  0.5503  0.2011
  129MOL   H25144027   1.907   2.374   4.898 -0.3439 -1.5088  1.0374
  129MOL   H25244028   1.867   2.216   5.199 -0.4418 -3.1762 -0.6261
  129MOL   H25344029   1.904   2.411   5.321  2.6722  1.3109  0.5070
  129MOL   H25444030   1.946   2.643   5.306  0.5325 -0.5369  0.9510
  129MOL   H25544031   2.156   2.772   4.946 -0.6572  0.5787 -0.3856
  129MOL   H25644032   2.158   2.930   5.026  0.0245 -0.1016  1.3499
  129MOL   C25744033   2.243   2.770   5.137 -0.2509  0.6785 -0.2270
  129MOL   C25844034   2.370   2.720   5.072  0.4841  0.3635 -0.7349
  129MOL   C25944035   2.399   2.588   5.074  0.1648  0.6089  0.0708
  129MOL   C26044036   2.521   2.538   5.024  0.3233  0.5395  0.2354
  129MOL   C26144037   2.619   2.629   4.972 -0.1006 -0.5826 -0.3376
  129MOL   O26244038   2.737   2.581   4.927 -0.3816  0.2615 -0.0748
  129MOL   C26344039   2.583   2.765   4.965 -0.3730 -0.0945  0.3612
  129MOL   C26444040   2.463   2.812   5.015  0.4463  0.1270 -0.8700
  129MOL   C26544041   2.273   2.861   5.256  0.4455  0.0760 -0.2588
  129MOL   H26644042   2.204   2.682   5.189  0.6010  1.3396  1.5516
  129MOL   H26744043   2.333   2.513   5.116  0.2167  1.1300  1.1087
  129MOL   H26844044   2.530   2.430   5.017  1.7675  0.6308  0.6186
  129MOL   H26944045   2.737   2.611   4.838 -2.9736  0.6354  0.0188
  129MOL   H27044046   2.655   2.829   4.916 -1.7629  2.0540  1.0964
  129MOL   H27144047   2.445   2.918   4.998  0.7218  0.1186 -1.2085
  129MOL   H27244048   2.184   2.900   5.307 -0.6899 -1.0169 -1.3597
  129MOL   H27344049   2.310   2.952   5.209  1.7031 -0.2500  0.0856
  129MOL   C27444050   2.370   2.809   5.360  0.0623 -0.0080 -0.5364
  129MOL   C27544051   2.313   2.679   5.419  0.0169 -0.0320  0.4875
  129MOL   C27644052   2.376   2.555   5.406 -0.3210 -0.4177 -0.1361
  129MOL   C27744053   2.321   2.439   5.468 -0.0852  0.6037 -0.6527
  129MOL   C27844054   2.202   2.456   5.547 -0.2836  0.4923 -0.4824
  129MOL   O27944055   2.165   2.353   5.628  0.2417 -0.2910 -0.1438
  129MOL   C28044056   2.130   2.578   5.546 -1.1038 -0.0155 -0.4437
  129MOL   C28144057   2.195   2.692   5.489 -0.5295 -0.4399 -0.2865
  129MOL   C28244058   2.408   2.908   5.471 -0.3988  0.1746 -0.1254
  129MOL   H28344059   2.459   2.783   5.304 -0.9413 -0.9847 -1.7152
  129MOL   H28444060   2.465   2.542   5.347  0.1799 -1.0285  0.7304
  129MOL   H28544061   2.376   2.347   5.475  2.5212  2.2280  1.4794
  129MOL   H28644062   2.221   2.279   5.645 -1.1033 -0.9516  1.6374
  129MOL   H28744063   2.034   2.582   5.595 -0.6398  0.3622  0.4397
  129MOL   H28844064   2.149   2.790   5.495 -0.8394 -0.5552 -0.8086
  129MOL   H28944065   2.312   2.951   5.498  0.4714  1.8448  0.4115
  129MOL   H29044066   2.446   2.844   5.551 -2.6089 -0.0115  0.8219
  129MOL   C29144067   2.513   3.017   5.434  0.2899  0.0420 -0.2117
  129MOL   C29244068   2.660   2.978   5.446 -0.5991  0.0491  0.0765
  129MOL   C29344069   2.738   2.931   5.335  0.5473 -0.3365 -0.0522
  129MOL   C29444070   2.873   2.901   5.347 -0.1082  0.4107 -0.2007
  129MOL   C29544071   2.936   2.914   5.473  0.5219  0.2109  0.2729
  129MOL   O29644072   3.073   2.900   5.487  0.3344 -0.0272  0.3610
  129MOL   C29744073   2.858   2.948   5.584 -0.0069  0.0383  0.5100
  129MOL   C29844074   2.722   2.982   5.572  0.0558 -0.1528 -0.0984
  129MOL   C29944075   2.477   3.152   5.508 -0.3061 -0.3847 -0.0770
  129MOL   H30044076   2.496   3.042   5.329 -2.8836  1.0433  0.4692
  129MOL   H30144077   2.707   2.912   5.234 -0.2367 -0.5656  0.2227
  129MOL   H30244078   2.935   2.880   5.261 -0.3278  0.2977 -0.3301
  129MOL   H30344079   3.104   2.917   5.575 -1.9438  0.0586  1.1771
  129MOL   H30444080   2.910   2.963   5.678  1.5846  0.3616 -0.4047
  129MOL   H30544081   2.656   3.007   5.654 -1.5033  1.5685 -1.8314
  129MOL   H30644082   2.568   3.211   5.492 -0.6694  0.0279 -0.6486
  129MOL   H30744083   2.485   3.135   5.616 -1.1806 -0.0240  0.0439
  129MOL   C30844084   2.346   3.232   5.463 -0.7459 -0.3423 -0.0767
  129MOL   C30944085   2.349   3.258   5.310  0.1542  0.0872  0.0508
  129MOL   C31044086   2.458   3.330   5.249  0.3066 -0.5061  0.1172
  129MOL   C31144087   2.457   3.355   5.108 -0.4297  0.5793  0.0576
  129MOL   C31244088   2.345   3.306   5.040 -1.0797  0.1631 -0.8199
  129MOL   O31344089   2.336   3.321   4.911 -0.5625 -0.2907  0.3531
  129MOL   C31444090   2.242   3.228   5.098  0.1747  0.7027 -0.3706
  129MOL   C31544091   2.241   3.202   5.237  0.2009  0.1440  0.0469
  129MOL   C31644092   2.330   3.370   5.540 -0.6590  0.6253  0.2379
  129MOL   H31744093   2.261   3.166   5.478 -0.3138 -1.5592 -2.6991
  129MOL   H31844094   2.530   3.377   5.313 -0.7457  1.7466 -0.2871
  129MOL   H31944095   2.547   3.393   5.060  0.4195  0.0101  1.1706
  129MOL   H32044096   2.399   3.385   4.880 -0.0814  0.0747  2.0478
  129MOL   H32144097   2.161   3.205   5.030 -0.6392  0.4263  0.6802
  129MOL   H32244098   2.157   3.150   5.282 -0.5508 -0.2379 -1.7690
  129MOL   H32344099   2.400   3.441   5.496  0.8082 -0.5427  0.6435
  129MOL   H32444100   2.362   3.367   5.644  1.1625  1.7387 -0.2697
  129MOL   C32544101   2.195   3.432   5.529 -0.0205  0.0568 -0.2354
  129MOL   C32644102   2.212   3.579   5.489 -0.8387  0.3009 -0.0600
  129MOL   C32744103   2.181   3.620   5.362 -0.3275 -0.1333  0.3485
  129MOL   C32844104   2.196   3.757   5.335  0.2396 -0.0077 -0.1463
  129MOL   C32944105   2.238   3.848   5.432  0.2245  0.5888 -0.1495
  129MOL   O33044106   2.232   3.986   5.410 -0.2599 -0.0606  0.1187
  129MOL   C33144107   2.292   3.793   5.549  0.0344  0.5152 -0.4198
  129MOL   C33244108   2.274   3.663   5.583  0.6228 -0.2776 -0.9827
  129MOL   C33344109   2.111   3.413   5.657 -0.9066 -0.0894 -1.0390
  129MOL   H33444110   2.140   3.376   5.454 -1.3809  0.1294  0.6876
  129MOL   H33544111   2.148   3.548   5.289  0.0350  0.7209 -0.6652
  129MOL   H33644112   2.178   3.793   5.235  2.0832 -0.7662 -0.7860
  129MOL   H33744113   2.263   4.026   5.489 -0.6982  1.5105 -0.4937
  129MOL   H33844114   2.347   3.848   5.624  1.3357 -1.1177 -0.1625
  129MOL   H33944115   2.310   3.627   5.678 -0.5612  1.9796  0.3522
  129MOL   H34044116   2.020   3.471   5.643  0.4386  1.7189 -2.5220
  129MOL   H34144117   2.148   3.469   5.743 -0.1579  1.0190 -2.0522
  129MOL   H34244118   2.080   3.311   5.678  0.4645 -0.2238  0.4899
  130MOL     C144119   6.694   0.181   2.442  0.7915 -0.6211  0.7745
  130MOL     C244120   6.674   0.123   2.579 -0.1581  0.9964  1.0598
  130MOL     C344121   6.621   8.032   2.589  0.3494 -0.5937  0.6857
  130MOL     C444122   6.584   7.984   2.713 -0.3761  0.0118 -0.0198
  130MOL     C544123   6.631   0.012   2.830 -0.3950 -0.7139 -0.0219
  130MOL     O644124   6.603   8.003   2.947 -0.7689  0.1672 -0.2434
  130MOL     C744125   6.692   0.138   2.818 -0.0275 -0.4767 -0.1821
  130MOL     C844126   6.719   0.189   2.692 -0.1232 -0.3267 -0.3511
  130MOL     C944127   6.610   0.308   2.430  0.7606  0.3046 -0.0722
  130MOL    H1044128   6.800   0.201   2.427  0.9768 -0.8366  1.7422
  130MOL    H1144129   6.589   7.968   2.508 -1.9312 -0.6977  1.6248
  130MOL    H1244130   6.511   7.905   2.713 -1.9050  1.3974 -1.0161
  130MOL    H1344131   6.605   0.031   3.015  1.5552 -0.7885  0.6579
  130MOL    H1444132   6.733   0.184   2.907 -0.9223  0.2469 -0.1372
  130MOL    H1544133   6.775   0.281   2.686 -1.2547  0.3958  0.1057
  130MOL    H1644134   6.627   0.377   2.512  2.7126  2.0236 -1.8770
  130MOL    H1744135   6.502   0.295   2.437  0.8850 -1.1897 -0.6521
  130MOL    H1844136   6.668   0.110   2.364  0.6965  0.2192  0.0417
  130MOL    C1944137   6.626   0.375   2.293  0.1134 -0.8027  0.9829
  130MOL    C2044138   6.752   0.462   2.286  0.2124  0.1663 -0.2015
  130MOL    C2144139   6.834   0.448   2.171  0.9081  0.1083 -0.0474
  130MOL    C2244140   6.947   0.528   2.155 -0.6435 -0.0685 -0.9313
  130MOL    C2344141   6.980   0.627   2.255  0.0058  0.1018  0.2891
  130MOL    O2444142   7.096   0.700   2.244  0.1142  0.3801  0.0173
  130MOL    C2544143   6.899   0.645   2.371 -0.1913  0.2208  0.2660
  130MOL    C2644144   6.781   0.564   2.378  0.4018 -0.2398  1.2113
  130MOL    C2744145   6.511   0.467   2.258  0.3714 -0.6713 -0.0506
  130MOL    H2844146   6.621   0.297   2.216 -2.0364  1.2525 -1.0519
  130MOL    H2944147   6.817   0.375   2.093 -2.8096  0.3716  0.4292
  130MOL    H3044148   7.003   0.523   2.063 -1.8915 -1.6151 -1.6377
  130MOL    H3144149   7.074   0.791   2.250  1.3398  0.6374  0.9203
  130MOL    H3244150   6.917   0.721   2.446  1.2410  0.5806 -0.4121
  130MOL    H3344151   6.712   0.591   2.457 -0.1943  1.3904  0.1630
  130MOL    H3444152   6.513   0.540   2.338 -0.5050 -0.5450 -0.1332
  130MOL    H3544153   6.418   0.410   2.266 -0.1378  0.1179 -0.3494
  130MOL    C3644154   6.513   0.526   2.118 -0.0556 -0.1184  0.1576
  130MOL    C3744155   6.495   0.678   2.124 -0.7713  0.3827  0.4684
  130MOL    C3844156   6.610   0.763   2.114  0.3873  0.1301 -0.2552
  130MOL    C3944157   6.592   0.908   2.118  0.4096 -0.1235 -0.1992
  130MOL    C4044158   6.463   0.962   2.116 -0.5024  0.0671  0.3647
  130MOL    O4144159   6.452   1.094   2.097  0.0729 -0.3093 -0.2923
  130MOL    C4244160   6.351   0.875   2.129  0.2982 -0.2406  0.1802
  130MOL    C4344161   6.364   0.738   2.139 -0.0451 -0.1108  0.1414
  130MOL    C4444162   6.408   0.466   2.025 -0.4671  0.0915  0.1189
  130MOL    H4544163   6.605   0.510   2.062 -1.0431 -0.8802 -1.2740
  130MOL    H4644164   6.708   0.721   2.131  0.9173  1.7615  0.9760
  130MOL    H4744165   6.684   0.962   2.134 -0.0342  0.6003 -0.0444
  130MOL    H4844166   6.535   1.137   2.081  0.9055 -0.4974  3.1038
  130MOL    H4944167   6.255   0.923   2.143  0.0904 -0.1569 -1.5266
  130MOL    H5044168   6.277   0.678   2.157 -1.7128  2.1467 -0.1819
  130MOL    H5144169   6.418   0.359   2.045  0.4616  0.0677 -0.4179
  130MOL    H5244170   6.305   0.491   2.047 -0.9428 -1.3437 -0.4446
  130MOL    C5344171   6.433   0.478   1.869  0.5067 -0.4219 -0.5422
  130MOL    C5444172   6.320   0.414   1.791  0.0869 -0.7267  0.2251
  130MOL    C5544173   6.199   0.481   1.784 -0.0991 -0.4684 -0.0502
  130MOL    C5644174   6.105   0.435   1.692  0.0716 -0.0628  0.9683
  130MOL    C5744175   6.120   0.319   1.619 -0.3934 -0.2199  0.6905
  130MOL    O5844176   6.024   0.270   1.536  0.4625 -0.3235  0.7416
  130MOL    C5944177   6.234   0.239   1.638  0.0325  0.0570 -0.2508
  130MOL    C6044178   6.338   0.294   1.714 -0.2981  0.1888  0.3674
  130MOL    C6144179   6.482   0.623   1.824  0.3985 -0.0215 -0.4163
  130MOL    H6244180   6.527   0.424   1.853  0.7951 -0.7795  2.0708
  130MOL    H6344181   6.179   0.577   1.830  1.2692  0.0044 -0.4218
  130MOL    H6444182   6.015   0.489   1.666 -0.0771 -0.3733  0.8489
  130MOL    H6544183   5.967   0.341   1.509  1.6802  0.3211 -0.2245
  130MOL    H6644184   6.257   0.152   1.578  2.1195 -0.4416  1.2543
  130MOL    H6744185   6.430   0.236   1.717 -0.8723 -0.6507  2.1194
  130MOL    H6844186   6.570   0.662   1.875 -0.4878  1.5649 -0.0679
  130MOL    H6944187   6.410   0.698   1.857  2.4448  2.7190 -1.9125
  130MOL    C7044188   6.481   0.649   1.672  0.0054 -0.4194  1.0311
  130MOL    C7144189   6.554   0.547   1.585  0.6542 -0.1559 -0.2147
  130MOL    C7244190   6.682   0.499   1.618 -0.0153 -0.2757  0.8046
  130MOL    C7344191   6.748   0.416   1.524  0.4308 -0.2247 -0.8661
  130MOL    C7444192   6.688   0.373   1.406  0.2623 -0.0881  0.2760
  130MOL    O7544193   6.753   0.278   1.332 -0.7098 -1.1173  0.4479
  130MOL    C7644194   6.555   0.418   1.379 -0.6623  0.3293  0.8293
  130MOL    C7744195   6.493   0.506   1.465 -0.5185  0.4994 -0.1053
  130MOL    C7844196   6.548   0.787   1.637 -0.5868  0.1652  0.3616
  130MOL    H7944197   6.376   0.660   1.644  0.6325 -1.0419 -1.6762
  130MOL    H8044198   6.738   0.519   1.708 -0.2976  1.6007  0.5897
  130MOL    H8144199   6.850   0.387   1.546  0.1040  1.0130  2.7968
  130MOL    H8244200   6.686   0.235   1.281  1.1838 -1.5570 -1.7310
  130MOL    H8344201   6.501   0.383   1.293  0.3959  1.2473 -0.2270
  130MOL    H8444202   6.399   0.548   1.434 -0.3634 -0.1735 -1.5024
  130MOL    H8544203   6.570   0.795   1.531 -1.9755 -1.3493 -0.0724
  130MOL    H8644204   6.650   0.799   1.672 -0.5126 -1.4920  0.7677
  130MOL    C8744205   6.481   0.923   1.687  0.1354  0.2339 -0.1670
  130MOL    C8844206   6.330   0.916   1.669 -0.0328 -0.3058  0.0405
  130MOL    C8944207   6.261   0.918   1.546  0.1161 -0.6195  0.5902
  130MOL    C9044208   6.118   0.924   1.543 -0.1515 -0.4523  0.5080
  130MOL    C9144209   6.046   0.908   1.666  0.0976  0.5118  0.0404
  130MOL    O9244210   5.911   0.891   1.651  0.0839  0.0056 -0.6065
  130MOL    C9344211   6.117   0.900   1.790 -0.0805 -0.1469 -0.5865
  130MOL    C9444212   6.258   0.912   1.790  1.0580  0.4350 -0.3272
  130MOL    C9544213   6.538   1.046   1.606 -0.0534 -0.0818 -0.0105
  130MOL    H9644214   6.516   0.941   1.789  3.5824 -0.8355 -1.0888
  130MOL    H9744215   6.314   0.920   1.452 -0.1959  1.2865  0.4349
  130MOL    H9844216   6.070   0.930   1.446  0.0948 -0.0442  0.4098
  130MOL    H9944217   5.877   0.856   1.570 -2.0608 -0.0900  0.3065
  130MOL   H10044218   6.060   0.891   1.881 -0.1736  0.1955 -0.6117
  130MOL   H10144219   6.312   0.910   1.883  0.0190 -0.3501  0.2753
  130MOL   H10244220   6.500   1.051   1.504 -1.9892  0.5510  0.7280
  130MOL   H10344221   6.476   1.130   1.638  0.7544  0.4851  0.0760
  130MOL   C10444222   6.688   1.068   1.623 -0.3619  0.1896  0.1800
  130MOL   C10544223   6.748   1.057   1.759  0.1645  0.3612  0.5696
  130MOL   C10644224   6.825   0.940   1.796 -0.1149 -0.1507 -0.2545
  130MOL   C10744225   6.876   0.924   1.926  0.6325 -1.0460 -0.0704
  130MOL   C10844226   6.874   1.040   2.008 -0.2986  0.1480  0.5931
  130MOL   O10944227   6.934   1.033   2.127 -0.3644 -0.0280  0.0833
  130MOL   C11044228   6.804   1.158   1.975  0.2445 -1.0047 -0.3874
  130MOL   C11144229   6.739   1.165   1.851 -0.3415  0.1922 -0.0162
  130MOL   C11244230   6.727   1.196   1.534  0.1480 -0.4315 -0.1609
  130MOL   H11344231   6.742   0.995   1.563  2.5289  1.0195  1.7161
  130MOL   H11444232   6.851   0.856   1.733  0.1276 -1.8916  2.1068
  130MOL   H11544233   6.923   0.832   1.955 -0.4696 -2.0830 -1.5006
  130MOL   H11644234   6.940   1.113   2.177  0.1040 -0.9629  1.5746
  130MOL   H11744235   6.810   1.237   2.048  1.5238 -1.9173  0.5294
  130MOL   H11844236   6.670   1.245   1.828 -0.2401  0.4723  0.6481
  130MOL   H11944237   6.662   1.277   1.566  0.4213 -0.4344  0.4039
  130MOL   H12044238   6.699   1.160   1.435  2.8679 -0.4235 -0.9709
  130MOL   C12144239   6.874   1.244   1.520  0.8501 -0.2653  0.3688
  130MOL   C12244240   6.927   1.335   1.629  0.3060 -0.8632 -0.0960
  130MOL   C12344241   7.007   1.292   1.735  0.3942  0.5345 -0.2004
  130MOL   C12444242   7.065   1.383   1.828 -0.2929 -0.7063  0.2273
  130MOL   C12544243   7.046   1.521   1.820  0.4628  0.2563 -0.0272
  130MOL   O12644244   7.101   1.602   1.918 -0.4142  0.4538  0.0502
  130MOL   C12744245   6.963   1.568   1.713  0.0003  0.2816 -0.2448
  130MOL   C12844246   6.910   1.478   1.620  0.2045 -0.0911  0.0933
  130MOL   C12944247   6.974   1.134   1.477 -0.0779 -0.8514 -1.0844
  130MOL   H13044248   6.873   1.316   1.438 -2.7488  0.2545  0.7876
  130MOL   H13144249   7.044   1.190   1.735 -0.7139  0.1249  0.5077
  130MOL   H13244250   7.136   1.338   1.895  0.8214 -1.8746 -1.7020
  130MOL   H13344251   7.094   1.691   1.890  0.7620  0.4593 -0.2770
  130MOL   H13444252   6.928   1.670   1.710  1.2399  0.6976 -2.2002
  130MOL   H13544253   6.853   1.523   1.541  0.1254  0.2415  0.3373
  130MOL   H13644254   6.954   1.047   1.540  0.6485 -1.6567 -1.9553
  130MOL   H13744255   7.078   1.164   1.494 -0.3005  1.0981 -3.0658
  130MOL   C13844256   6.968   1.087   1.322  0.9258  0.0103  0.8260
  130MOL   C13944257   6.982   0.939   1.314 -0.2229  0.0387  0.0377
  130MOL   C14044258   7.102   0.874   1.292 -0.1764 -0.1050  0.2799
  130MOL   C14144259   7.104   0.737   1.270 -0.2177  1.1794 -0.0629
  130MOL   C14244260   6.989   0.661   1.263 -0.2555 -0.2543  0.0296
  130MOL   O14344261   6.993   0.526   1.231  0.1434  0.7438  0.1689
  130MOL   C14444262   6.869   0.720   1.293 -0.7023  0.1155 -0.1369
  130MOL   C14544263   6.863   0.859   1.318 -0.4883 -0.8109  0.1460
  130MOL   C14644264   7.071   1.167   1.229 -0.2226  0.1787  0.2679
  130MOL   H14744265   6.871   1.096   1.273  0.8334  0.9281  1.1730
  130MOL   H14844266   7.194   0.930   1.293 -1.5075  2.1869 -1.0875
  130MOL   H14944267   7.198   0.691   1.242 -0.1490  1.2008  0.1319
  130MOL   H15044268   6.914   0.475   1.241  1.2833 -0.7415  2.2249
  130MOL   H15144269   6.779   0.660   1.298 -1.3091  1.1124  0.9660
  130MOL   H15244270   6.765   0.899   1.339  0.8807  2.1417  1.1731
  130MOL   H15344271   7.065   1.118   1.132  1.4528 -0.8518  0.6636
  130MOL   H15444272   7.174   1.159   1.262  0.0867 -0.3268 -0.7982
  130MOL   C15544273   7.040   1.324   1.199  0.0777  0.0908 -0.1001
  130MOL   C15644274   6.900   1.339   1.147  0.2387 -0.3188  0.0746
  130MOL   C15744275   6.844   1.261   1.040  0.4967 -0.6880 -0.6054
  130MOL   C15844276   6.714   1.288   0.999  0.9925  0.4318 -0.9685
  130MOL   C15944277   6.627   1.381   1.070 -0.0324  0.1016  0.0787
  130MOL   O16044278   6.497   1.405   1.014  0.6051 -0.6505  0.5058
  130MOL   C16144279   6.682   1.450   1.179  1.1806  0.5201  0.3441
  130MOL   C16244280   6.818   1.432   1.217  0.4911  0.0949 -0.5808
  130MOL   C16344281   7.151   1.386   1.108  0.6272 -0.0065 -0.2619
  130MOL   H16444282   7.052   1.359   1.301 -1.2115  0.4656 -0.0618
  130MOL   H16544283   6.911   1.196   0.985 -0.6911 -1.2375 -1.4358
  130MOL   H16644284   6.676   1.249   0.906 -3.3675  0.7745  0.5561
  130MOL   H16744285   6.433   1.438   1.076  0.4947 -0.8255  0.4881
  130MOL   H16844286   6.627   1.534   1.219  0.5796  0.0719  0.4625
  130MOL   H16944287   6.859   1.490   1.298  2.9426 -1.6624 -0.5046
  130MOL   H17044288   7.146   1.334   1.013 -1.9042 -0.1650 -0.0672
  130MOL   H17144289   7.248   1.380   1.157  0.5579 -1.5001 -0.2915
  130MOL   C17244290   7.108   1.535   1.069  0.1425 -0.1930 -0.3264
  130MOL   C17344291   7.198   1.593   0.961 -0.0309  0.1663  0.2937
  130MOL   C17444292   7.134   1.662   0.854 -0.4537  0.1854 -0.0195
  130MOL   C17544293   7.213   1.719   0.753 -0.1095 -0.7408  0.2102
  130MOL   C17644294   7.352   1.703   0.761 -0.3867  0.7472 -0.0647
  130MOL   O17744295   7.425   1.743   0.651 -0.0065  0.2952 -0.2401
  130MOL   C17844296   7.412   1.634   0.871  0.4236 -0.7265 -0.1282
  130MOL   C17944297   7.334   1.582   0.973  0.3087 -0.8634  0.7602
  130MOL   C18044298   7.120   1.631   1.184 -0.1425  0.0870 -0.1633
  130MOL   H18144299   7.005   1.549   1.035 -0.0001 -1.1518 -0.3061
  130MOL   H18244300   7.029   1.679   0.835 -0.6193 -0.9056 -0.1030
  130MOL   H18344301   7.167   1.772   0.671 -0.9852 -0.6032  0.7824
  130MOL   H18444302   7.517   1.725   0.648 -0.6308 -2.9554 -2.3945
  130MOL   H18544303   7.520   1.627   0.878  0.6323  0.7912 -1.4630
  130MOL   H18644304   7.374   1.545   1.066  0.3426  0.3896  1.2494
  130MOL   H18744305   7.221   1.634   1.224  0.7881 -2.1982 -2.2014
  130MOL   H18844306   7.066   1.591   1.270 -2.5668  2.4584 -0.4883
  130MOL   C18944307   7.057   1.774   1.168  0.1761  0.3096 -0.2422
  130MOL   C19044308   6.920   1.791   1.221 -0.4372  0.3862 -0.3163
  130MOL   C19144309   6.808   1.821   1.135  0.1984 -0.0663  0.3616
  130MOL   C19244310   6.675   1.827   1.185 -0.0051 -0.0614 -0.4677
  130MOL   C19344311   6.654   1.796   1.326 -0.5948 -0.0783 -0.4343
  130MOL   O19444312   6.527   1.805   1.374 -0.2796 -0.3702 -0.2593
  130MOL   C19544313   6.765   1.784   1.409  0.6465  0.4196  0.1309
  130MOL   C19644314   6.897   1.786   1.361  0.2864  0.1472  0.5750
  130MOL   C19744315   7.156   1.882   1.224  0.4453  0.4057  0.4336
  130MOL   H19844316   7.051   1.783   1.059  0.1567 -2.1312 -0.4656
  130MOL   H19944317   6.826   1.846   1.031  0.4896 -1.1501  0.1420
  130MOL   H20044318   6.595   1.837   1.113  0.1382 -1.0699 -0.7753
  130MOL   H20144319   6.460   1.780   1.312  0.7653 -1.8636 -0.8425
  130MOL   H20244320   6.749   1.776   1.516  2.7806  1.7532  0.5685
  130MOL   H20344321   6.977   1.790   1.432  1.0221  2.0216 -0.3331
  130MOL   H20444322   7.180   1.833   1.318 -2.9008 -3.9628 -0.8068
  130MOL   H20544323   7.098   1.969   1.253 -0.8548  0.2967 -1.7284
  130MOL   C20644324   7.283   1.910   1.142 -0.1378  0.3921  0.4088
  130MOL   C20744325   7.394   1.984   1.211  0.4378 -0.2941  0.0287
  130MOL   C20844326   7.373   2.093   1.304  0.2687  0.0796 -0.0808
  130MOL   C20944327   7.485   2.169   1.352 -0.0179  0.5101 -0.4219
  130MOL   C21044328   7.615   2.136   1.304  0.9116  0.5447  0.3161
  130MOL   O21144329   7.725   2.194   1.352  0.6630 -0.2289  0.2011
  130MOL   C21244330   7.626   2.024   1.222  0.1273  0.0777  0.4966
  130MOL   C21344331   7.522   1.951   1.171 -0.0059  0.6080 -0.0030
  130MOL   C21444332   7.253   1.992   1.011 -0.4878 -0.1946  0.8452
  130MOL   H21544333   7.326   1.814   1.113 -1.6715  0.5672 -2.5984
  130MOL   H21644334   7.271   2.119   1.327 -0.4044 -1.8024 -0.7608
  130MOL   H21744335   7.465   2.258   1.410 -1.0244  0.7978 -1.1915
  130MOL   H21844336   7.806   2.147   1.338  2.1919  2.0980  0.9585
  130MOL   H21944337   7.723   1.991   1.188 -0.3439 -1.3455  0.4675
  130MOL   H22044338   7.547   1.871   1.103  1.0135  0.2815  0.7450
  130MOL   H22144339   7.169   1.944   0.961 -2.0576  3.1332  0.1187
  130MOL   H22244340   7.335   1.969   0.944 -2.0731 -0.3462 -1.0982
  130MOL   C22344341   7.216   2.139   1.006  0.1435 -0.1239 -0.0963
  130MOL   C22444342   7.067   2.165   1.035  0.2263  0.2903  0.1442
  130MOL   C22544343   6.972   2.110   0.945  1.2663  0.2329  0.5111
  130MOL   C22644344   6.839   2.127   0.964  0.5056 -1.0284  0.1402
  130MOL   C22744345   6.793   2.186   1.084 -0.1502  0.0867  0.0820
  130MOL   O22844346   6.663   2.204   1.109 -0.1240 -0.0870  0.5227
  130MOL   C22944347   6.888   2.240   1.174  0.0788  0.6830 -0.6502
  130MOL   C23044348   7.027   2.234   1.150  0.1344 -0.1228 -0.5784
  130MOL   C23144349   7.256   2.198   0.867  0.1111  0.1310 -0.0578
  130MOL   H23244350   7.268   2.185   1.089 -0.7248  0.9863 -0.1552
  130MOL   H23344351   6.998   2.060   0.852 -1.9372 -0.9709  0.1743
  130MOL   H23444352   6.766   2.090   0.894  0.5166 -0.5840 -0.1112
  130MOL   H23544353   6.653   2.197   1.203 -0.8189  0.3462  0.4845
  130MOL   H23644354   6.853   2.283   1.267  0.5529 -1.0824  0.3579
  130MOL   H23744355   7.092   2.284   1.220 -2.2907  2.7821 -0.2795
  130MOL   H23844356   7.343   2.153   0.819  0.4079 -0.2131  0.7994
  130MOL   H23944357   7.179   2.173   0.794 -0.7441  4.0394 -0.5882
  130MOL   C24044358   7.296   2.347   0.877 -0.0343 -0.1174  0.7794
  130MOL   C24144359   7.426   2.367   0.964 -0.2217  0.1514  0.0371
  130MOL   C24244360   7.564   2.331   0.934  0.5096  0.1682  0.5463
  130MOL   C24344361   7.675   2.357   1.013 -0.1382  0.2599 -0.7752
  130MOL   C24444362   7.655   2.418   1.138  0.1037 -0.1429 -0.3299
  130MOL   O24544363   7.756   2.447   1.220 -1.0624  0.1798  0.2255
  130MOL   C24644364   7.526   2.460   1.175  0.4592 -0.0702  0.2173
  130MOL   C24744365   7.417   2.445   1.082 -0.2936 -0.5048  0.5395
  130MOL   C24844366   7.317   2.414   0.740 -0.1925 -0.0859 -0.6377
  130MOL   H24944367   7.211   2.388   0.932 -3.2489 -1.3336 -3.0166
  130MOL   H25044368   7.570   2.272   0.845  1.7951  0.4500  0.4440
  130MOL   H25144369   7.777   2.324   0.997  0.4933  1.3899  0.7179
  130MOL   H25244370   7.754   2.394   1.298 -0.7310  0.9565  0.7671
  130MOL   H25344371   7.511   2.511   1.269 -1.2495  0.5309 -0.3510
  130MOL   H25444372   7.322   2.471   1.127  0.0975  1.3014  0.3663
  130MOL   H25544373   7.407   2.368   0.697  0.1381  0.2612 -0.3249
  130MOL   H25644374   7.243   2.383   0.667  2.1461  0.0765 -3.1840
  130MOL   C25744375   7.337   2.568   0.742 -0.2053 -0.7409 -0.6493
  130MOL   C25844376   7.401   2.622   0.617  0.2063  0.0314 -0.5126
  130MOL   C25944377   7.539   2.610   0.601  0.2976  0.1648 -1.1495
  130MOL   C26044378   7.603   2.637   0.481  0.2124 -0.0222 -0.0017
  130MOL   C26144379   7.526   2.680   0.371  0.1400  0.2925  0.6101
  130MOL   O26244380   7.584   2.708   0.254  0.5517 -0.4439  0.3384
  130MOL   C26344381   7.390   2.704   0.388 -0.1766  0.3362  0.7631
  130MOL   C26444382   7.323   2.676   0.513  0.8286 -0.2433  0.0228
  130MOL   C26544383   7.217   2.642   0.790  0.6658  0.0401 -0.9493
  130MOL   H26644384   7.406   2.591   0.823 -2.4717  1.9718  0.5843
  130MOL   H26744385   7.594   2.577   0.688  1.5079 -0.4680 -2.1437
  130MOL   H26844386   7.709   2.620   0.473  0.4146  1.3277 -0.2244
  130MOL   H26944387   7.612   2.630   0.210  2.1105 -0.2128  0.8801
  130MOL   H27044388   7.328   2.742   0.309 -1.4456 -1.3450  0.9261
  130MOL   H27144389   7.217   2.690   0.499  0.8964 -0.1328 -0.3715
  130MOL   H27244390   7.192   2.594   0.885  0.1330  3.6246  0.8266
  130MOL   H27344391   7.142   2.630   0.712  1.1950 -0.3400 -1.3993
  130MOL   C27444392   7.238   2.790   0.827 -0.0845  0.2381 -0.2736
  130MOL   C27544393   7.338   2.811   0.935 -0.3385  0.1277  0.2677
  130MOL   C27644394   7.454   2.876   0.902  0.2812 -0.4910 -0.4674
  130MOL   C27744395   7.555   2.880   0.999 -0.2871  0.3766 -0.3740
  130MOL   C27844396   7.530   2.827   1.127  0.8491 -0.7253  0.4659
  130MOL   O27944397   7.626   2.850   1.219  0.7926 -0.2443 -0.2488
  130MOL   C28044398   7.408   2.767   1.158  0.0917 -0.2595  0.3183
  130MOL   C28144399   7.303   2.761   1.062  0.5104  0.0614 -0.7287
  130MOL   C28244400   7.099   2.844   0.867  0.2154 -0.1397 -0.5127
  130MOL   H28344401   7.279   2.844   0.741  0.9131  0.4387  0.3228
  130MOL   H28444402   7.466   2.919   0.804  1.7352 -2.7787 -1.3483
  130MOL   H28544403   7.648   2.927   0.970  0.2567 -2.0562 -2.8438
  130MOL   H28644404   7.611   2.828   1.310 -1.9615 -0.9032 -0.8152
  130MOL   H28744405   7.388   2.711   1.248 -0.5766 -0.6565 -0.0706
  130MOL   H28844406   7.205   2.720   1.081 -0.4855  1.6614 -2.2802
  130MOL   H28944407   7.064   2.795   0.958  3.9018 -2.5867 -0.2791
  130MOL   H29044408   7.111   2.945   0.906 -0.4333 -0.2290 -0.0698
  130MOL   C29144409   6.990   2.869   0.762  0.2581  0.2803 -0.5958
  130MOL   C29244410   7.044   2.913   0.630  0.1140 -0.4780  0.5229
  130MOL   C29344411   7.009   2.843   0.513  0.2789 -1.0529  0.3849
  130MOL   C29444412   7.064   2.879   0.389 -0.7901 -0.5501 -0.3689
  130MOL   C29544413   7.162   2.981   0.379  0.0448  0.7247 -0.3257
  130MOL   O29644414   7.216   3.016   0.264  0.1162 -0.7071 -0.1337
  130MOL   C29744415   7.208   3.042   0.497 -0.7484  0.3760 -0.0218
  130MOL   C29844416   7.137   3.013   0.618 -0.4832 -0.1103  0.1886
  130MOL   C29944417   6.892   2.973   0.819 -0.2615  0.6415 -0.2579
  130MOL   H30044418   6.946   2.770   0.753  0.6252  0.0991 -0.4318
  130MOL   H30144419   6.933   2.766   0.521  0.1045 -0.6165  3.6764
  130MOL   H30244420   7.027   2.831   0.299 -2.5181 -0.8999  0.5058
  130MOL   H30344421   7.279   3.083   0.283  0.7238 -1.4687  0.5770
  130MOL   H30444422   7.277   3.124   0.498 -1.4579  0.9714  1.4017
  130MOL   H30544423   7.154   3.067   0.710 -1.2108  0.3263  0.0645
  130MOL   H30644424   6.953   3.057   0.851  0.9346 -0.8321  1.5185
  130MOL   H30744425   6.843   2.933   0.908 -0.3992  0.5500 -0.3743
  130MOL   C30844426   6.787   3.041   0.732  0.6709 -0.2883 -0.0534
  130MOL   C30944427   6.729   3.149   0.817  0.1565  0.7079 -0.6245
  130MOL   C31044428   6.635   3.110   0.917 -0.0701 -0.0245  0.3494
  130MOL   C31144429   6.585   3.208   1.003 -0.0681  0.3042  0.4268
  130MOL   C31244430   6.628   3.342   0.987  0.5088 -0.5674 -0.3668
  130MOL   O31344431   6.591   3.431   1.086  0.0428 -0.2339  0.6205
  130MOL   C31444432   6.714   3.380   0.880  0.1400  0.2424  0.1343
  130MOL   C31544433   6.774   3.280   0.803  0.4349  0.3280 -0.2849
  130MOL   C31644434   6.685   2.939   0.676 -0.4253  0.7431  0.0847
  130MOL   H31744435   6.830   3.107   0.657 -0.1695  0.6715  0.2967
  130MOL   H31844436   6.616   3.005   0.935  0.9844  0.1396  2.4930
  130MOL   H31944437   6.518   3.178   1.082 -0.3994  1.1700  0.4855
  130MOL   H32044438   6.568   3.378   1.161 -0.4740 -1.1127 -0.1437
  130MOL   H32144439   6.745   3.482   0.866  1.4153 -0.3813 -1.7896
  130MOL   H32244440   6.836   3.314   0.721  0.5296  1.0537  0.0754
  130MOL   H32344441   6.647   2.867   0.748  0.5777 -0.4372 -0.5425
  130MOL   H32444442   6.739   2.875   0.607  1.2577  1.7972  0.3840
  130MOL   C32544443   6.570   2.994   0.576 -0.1561  0.0285 -0.1308
  130MOL   C32644444   6.597   3.133   0.505  0.2147 -0.0029  0.7715
  130MOL   C32744445   6.711   3.133   0.425 -0.4524 -0.5425 -0.0564
  130MOL   C32844446   6.746   3.252   0.352  0.1522  0.1630  0.1656
  130MOL   C32944447   6.680   3.374   0.377 -0.2802 -0.1952  0.3528
  130MOL   O33044448   6.716   3.479   0.305  0.4698 -0.1910  0.8403
  130MOL   C33144449   6.567   3.379   0.467  0.1905  0.1130  0.6038
  130MOL   C33244450   6.528   3.257   0.530 -0.3674  1.2135 -0.7347
  130MOL   C33344451   6.430   2.989   0.644  0.1271 -0.0006 -0.2949
  130MOL   H33444452   6.573   2.925   0.492  0.7009 -0.8091  0.5715
  130MOL   H33544453   6.774   3.051   0.395 -0.1060 -0.0895 -0.5973
  130MOL   H33644454   6.833   3.240   0.290  1.1746 -3.1555  2.0748
  130MOL   H33744455   6.770   3.446   0.235  0.2996  0.7970  0.2368
  130MOL   H33844456   6.519   3.474   0.487  1.0514  0.8878 -0.9781
  130MOL   H33944457   6.446   3.265   0.599 -1.6977 -0.8080 -2.0420
  130MOL   H34044458   6.432   3.053   0.732  3.4168 -0.4173 -0.0170
  130MOL   H34144459   6.411   2.889   0.684 -1.8851 -0.0091 -1.1716
  130MOL   H34244460   6.355   3.033   0.578  1.4844 -1.3410 -2.7964
  131MOL     C144461   7.543   4.655   1.528  0.4830  0.3693  0.3076
  131MOL     C244462   7.533   4.503   1.525 -0.7326  0.2357  0.0314
  131MOL     C344463   7.601   4.433   1.424  0.2422  0.1294 -0.1194
  131MOL     C444464   7.580   4.294   1.412  0.4125  0.1594 -0.0542
  131MOL     C544465   7.512   4.223   1.509 -0.4533  0.4408  0.1134
  131MOL     O644466   7.506   4.090   1.500  0.3519  0.0858  0.1168
  131MOL     C744467   7.451   4.296   1.616  0.1131  0.6042  0.0033
  131MOL     C844468   7.461   4.437   1.625  0.5013  0.1940  0.8138
  131MOL     C944469   7.501   4.717   1.393 -0.0057 -0.3775  0.4735
  131MOL    H1044470   7.485   4.688   1.614  0.1291  0.0419  0.1943
  131MOL    H1144471   7.653   4.481   1.343  0.8653  1.5009  1.0639
  131MOL    H1244472   7.622   4.230   1.335  1.5040  0.4375  0.3084
  131MOL    H1344473   7.444   4.041   1.552  3.1108 -3.0082  0.6894
  131MOL    H1444474   7.394   4.242   1.691  0.2712  0.9081  0.3446
  131MOL    H1544475   7.414   4.489   1.707  0.2427  1.4616 -0.1213
  131MOL    H1644476   7.405   4.677   1.360  0.2081  0.4493 -1.1996
  131MOL    H1744477   7.572   4.682   1.318 -2.3230 -1.9119 -1.0700
  131MOL    H1844478   7.647   4.674   1.556 -0.0855  3.1434  0.7075
  131MOL    C1944479   7.497   4.873   1.398  0.3174  0.4365 -0.2379
  131MOL    C2044480   7.431   4.930   1.529 -0.8146  0.2493  0.1172
  131MOL    C2144481   7.295   4.900   1.562  0.2924 -0.0117  0.5302
  131MOL    C2244482   7.232   4.932   1.687 -0.5702  0.7668  0.0816
  131MOL    C2344483   7.316   4.992   1.784 -0.4254 -0.7932  0.3134
  131MOL    O2444484   7.266   5.026   1.909  0.4517 -1.1741  0.5437
  131MOL    C2544485   7.454   5.011   1.758  0.9281  0.3503 -0.2585
  131MOL    C2644486   7.506   4.992   1.630 -0.0481  0.8349  0.5960
  131MOL    C2744487   7.448   4.942   1.271 -0.2367  0.2106 -0.0650
  131MOL    H2844488   7.601   4.904   1.406  0.5712 -0.4513 -0.0037
  131MOL    H2944489   7.247   4.837   1.489  1.6503  1.0183 -1.3072
  131MOL    H3044490   7.132   4.893   1.702 -0.2944  0.1260  0.2934
  131MOL    H3144491   7.320   5.069   1.974 -0.0624  0.5714 -0.1504
  131MOL    H3244492   7.518   5.047   1.837 -0.8704  1.3292  0.7830
  131MOL    H3344493   7.610   5.016   1.616  0.3072  1.3325  3.8063
  131MOL    H3444494   7.432   5.047   1.294  0.6890  0.2109  0.5935
  131MOL    H3544495   7.361   4.885   1.238 -0.5738  0.6846 -0.0069
  131MOL    C3644496   7.546   4.932   1.158 -0.2816 -0.0803  0.1675
  131MOL    C3744497   7.677   5.013   1.191 -0.5135 -0.0800  0.1302
  131MOL    C3844498   7.805   4.942   1.192  0.4947  0.5809 -0.1127
  131MOL    C3944499   7.920   5.023   1.223  0.0563 -0.8247 -0.3341
  131MOL    C4044500   7.908   5.161   1.255  0.0022  0.0713 -0.0128
  131MOL    O4144501   8.019   5.231   1.284 -0.4786  0.2244 -0.0309
  131MOL    C4244502   7.782   5.224   1.246 -0.3196  0.1993 -0.5206
  131MOL    C4344503   7.672   5.150   1.211  0.5464 -0.1766  0.0654
  131MOL    C4444504   7.489   4.972   1.018  0.1292  0.7167  0.5126
  131MOL    H4544505   7.579   4.829   1.144 -0.6788 -0.1813 -0.0390
  131MOL    H4644506   7.815   4.835   1.178  1.1354  0.7983 -1.4191
  131MOL    H4744507   8.011   4.964   1.229  1.4831  1.3973  0.4434
  131MOL    H4844508   0.053   5.171   1.299  0.1852  1.2405  0.9087
  131MOL    H4944509   7.758   5.327   1.267  1.5191  0.8105 -1.2523
  131MOL    H5044510   7.581   5.208   1.202  0.5630 -0.4385 -2.1256
  131MOL    H5144511   7.441   5.070   1.021 -1.2728  0.2138 -3.3974
  131MOL    H5244512   7.570   4.964   0.945 -0.6949 -0.8806 -0.2453
  131MOL    C5344513   7.378   4.889   0.954 -0.1825  0.1166  0.5015
  131MOL    C5444514   7.342   4.912   0.811 -0.5399 -0.0083 -0.2771
  131MOL    C5544515   7.207   4.941   0.785  0.1571 -0.7643  0.4409
  131MOL    C5644516   7.162   4.926   0.649  0.0811 -0.5843 -0.1203
  131MOL    C5744517   7.252   4.926   0.541 -0.5763 -0.4335  0.0482
  131MOL    O5844518   7.215   4.927   0.412  0.3686 -0.5789  0.1902
  131MOL    C5944519   7.389   4.918   0.572 -0.4955 -0.7508  0.4775
  131MOL    C6044520   7.434   4.907   0.703  0.1016  0.2476 -0.8708
  131MOL    C6144521   7.403   4.741   0.965 -0.8256 -0.6741 -0.6922
  131MOL    H6244522   7.286   4.907   1.009 -0.1542  1.1579  0.2076
  131MOL    H6344523   7.132   4.951   0.862  0.7766 -3.3116  1.4236
  131MOL    H6444524   7.057   4.925   0.623  0.1949 -1.3154 -0.5452
  131MOL    H6544525   7.123   4.914   0.394 -0.5188  0.9035  3.2413
  131MOL    H6644526   7.466   4.900   0.499 -0.5957  0.9350 -0.0667
  131MOL    H6744527   7.541   4.903   0.715  0.3828  1.9911 -2.5530
  131MOL    H6844528   7.412   4.720   1.072  2.7206 -2.4786 -1.2796
  131MOL    H6944529   7.496   4.737   0.908 -0.7818  1.7037 -0.8468
  131MOL    C7044530   7.295   4.642   0.913  0.4050  0.1120 -0.1816
  131MOL    C7144531   7.155   4.645   0.973 -0.1683  0.5058 -0.0250
  131MOL    C7244532   7.050   4.692   0.900  0.0747 -0.5199 -0.1964
  131MOL    C7344533   6.920   4.704   0.958  0.0087 -0.1571  0.7039
  131MOL    C7444534   6.905   4.679   1.097  0.2460  0.6055 -0.0490
  131MOL    O7544535   6.788   4.689   1.164  0.8934  0.0026  0.2528
  131MOL    C7644536   7.012   4.631   1.174  0.6850 -0.0969 -0.1999
  131MOL    C7744537   7.140   4.623   1.112  0.1311 -0.2918 -0.6364
  131MOL    C7844538   7.359   4.501   0.916  0.2849  0.9213 -0.1286
  131MOL    H7944539   7.272   4.671   0.811 -1.9428  0.0330  0.2808
  131MOL    H8044540   7.062   4.706   0.793  1.2563  0.1237  0.0176
  131MOL    H8144541   6.835   4.739   0.901  0.0104  0.1462  0.8902
  131MOL    H8244542   6.780   4.627   1.235 -1.1549  0.0270  0.0767
  131MOL    H8344543   6.998   4.612   1.280  2.7452 -1.4142 -0.1217
  131MOL    H8444544   7.222   4.589   1.173 -0.2030  0.6423  0.3369
  131MOL    H8544545   7.280   4.436   0.877  0.8949 -0.7847  1.4211
  131MOL    H8644546   7.364   4.478   1.022 -0.0577  0.4880 -0.2058
  131MOL    C8744547   7.492   4.469   0.843 -0.6248  0.2874  0.1423
  131MOL    C8844548   7.607   4.468   0.940 -0.1812 -0.2220  0.1284
  131MOL    C8944549   7.693   4.578   0.954  0.0372 -0.8577 -0.3489
  131MOL    C9044550   7.803   4.570   1.052  0.1298 -0.9877 -0.6152
  131MOL    C9144551   7.824   4.451   1.124  0.2099  1.0118 -0.9612
  131MOL    O9244552   7.934   4.431   1.206  0.3626 -0.2795  0.0137
  131MOL    C9344553   7.731   4.349   1.106  0.3942  0.3006  0.2840
  131MOL    C9444554   7.626   4.354   1.012  0.1327 -0.1711 -0.3807
  131MOL    C9544555   7.521   4.536   0.701 -0.7608 -0.3793 -0.6468
  131MOL    H9644556   7.473   4.364   0.819 -0.6882  0.8680 -2.5008
  131MOL    H9744557   7.688   4.662   0.887  1.5933  0.0207  0.6111
  131MOL    H9844558   7.878   4.646   1.067  0.6513 -1.2832 -1.7038
  131MOL    H9944559   7.945   4.344   1.242 -2.7846 -0.1946  1.3494
  131MOL   H10044560   7.739   4.260   1.167  0.5077 -0.4888 -0.8616
  131MOL   H10144561   7.551   4.277   1.000 -0.9782  0.7730  0.2923
  131MOL   H10244562   7.433   4.501   0.646 -0.9608  1.0137 -1.2314
  131MOL   H10344563   7.511   4.644   0.714  2.5497 -0.4060  2.8887
  131MOL   C10444564   7.659   4.507   0.635  0.1487  0.3968 -0.3379
  131MOL   C10544565   7.674   4.607   0.520  0.2062  0.5198 -0.2068
  131MOL   C10644566   7.791   4.683   0.517  0.4766 -0.4351 -0.6924
  131MOL   C10744567   7.808   4.790   0.428  0.3030 -0.3428 -0.2635
  131MOL   C10844568   7.701   4.817   0.338 -0.0652 -0.1432 -0.7480
  131MOL   O10944569   7.706   4.935   0.268 -0.2981  0.1125 -0.0563
  131MOL   C11044570   7.590   4.733   0.335  0.1249  1.8498  0.6429
  131MOL   C11144571   7.576   4.620   0.419 -0.5004  0.3107 -0.2165
  131MOL   C11244572   7.685   4.354   0.611 -0.4385 -0.3996 -0.1264
  131MOL   H11344573   7.730   4.546   0.708  1.1011 -0.0976 -1.0062
  131MOL   H11444574   7.866   4.670   0.593  1.4990 -1.3620 -1.8593
  131MOL   H11544575   7.894   4.855   0.433 -1.4246  2.1076 -1.3615
  131MOL   H11644576   7.624   4.939   0.222 -0.9549  0.0229  1.0873
  131MOL   H11744577   7.507   4.755   0.269 -1.7260 -3.1342  1.0927
  131MOL   H11844578   7.494   4.552   0.409  0.0957 -0.1437 -2.3641
  131MOL   H11944579   7.608   4.302   0.554 -0.7357 -0.8649  0.6888
  131MOL   H12044580   7.684   4.306   0.709  0.1729 -1.3637 -0.5887
  131MOL   C12144581   7.824   4.313   0.551 -0.2585  0.1400  0.4049
  131MOL   C12244582   7.948   4.375   0.612  0.2982 -0.5122 -0.3344
  131MOL   C12344583   7.962   4.413   0.748  0.0361  0.1416  0.1697
  131MOL   C12444584   0.048   4.460   0.804 -0.1812  0.2386 -0.5150
  131MOL   C12544585   0.157   4.483   0.718 -0.9048  0.0281 -0.4224
  131MOL   O12644586   0.275   4.537   0.759  0.2818  0.8734 -0.1385
  131MOL   C12744587   0.154   4.448   0.586  0.2277 -0.4765 -0.4727
  131MOL   C12844588   0.025   4.391   0.534 -0.2284 -0.0221  0.4305
  131MOL   C12944589   7.840   4.166   0.511  0.4664  0.3396  0.2204
  131MOL   H13044590   7.807   4.364   0.456  0.6534 -0.2484  0.0359
  131MOL   H13144591   7.878   4.415   0.817  0.4736 -0.0107  0.7061
  131MOL   H13244592   0.038   4.493   0.906  0.7093  3.0083 -1.2849
  131MOL   H13344593   0.263   4.594   0.833  0.6391  0.6996  0.0589
  131MOL   H13444594   0.244   4.454   0.528  0.1406  2.9587 -0.3864
  131MOL   H13544595   0.018   4.342   0.438  1.2067 -1.4486  1.0176
  131MOL   H13644596   7.899   4.164   0.419  3.9407 -0.3239  2.3355
  131MOL   H13744597   7.755   4.119   0.462 -0.0411 -1.0194  2.3714
  131MOL   C13844598   7.907   4.074   0.618  0.1315  0.3018 -0.2463
  131MOL   C13944599   7.948   3.949   0.553  0.1662 -0.9773  0.6293
  131MOL   C14044600   7.883   3.888   0.441 -0.4873  0.2539 -0.3284
  131MOL   C14144601   7.912   3.755   0.410  0.5034 -0.0819 -0.3852
  131MOL   C14244602   8.000   3.674   0.477  0.1188  0.0435 -0.3593
  131MOL   O14344603   8.024   3.543   0.442  0.0936 -0.4010 -0.3113
  131MOL   C14444604   0.027   3.731   0.584  0.4037 -0.4063 -0.1245
  131MOL   C14544605   0.000   3.864   0.623 -0.0335 -0.5249 -0.0433
  131MOL   C14644606   7.826   4.052   0.755 -0.5542 -0.4628  0.6438
  131MOL   H14744607   7.999   4.127   0.640  0.3433  1.0066 -2.7089
  131MOL   H14844608   7.818   3.946   0.378 -1.1733  2.2664  2.1197
  131MOL   H14944609   7.851   3.711   0.332  0.6100 -0.9946  0.0322
  131MOL   H15044610   0.068   3.508   0.473  1.0836  2.5933  0.6085
  131MOL   H15144611   0.108   3.687   0.640 -0.1670 -0.3010  0.7901
  131MOL   H15244612   0.048   3.903   0.712  0.1284 -0.4881 -0.1454
  131MOL   H15344613   7.826   4.144   0.814  0.3564 -0.7569  1.1135
  131MOL   H15444614   7.891   3.988   0.816  0.5203  0.2338  0.2476
  131MOL   C15544615   7.690   3.975   0.761 -0.0336  0.0144  0.2990
  131MOL   C15644616   7.618   4.008   0.884  0.0567  0.5893 -0.0111
  131MOL   C15744617   7.484   4.031   0.874 -0.2175 -0.0966 -0.1702
  131MOL   C15844618   7.397   4.046   0.988 -0.4138  0.0263 -0.2296
  131MOL   C15944619   7.457   4.029   1.114  0.1597 -0.6978 -0.3078
  131MOL   O16044620   7.397   4.052   1.235 -0.5268  0.2214 -0.0932
  131MOL   C16144621   7.590   4.004   1.123 -0.3842 -0.0496  0.2125
  131MOL   C16244622   7.677   3.993   1.012  0.4149  0.0062 -0.6874
  131MOL   C16344623   7.692   3.818   0.736 -0.6213 -0.0882 -0.4398
  131MOL   H16444624   7.628   4.026   0.688 -0.7577 -3.3151 -1.5406
  131MOL   H16544625   7.440   4.034   0.776  0.4951 -0.6592 -0.5085
  131MOL   H16644626   7.294   4.072   0.969 -0.5789  0.0116  0.6245
  131MOL   H16744627   7.455   4.031   1.307 -2.2067 -1.6013  0.7947
  131MOL   H16844628   7.631   3.994   1.223  0.1879  0.1864  0.0064
  131MOL   H16944629   7.783   3.974   1.026 -0.0848 -0.3731  2.9973
  131MOL   H17044630   7.702   3.764   0.831 -1.3309 -1.8523 -1.3382
  131MOL   H17144631   7.786   3.793   0.687  1.5294 -2.3634  4.4780
  131MOL   C17244632   7.575   3.765   0.659  0.2843  0.1603  0.6998
  131MOL   C17344633   7.540   3.616   0.676 -0.8482 -0.6959  0.6797
  131MOL   C17444634   7.406   3.580   0.716 -0.4424  0.0558 -0.0270
  131MOL   C17544635   7.368   3.449   0.740 -0.0719  0.0344  0.1882
  131MOL   C17644636   7.468   3.347   0.730 -0.2932  0.5025 -0.2867
  131MOL   O17744637   7.444   3.222   0.767 -0.2804  0.2803 -0.0468
  131MOL   C17844638   7.594   3.379   0.682  0.6243 -0.3980  0.1098
  131MOL   C17944639   7.636   3.511   0.662 -0.2398 -0.4979  0.1515
  131MOL   C18044640   7.581   3.800   0.510 -0.6399  0.1878  0.2737
  131MOL   H18144641   7.493   3.821   0.706  0.1252  0.1911  0.3850
  131MOL   H18244642   7.333   3.659   0.727 -1.4113 -0.7124 -0.9108
  131MOL   H18344643   7.266   3.424   0.764 -0.1895 -0.2365 -0.5732
  131MOL   H18444644   7.514   3.167   0.736 -0.4309  0.5036 -0.7923
  131MOL   H18544645   7.671   3.304   0.676 -0.8283 -1.7453 -2.1812
  131MOL   H18644646   7.738   3.529   0.630 -0.3903 -1.2356 -0.7473
  131MOL   H18744647   7.643   3.732   0.452 -1.0014  0.1743 -0.1049
  131MOL   H18844648   7.636   3.894   0.506  0.8750 -0.7363 -1.4458
  131MOL   C18944649   7.444   3.819   0.438  0.0466  0.2237  0.3498
  131MOL   C19044650   7.369   3.933   0.492 -0.3440  0.5614  0.7074
  131MOL   C19144651   7.426   4.063   0.484  0.4885 -0.1928  0.1725
  131MOL   C19244652   7.350   4.173   0.532 -0.2956 -0.0123  0.2733
  131MOL   C19344653   7.225   4.154   0.590  0.2971 -0.6482  0.1278
  131MOL   O19444654   7.153   4.257   0.654 -0.2182 -0.0227  0.4279
  131MOL   C19544655   7.169   4.023   0.596  0.1602  0.0553  0.2118
  131MOL   C19644656   7.238   3.908   0.542  0.4784 -0.4711  0.8594
  131MOL   C19744657   7.462   3.834   0.286 -0.0693 -0.5261 -0.6492
  131MOL   H19844658   7.382   3.731   0.454 -0.8522  0.6480 -0.6824
  131MOL   H19944659   7.525   4.074   0.443 -0.4419  1.7021 -1.6371
  131MOL   H20044660   7.371   4.278   0.517  1.7411 -0.6323 -1.5022
  131MOL   H20144661   7.119   4.232   0.739  1.7212 -0.7612  1.0162
  131MOL   H20244662   7.071   3.999   0.636 -0.8574  2.0546 -0.9750
  131MOL   H20344663   7.187   3.813   0.539  0.0186 -0.2489  1.5018
  131MOL   H20444664   7.541   3.774   0.241  0.8775 -0.7329  1.2509
  131MOL   H20544665   7.495   3.935   0.264  1.8601 -0.9157  0.3737
  131MOL   C20644666   7.327   3.795   0.212  0.0414  0.6937 -0.2280
  131MOL   C20744667   7.253   3.668   0.263  0.0251  0.4805  0.3387
  131MOL   C20844668   7.120   3.676   0.307  0.6870 -0.6610  0.3054
  131MOL   C20944669   7.055   3.561   0.356  0.0756 -0.9745 -0.0332
  131MOL   C21044670   7.129   3.435   0.351  0.3357 -0.3873 -0.1156
  131MOL   O21144671   7.065   3.319   0.372  0.0490  0.1508  0.4378
  131MOL   C21244672   7.266   3.423   0.310  0.9237  0.4908  0.3829
  131MOL   C21344673   7.326   3.542   0.270 -0.3189 -0.3934  0.4303
  131MOL   C21444674   7.348   3.781   0.055  0.1475  0.1790 -1.3396
  131MOL   H21544675   7.261   3.880   0.232  0.8187  1.5468 -1.1908
  131MOL   H21644676   7.073   3.773   0.313 -0.6841 -1.3296  0.4940
  131MOL   H21744677   6.954   3.567   0.394 -0.8889 -0.4073 -2.5739
  131MOL   H21844678   6.990   3.329   0.429  0.4968 -0.8176  1.2100
  131MOL   H21944679   7.318   3.331   0.287  1.4562  1.0548 -0.7197
  131MOL   H22044680   7.429   3.541   0.238  0.3509  1.5452  2.3961
  131MOL   H22144681   7.401   3.693   0.017  0.4942 -0.6141  0.8697
  131MOL   H22244682   7.419   3.862   0.040  0.6672  0.0871  0.4755
  131MOL   C22344683   7.231   3.806   7.995 -0.0516  0.5064  0.2407
  131MOL   C22444684   7.117   3.699   8.001 -0.8559 -0.0430 -0.1517
  131MOL   C22544685   7.140   3.560   7.990 -0.8254 -0.8179 -0.5281
  131MOL   C22644686   7.041   3.467   8.032  0.1739  0.0829  0.4263
  131MOL   C22744687   6.912   3.507   0.036 -0.4588  0.1381  0.0769
  131MOL   O22844688   6.817   3.421   0.068 -0.2531 -0.0498  0.6526
  131MOL   C22944689   6.881   3.643   0.036 -0.5933  0.5619 -0.0301
  131MOL   C23044690   6.981   3.742   0.002  0.8118 -0.5452  0.1506
  131MOL   C23144691   7.292   3.808   7.854  0.7173  0.2094 -0.4008
  131MOL   H23244692   7.192   3.906   8.015 -0.7123  0.5238 -1.1025
  131MOL   H23344693   7.237   3.520   7.964  0.0310 -0.7791  2.3854
  131MOL   H23444694   7.070   3.363   8.037  1.6014  0.3995 -0.8035
  131MOL   H23544695   6.823   3.329   0.048 -1.2452 -0.1105  0.6238
  131MOL   H23644696   6.784   3.682   0.063 -0.1054  3.0353 -1.6792
  131MOL   H23744697   6.959   3.848   0.002  0.1677 -0.6762  0.0615
  131MOL   H23844698   7.373   3.877   7.832  0.3428  0.2331 -1.7311
  131MOL   H23944699   7.340   3.710   7.850  2.1170  0.8878 -0.5568
  131MOL   C24044700   7.191   3.841   7.732 -0.2376 -0.1769  0.1494
  131MOL   C24144701   7.133   3.981   7.729  0.3028  0.2681 -0.7108
  131MOL   C24244702   6.994   4.003   7.741 -0.1970  0.4499  0.2078
  131MOL   C24344703   6.939   4.134   7.744 -0.0760 -0.1765 -0.8383
  131MOL   C24444704   7.024   4.243   7.725  0.0487  0.5468 -0.0500
  131MOL   O24544705   6.971   4.368   7.724  0.6457  0.0155  0.1077
  131MOL   C24644706   7.166   4.226   7.718  0.1537 -0.2877 -0.6302
  131MOL   C24744707   7.217   4.100   7.714  0.1023  0.0435  0.4631
  131MOL   C24844708   7.250   3.819   7.591 -1.0429  0.4498 -0.0452
  131MOL   H24944709   7.101   3.779   7.738 -1.4124  1.4504 -0.0542
  131MOL   H25044710   6.926   3.920   7.754  0.9447 -0.3365  1.3268
  131MOL   H25144711   6.835   4.155   7.763  0.8575  2.7681  1.5655
  131MOL   H25244712   7.037   4.430   7.698 -0.8078  1.7393  0.4119
  131MOL   H25344713   7.228   4.315   7.714 -1.5977  0.9182 -1.6330
  131MOL   H25444714   7.324   4.089   7.718 -0.0497 -1.2834  1.3958
  131MOL   H25544715   7.164   3.823   7.524 -1.1471 -0.4048  0.0384
  131MOL   H25644716   7.319   3.897   7.558  3.0221 -2.3543  1.4477
  131MOL   C25744717   7.318   3.680   7.564 -0.4053 -0.2916 -0.9218
  131MOL   C25844718   7.281   3.616   7.431  0.8876  0.1337 -0.7796
  131MOL   C25944719   7.290   3.694   7.310  0.5650 -0.1988  0.1406
  131MOL   C26044720   7.254   3.637   7.184 -0.2769 -0.3191  1.3475
  131MOL   C26144721   7.211   3.507   7.179 -0.3924  0.5732  0.2073
  131MOL   O26244722   7.186   3.446   7.066 -0.1636  0.3152  0.0855
  131MOL   C26344723   7.209   3.430   7.300  0.4085  0.8567  0.2473
  131MOL   C26444724   7.238   3.482   7.418 -0.0098  0.2344  0.2125
  131MOL   C26544725   7.472   3.686   7.582  0.4069  0.0654  0.4301
  131MOL   H26644726   7.276   3.621   7.646  0.2582 -0.3688 -0.6414
  131MOL   H26744727   7.319   3.798   7.310 -0.1327 -0.0001 -0.6596
  131MOL   H26844728   7.270   3.683   7.088  0.7559 -2.2854  0.5496
  131MOL   H26944729   7.154   3.501   6.997  1.1451 -0.6709 -1.3342
  131MOL   H27044730   7.182   3.325   7.289 -2.1316  1.6024 -1.3068
  131MOL   H27144731   7.236   3.414   7.503  0.3232  0.0387  0.0674
  131MOL   H27244732   7.501   3.745   7.670  2.0920 -1.0033  0.6208
  131MOL   H27344733   7.509   3.749   7.501 -1.3961  2.0389  1.0949
  131MOL   C27444734   7.554   3.552   7.585  0.4211  0.0249  0.7069
  131MOL   C27544735   7.510   3.469   7.707 -0.2957 -0.2414 -0.0626
  131MOL   C27644736   7.542   3.510   7.840  0.8722 -0.9236  0.3356
  131MOL   C27744737   7.518   3.422   7.949 -0.6100 -0.8505 -0.1146
  131MOL   C27844738   7.450   3.307   7.942  0.8999  0.5789 -1.0462
  131MOL   O27944739   7.433   3.223   0.013 -0.6615  0.2223  0.3904
  131MOL   C28044740   7.407   3.268   7.811 -0.0342 -0.0373 -0.1664
  131MOL   C28144741   7.431   3.348   7.697 -0.3300  0.2055  0.0800
  131MOL   C28244742   7.706   3.548   7.543  0.1549 -0.0657  0.6239
  131MOL   H28344743   7.508   3.496   7.504 -0.1616  2.0571 -0.4011
  131MOL   H28444744   7.599   3.602   7.843 -1.8089  0.8813 -1.9643
  131MOL   H28544745   7.563   3.458   0.003  0.4382 -0.1939 -0.8744
  131MOL   H28644746   7.401   3.137   8.026  3.7464 -1.0645 -1.2806
  131MOL   H28744747   7.328   3.194   7.801  0.7121 -1.0779  1.3171
  131MOL   H28844748   7.382   3.314   7.607 -2.1339  0.1094  1.0905
  131MOL   H28944749   7.753   3.470   7.603  2.3268  1.5715  1.0995
  131MOL   H29044750   7.720   3.497   7.448  0.5837 -0.8632  1.1087
  131MOL   C29144751   7.783   3.684   7.564 -0.4325 -0.1296  0.1037
  131MOL   C29244752   7.774   3.784   7.450 -0.0560 -0.1712  0.0324
  131MOL   C29344753   7.731   3.915   7.476 -0.6033  0.5224 -0.7689
  131MOL   C29444754   7.737   4.012   7.373 -0.2410 -0.4558 -0.6566
  131MOL   C29544755   7.786   3.980   7.241  0.1701  0.7865  0.5414
  131MOL   O29644756   7.800   4.073   7.144 -0.5008 -0.1384  1.0194
  131MOL   C29744757   7.823   3.845   7.224  0.5332  0.1082 -0.7006
  131MOL   C29844758   7.822   3.745   7.327 -0.4967  0.0008  0.2114
  131MOL   C29944759   7.933   3.667   7.608 -0.2223  0.6367 -0.3909
  131MOL   H30044760   7.733   3.736   7.645 -0.9966  0.2722 -0.4934
  131MOL   H30144761   7.704   3.932   7.579 -0.4491 -2.3825 -0.2101
  131MOL   H30244762   7.715   4.116   7.391  3.1818  0.1522  0.5096
  131MOL   H30344763   7.767   4.158   7.168 -0.3044  0.2178  0.0225
  131MOL   H30444764   7.872   3.814   7.133  0.6052  0.9246 -0.9521
  131MOL   H30544765   7.869   3.648   7.315 -2.6182 -1.1347  0.8301
  131MOL   H30644766   7.988   3.756   7.577  0.4284 -0.4045 -2.2708
  131MOL   H30744767   7.981   3.592   7.546 -1.4850 -1.1834  0.7551
  131MOL   C30844768   7.964   3.629   7.759  0.5088  0.7623  0.3349
  131MOL   C30944769   7.895   3.720   7.853  0.3365  0.2584  0.1191
  131MOL   C31044770   7.915   3.857   7.834 -0.7405 -0.5942  0.3587
  131MOL   C31144771   7.879   3.942   7.943  0.5782 -0.2477  0.5102
  131MOL   C31244772   7.809   3.897   0.019 -0.0288 -0.4614  1.2329
  131MOL   O31344773   7.785   3.980   0.120 -0.5845  0.2134  0.2358
  131MOL   C31444774   7.775   3.760   0.030 -0.5830 -0.5616 -0.1181
  131MOL   C31544775   7.822   3.672   7.966  0.3318  0.6073 -0.9158
  131MOL   C31644776   0.080   3.609   7.785 -0.3473 -0.1769 -0.0584
  131MOL   H31744777   7.913   3.534   7.776  2.5816 -0.3465  0.6257
  131MOL   H31844778   7.984   3.890   7.757 -0.9432 -0.5340  0.2013
  131MOL   H31944779   7.911   4.044   7.931 -0.6866 -0.0600 -1.4786
  131MOL   H32044780   7.819   4.068   0.119 -0.8010  0.2993  0.2808
  131MOL   H32144781   7.728   3.725   0.121  1.2068 -0.7288  0.7570
  131MOL   H32244782   7.806   3.565   7.975  0.4206  0.7118  0.6053
  131MOL   H32344783   0.131   3.701   7.753 -1.4774  0.0920 -1.0998
  131MOL   H32444784   0.126   3.537   7.717  0.3077 -0.1140  0.3111
  131MOL   C32544785   0.126   3.598   7.934 -0.1123  0.2546  1.1512
  131MOL   C32644786   0.157   3.738   7.994 -0.5331 -0.1877  0.1979
  131MOL   C32744787   0.248   3.824   7.935  0.4984  0.3130  0.2884
  131MOL   C32844788   0.287   3.942   8.000 -0.0653  0.7712  0.9182
  131MOL   C32944789   0.225   3.979   0.081  0.1754  0.0451 -0.0652
  131MOL   O33044790   0.250   4.101   0.136 -0.4158  0.3397 -0.1004
  131MOL   C33144791   0.131   3.895   0.143 -0.2769  0.5011  0.3693
  131MOL   C33244792   0.102   3.773   0.082 -0.4731  0.3974 -0.1032
  131MOL   C33344793   0.238   3.507   7.954  0.2868  0.1719 -0.0209
  131MOL   H33444794   0.044   3.562   7.997 -0.3297 -2.6152 -0.6557
  131MOL   H33544795   0.297   3.794   7.844 -0.4192 -1.7813  0.4630
  131MOL   H33644796   0.364   4.005   7.960 -0.4170 -0.5797 -2.0083
  131MOL   H33744797   0.216   4.124   0.221  0.6678 -1.7200  0.9273
  131MOL   H33844798   0.088   3.909   0.242  0.7521 -0.3644  0.9476
  131MOL   H33944799   0.027   3.714   0.132  0.5246 -2.9008 -2.3344
  131MOL   H34044800   0.264   3.502   0.022 -0.9103 -1.6685  0.2154
  131MOL   H34144801   0.322   3.551   7.900 -1.4502  3.8437  0.0986
  131MOL   H34244802   0.221   3.411   7.905  3.7225 -0.1691 -0.6755
  132MOL     C144803   1.941   2.361   6.302  0.1569  0.1898 -0.0830
  132MOL     C244804   2.078   2.310   6.285  0.2911 -0.1440  0.4876
  132MOL     C344805   2.154   2.355   6.170 -0.4925 -0.2233 -0.6088
  132MOL     C444806   2.289   2.309   6.166 -0.4108 -0.0955  0.4533
  132MOL     C544807   2.344   2.216   6.258  0.1454  0.4432  0.4043
  132MOL     O644808   2.468   2.168   6.238  0.4810  0.0220 -0.6890
  132MOL     C744809   2.267   2.175   6.363  0.5110 -0.0933 -0.4124
  132MOL     C844810   2.135   2.226   6.378  0.1024  0.0013 -0.6129
  132MOL     C944811   1.845   2.238   6.317 -1.0085 -0.0015  0.9278
  132MOL    H1044812   1.938   2.429   6.387 -0.5896 -1.0772  0.9187
  132MOL    H1144813   2.116   2.426   6.097  0.4493  1.2868  0.3576
  132MOL    H1244814   2.346   2.357   6.088  0.4299  0.8793  1.6399
  132MOL    H1344815   2.500   2.191   6.152  2.1243  0.9818  0.1557
  132MOL    H1444816   2.310   2.107   6.436  2.0187  0.7436 -0.5169
  132MOL    H1544817   2.085   2.190   6.466 -1.7301  1.9071 -0.8168
  132MOL    H1644818   1.861   2.212   6.422  0.0592 -0.0980  0.7452
  132MOL    H1744819   1.867   2.151   6.255 -0.6099  1.1225 -0.5356
  132MOL    H1844820   1.919   2.434   6.225 -0.9133 -2.2301 -2.1286
  132MOL    C1944821   1.696   2.287   6.304  0.8030 -0.3551 -0.5484
  132MOL    C2044822   1.598   2.187   6.361 -0.0490  0.7388  0.2522
  132MOL    C2144823   1.640   2.049   6.380  0.2838 -0.3426 -0.2626
  132MOL    C2244824   1.553   1.953   6.434 -0.0696 -0.1684  0.9437
  132MOL    C2344825   1.419   1.992   6.461 -0.0690 -0.2910 -0.4988
  132MOL    O2444826   1.329   1.892   6.506 -0.1843 -0.0298  0.3438
  132MOL    C2544827   1.377   2.125   6.440  0.2310 -0.8505  0.0157
  132MOL    C2644828   1.470   2.222   6.399 -0.3923 -0.4051 -0.1747
  132MOL    C2744829   1.658   2.334   6.163  0.5777  0.5755 -0.1781
  132MOL    H2844830   1.687   2.367   6.377 -1.4487 -1.9077  0.9499
  132MOL    H2944831   1.735   2.003   6.356  0.2301 -1.8380  2.2195
  132MOL    H3044832   1.586   1.850   6.434  0.7501  0.0600 -0.8628
  132MOL    H3144833   1.373   1.811   6.527  1.9055  1.0373  0.2775
  132MOL    H3244834   1.271   2.141   6.449  0.0719 -1.3039 -0.9763
  132MOL    H3344835   1.441   2.326   6.391  1.3513  0.1233  0.1846
  132MOL    H3444836   1.727   2.409   6.123  0.9476 -0.9693 -2.5326
  132MOL    H3544837   1.561   2.381   6.181  0.5664 -0.5401  2.8774
  132MOL    C3644838   1.641   2.214   6.065 -0.2615  0.1108 -0.3843
  132MOL    C3744839   1.777   2.173   6.002 -0.5683 -0.0797  0.0671
  132MOL    C3844840   1.864   2.266   5.939  0.6735  0.5665 -0.5622
  132MOL    C3944841   1.992   2.222   5.903 -0.2294  0.8200  0.3314
  132MOL    C4044842   2.034   2.083   5.918 -0.1358 -0.1026  0.2768
  132MOL    O4144843   2.167   2.049   5.887  0.4530  0.0023 -0.2376
  132MOL    C4244844   1.946   1.997   5.971  0.2238  0.2471  0.6239
  132MOL    C4344845   1.820   2.039   6.018  0.2152 -0.5352 -0.1095
  132MOL    C4444846   1.535   2.238   5.953  0.4201  0.8420  0.2612
  132MOL    H4544847   1.608   2.128   6.122 -0.9732  0.6919  0.0989
  132MOL    H4644848   1.826   2.365   5.921  0.0636  0.3814 -0.2998
  132MOL    H4744849   2.051   2.304   5.865 -1.2904  1.2472 -0.4008
  132MOL    H4844850   2.214   2.130   5.876  0.0064  0.3162  0.1258
  132MOL    H4944851   1.976   1.895   5.987 -1.4688 -0.2617  0.5955
  132MOL    H5044852   1.758   1.972   6.075  1.0756 -2.2092 -1.1133
  132MOL    H5144853   1.439   2.251   6.004  0.0365  0.7949 -0.4456
  132MOL    H5244854   1.562   2.333   5.908  1.5867 -0.0761 -0.9871
  132MOL    C5344855   1.530   2.125   5.849  0.0189  0.1190  0.0079
  132MOL    C5444856   1.514   1.983   5.896  0.4231 -0.2747  0.2496
  132MOL    C5544857   1.437   1.963   6.013 -0.4319  0.0393  0.3268
  132MOL    C5644858   1.407   1.827   6.048 -0.1492 -0.0514  0.1295
  132MOL    C5744859   1.457   1.715   5.979 -0.0623 -0.2653  0.3431
  132MOL    O5844860   1.417   1.590   6.016  0.3132  0.8792 -0.0040
  132MOL    C5944861   1.542   1.735   5.870 -0.1046 -1.1513  0.0372
  132MOL    C6044862   1.574   1.868   5.832 -0.2494 -0.5993  0.0369
  132MOL    C6144863   1.424   2.154   5.735 -0.0258 -0.0234 -0.6073
  132MOL    H6244864   1.620   2.123   5.787  0.7529 -0.1828  1.0821
  132MOL    H6344865   1.397   2.037   6.080  1.4164  1.4619 -0.1202
  132MOL    H6444866   1.346   1.805   6.135  0.2236 -1.4841  0.0503
  132MOL    H6544867   1.467   1.518   5.980 -0.9336 -0.0646  0.1298
  132MOL    H6644868   1.582   1.651   5.815  1.2848 -2.8288  3.4111
  132MOL    H6744869   1.644   1.883   5.750  0.2204 -0.1724  0.5101
  132MOL    H6844870   1.351   2.223   5.778  0.7709  0.4539 -0.0185
  132MOL    H6944871   1.368   2.062   5.719 -2.7769  1.1205  1.9787
  132MOL    C7044872   1.475   2.202   5.592  0.4743  1.1700 -0.2201
  132MOL    C7144873   1.565   2.326   5.607 -0.0774 -0.2479 -0.3858
  132MOL    C7244874   1.512   2.444   5.653  0.3185  0.3379 -0.1743
  132MOL    C7344875   1.597   2.551   5.691 -0.3853 -0.1078 -1.3888
  132MOL    C7444876   1.734   2.544   5.671 -0.0348  0.3622  0.7961
  132MOL    O7544877   1.821   2.645   5.696  0.4097  0.3887 -0.4864
  132MOL    C7644878   1.784   2.427   5.616 -0.3893 -0.4045  0.3755
  132MOL    C7744879   1.702   2.318   5.577  0.3608  0.2591  0.3794
  132MOL    C7844880   1.360   2.225   5.496  0.1898  0.1414 -0.9177
  132MOL    H7944881   1.541   2.126   5.551 -0.4290  1.5095 -2.4049
  132MOL    H8044882   1.407   2.449   5.679  0.0872  1.2663 -1.2433
  132MOL    H8144883   1.554   2.646   5.722  0.0777 -0.7206  1.3045
  132MOL    H8244884   1.768   2.719   5.724 -0.0622 -0.5479  1.1949
  132MOL    H8344885   1.892   2.417   5.611 -0.3921 -1.3602  2.1180
  132MOL    H8444886   1.746   2.229   5.535 -0.1110  0.4628 -0.5576
  132MOL    H8544887   1.391   2.290   5.414  1.0063 -0.4307 -1.0753
  132MOL    H8644888   1.297   2.298   5.547  0.2803 -0.0660 -0.5050
  132MOL    C8744889   1.283   2.095   5.456 -0.0225  0.4606  0.2489
  132MOL    C8844890   1.336   2.042   5.327  0.3111  0.2480  0.0285
  132MOL    C8944891   1.339   2.126   5.211  0.2037  0.6455 -0.2141
  132MOL    C9044892   1.407   2.077   5.098 -0.5675 -0.1194 -0.8001
  132MOL    C9144893   1.447   1.940   5.088 -0.1049  0.4867  0.2165
  132MOL    O9244894   1.521   1.894   4.988 -1.1122  0.0512  0.3814
  132MOL    C9344895   1.426   1.848   5.197  0.2471  0.2220  0.0149
  132MOL    C9444896   1.379   1.903   5.319 -0.5965  0.0471  0.3641
  132MOL    C9544897   1.130   2.108   5.446  0.2267 -0.0058 -0.1891
  132MOL    H9644898   1.305   2.015   5.527 -1.3336 -0.4076 -0.3140
  132MOL    H9744899   1.293   2.223   5.220  0.4793  0.6667  1.0305
  132MOL    H9844900   1.420   2.144   5.015 -0.6693  1.1725  0.2121
  132MOL    H9944901   1.542   1.965   4.930  0.4184 -0.4729  0.2566
  132MOL   H10044902   1.441   1.741   5.186 -0.3879 -0.0458  1.5234
  132MOL   H10144903   1.359   1.835   5.400 -0.2906 -0.2441  0.1956
  132MOL   H10244904   1.100   2.196   5.390 -1.1861 -0.6088 -0.3905
  132MOL   H10344905   1.094   2.025   5.385  3.4757 -1.2117 -0.6163
  132MOL   C10444906   1.062   2.116   5.581 -0.0896 -0.8564  0.7085
  132MOL   C10544907   1.084   1.995   5.675 -0.1309 -0.1246  0.3670
  132MOL   C10644908   1.093   1.867   5.617  0.6722  0.0488  0.2632
  132MOL   C10744909   1.112   1.755   5.704  0.2604  0.1607 -0.3228
  132MOL   C10844910   1.130   1.779   5.842  0.1582 -0.1262 -0.3955
  132MOL   O10944911   1.150   1.666   5.922 -0.2957  0.2149 -0.4625
  132MOL   C11044912   1.125   1.905   5.901 -0.2080 -0.2597  1.1043
  132MOL   C11144913   1.107   2.014   5.816 -0.3729  0.4549 -0.4720
  132MOL   C11244914   0.909   2.124   5.565 -1.0326  0.6503 -0.2411
  132MOL   H11344915   1.099   2.201   5.638  0.5646 -0.7272  0.1007
  132MOL   H11444916   1.087   1.846   5.511  0.4762 -0.4232  0.3683
  132MOL   H11544917   1.123   1.659   5.656 -0.3338  0.2692 -0.6828
  132MOL   H11644918   1.242   1.655   5.938 -0.4930  0.6909  1.1401
  132MOL   H11744919   1.131   1.914   6.008  1.0979 -2.1060  1.2137
  132MOL   H11844920   1.107   2.114   5.857  0.7108  0.9801 -1.7030
  132MOL   H11944921   0.867   2.078   5.654  2.1086 -3.9035 -0.9210
  132MOL   H12044922   0.875   2.057   5.486 -3.2682  1.2749  0.1542
  132MOL   C12144923   0.851   2.263   5.551  0.6571  0.1255  0.6185
  132MOL   C12244924   0.944   2.373   5.486  0.3662  0.0330  0.2737
  132MOL   C12344925   1.036   2.440   5.571  1.0189 -0.4485  0.8801
  132MOL   C12444926   1.118   2.541   5.521  0.4780  0.9152  0.5550
  132MOL   C12544927   1.104   2.593   5.389  0.1279  0.7905  0.0112
  132MOL   O12644928   1.181   2.696   5.347  0.7716 -0.3976  0.0195
  132MOL   C12744929   1.005   2.526   5.307  0.0746  0.2467  0.0297
  132MOL   C12844930   0.934   2.413   5.349  0.1597 -0.0746  0.0724
  132MOL   C12944931   0.718   2.243   5.484  0.0876 -0.4882  0.6245
  132MOL   H13044932   0.841   2.299   5.654  0.2397  2.3385 -0.1716
  132MOL   H13144933   1.048   2.411   5.675 -1.7952  2.5108  2.1140
  132MOL   H13244934   1.193   2.589   5.582 -0.3584  1.0788  1.4488
  132MOL   H13344935   1.176   2.723   5.256  2.4802  0.8881  0.2849
  132MOL   H13444936   0.980   2.559   5.207 -1.8998  0.5617  0.5973
  132MOL   H13544937   0.861   2.366   5.285  0.9767  1.1685 -1.8140
  132MOL   H13644938   0.662   2.159   5.525  0.1102  0.2702  2.2572
  132MOL   H13744939   0.729   2.211   5.380  0.4490 -0.4229  0.6427
  132MOL   C13844940   0.622   2.363   5.479 -0.2918  0.3562  0.0653
  132MOL   C13944941   0.603   2.426   5.619  0.2726  0.5365 -0.0859
  132MOL   C14044942   0.516   2.360   5.709 -0.4953 -0.3492  0.6852
  132MOL   C14144943   0.504   2.402   5.843  0.4327 -0.0992 -0.8277
  132MOL   C14244944   0.581   2.517   5.880 -0.0252 -0.5689  0.5022
  132MOL   O14344945   0.565   2.566   6.005 -0.7480 -0.2759  0.5857
  132MOL   C14444946   0.659   2.590   5.789 -0.4314  0.0217 -0.6519
  132MOL   C14544947   0.673   2.542   5.657 -0.0784  0.3088 -0.2088
  132MOL   C14644948   0.483   2.326   5.408 -0.1293  0.4047 -0.1745
  132MOL   H14744949   0.657   2.453   5.429 -1.4537  0.9938  0.3872
  132MOL   H14844950   0.465   2.273   5.670 -1.3335  0.7134 -0.6369
  132MOL   H14944951   0.446   2.345   5.913  2.0335 -1.8651 -0.8714
  132MOL   H15044952   0.634   2.631   6.012 -1.7817  1.5066 -3.9862
  132MOL   H15144953   0.709   2.682   5.814  0.6287 -0.6079 -0.4096
  132MOL   H15244954   0.738   2.589   5.585  0.8863 -1.6463 -0.6539
  132MOL   H15344955   0.405   2.399   5.430  0.4133  1.1750 -0.7673
  132MOL   H15444956   0.448   2.233   5.453  0.2930  0.5050  0.3761
  132MOL   C15544957   0.491   2.311   5.249  0.5100  0.6504 -0.0346
  132MOL   C15644958   0.387   2.409   5.189 -0.5559  0.6222  0.4803
  132MOL   C15744959   0.425   2.515   5.108 -0.3369 -0.6229 -0.9718
  132MOL   C15844960   0.327   2.599   5.046  0.0827  0.3725  0.8220
  132MOL   C15944961   0.187   2.567   5.056  0.9246 -0.5462 -0.4499
  132MOL   O16044962   0.093   2.638   4.989  0.4782  0.2686  0.1489
  132MOL   C16144963   0.155   2.460   5.140  0.3065 -0.0071 -0.1982
  132MOL   C16244964   0.252   2.391   5.217 -0.3790  0.2780 -0.0839
  132MOL   C16344965   0.498   2.171   5.190 -0.1422  0.4109 -0.0785
  132MOL   H16444966   0.586   2.359   5.226  0.1032  0.9250 -1.2295
  132MOL   H16544967   0.529   2.536   5.090 -0.3300 -0.3855 -0.6479
  132MOL   H16644968   0.352   2.683   4.983  2.7489 -0.7112  0.4026
  132MOL   H16744969   0.133   2.710   4.943  2.2258  0.0976  1.3605
  132MOL   H16844970   0.050   2.441   5.155  0.0109  1.1152 -0.7805
  132MOL   H16944971   0.226   2.309   5.282 -0.5934 -0.3225 -0.9219
  132MOL   H17044972   0.427   2.164   5.108 -0.6604 -3.2942  0.6039
  132MOL   H17144973   0.437   2.108   5.255  0.2019 -0.6850 -0.8078
  132MOL   C17244974   0.641   2.111   5.142  0.8076 -0.2596 -0.3846
  132MOL   C17344975   0.714   2.207   5.052 -0.5212  0.2035 -0.3179
  132MOL   C17444976   0.660   2.294   4.961  0.5813  0.0040 -0.0828
  132MOL   C17544977   0.732   2.387   4.889 -0.2480 -0.1135  0.3966
  132MOL   C17644978   0.869   2.389   4.894 -1.0281 -0.0733 -0.8392
  132MOL   O17744979   0.936   2.475   4.812 -0.0113  0.1223  0.1407
  132MOL   C17844980   0.935   2.295   4.984 -0.2065 -0.1251 -0.0710
  132MOL   C17944981   0.851   2.215   5.077 -0.3788 -0.4944 -0.1112
  132MOL   C18044982   0.619   1.970   5.081  0.2536 -0.0414  0.7140
  132MOL   H18144983   0.705   2.092   5.229 -0.8095  1.7057  1.3046
  132MOL   H18244984   0.552   2.303   4.955  0.5588  2.8696  3.2302
  132MOL   H18344985   0.679   2.458   4.827  1.9182  0.6224 -0.6655
  132MOL   H18444986   1.021   2.434   4.804  0.2234  0.5027  0.7198
  132MOL   H18544987   1.043   2.293   4.987  0.0036  0.7597 -4.2527
  132MOL   H18644988   0.903   2.146   5.141  0.1846  0.9725  1.0629
  132MOL   H18744989   0.558   1.982   4.992  1.0114 -0.3689  0.1417
  132MOL   H18844990   0.553   1.907   5.140 -0.8412  0.5829  0.1531
  132MOL   C18944991   0.748   1.890   5.039 -0.0090 -0.6853  0.3250
  132MOL   C19044992   0.812   1.797   5.147  0.5329 -0.7046 -0.4927
  132MOL   C19144993   0.740   1.683   5.193 -0.9619  0.1288 -0.6116
  132MOL   C19244994   0.793   1.589   5.289 -0.2542 -0.4386  0.3852
  132MOL   C19344995   0.923   1.618   5.336  0.0826 -0.1718 -0.7675
  132MOL   O19444996   0.975   1.535   5.431  0.4140 -0.5897  0.5757
  132MOL   C19544997   0.998   1.725   5.286  0.0917  0.8064  0.3387
  132MOL   C19644998   0.944   1.809   5.195  0.6091 -0.4773  0.3514
  132MOL   C19744999   0.736   1.817   4.896 -0.4463  0.7306  0.3389
  132MOL   H19845000   0.828   1.963   5.027 -1.3785  0.7754  0.0038
  132MOL   H19945001   0.634   1.681   5.171 -1.1408  1.6736  0.0908
  132MOL   H20045002   0.735   1.509   5.332 -0.9633  0.1121  0.4598
  132MOL   H20145003   0.906   1.506   5.489  0.3323 -0.9394  0.3021
  132MOL   H20245004   1.101   1.734   5.315 -0.2676  1.8168  1.3718
  132MOL   H20345005   1.004   1.885   5.148 -0.7710  0.4218  0.0069
  132MOL   H20445006   0.648   1.752   4.895  0.2817 -0.2945 -1.9348
  132MOL   H20545007   0.823   1.751   4.895 -2.0078 -1.4009 -1.5181
  132MOL   C20645008   0.754   1.902   4.768 -0.4463 -0.5968 -0.2828
  132MOL   C20745009   0.617   1.971   4.723 -0.0640 -0.5937 -0.1123
  132MOL   C20845010   0.492   1.904   4.705 -0.1053  0.3144  0.8451
  132MOL   C20945011   0.376   1.977   4.655 -0.4755  0.4320 -0.5421
  132MOL   C21045012   0.385   2.115   4.632 -0.1134 -0.5570  0.6953
  132MOL   O21145013   0.279   2.189   4.598 -0.5725 -0.2184  0.4686
  132MOL   C21245014   0.508   2.181   4.653 -0.1757 -0.1777  0.5910
  132MOL   C21345015   0.624   2.112   4.690 -0.1179  0.3612  0.1684
  132MOL   C21445016   0.823   1.828   4.650  0.6777  0.1502  0.5845
  132MOL   H21545017   0.816   1.985   4.801  1.4968 -1.9514 -0.4725
  132MOL   H21645018   0.473   1.799   4.723  0.9842  0.3123  2.0764
  132MOL   H21745019   0.282   1.925   4.644 -0.0811 -0.4849  0.3278
  132MOL   H21845020   0.290   2.283   4.597 -0.7644 -0.2039 -2.5186
  132MOL   H21945021   0.509   2.289   4.648 -3.2115 -0.1542 -1.1322
  132MOL   H22045022   0.714   2.169   4.705 -0.2749  0.3624  1.1152
  132MOL   H22145023   0.807   1.891   4.562 -1.1521 -0.6255  0.3125
  132MOL   H22245024   0.769   1.736   4.627 -2.0685  0.7742  4.1562
  132MOL   C22345025   0.977   1.811   4.658  0.1510  0.2105 -0.0257
  132MOL   C22445026   1.054   1.944   4.686  0.2936  0.0131 -0.0068
  132MOL   C22545027   1.095   2.028   4.583 -0.3386  0.6615 -0.3916
  132MOL   C22645028   1.158   2.154   4.610  0.1551  0.1360  0.2554
  132MOL   C22745029   1.180   2.191   4.743  0.2641  0.3256 -0.0326
  132MOL   O22845030   1.231   2.311   4.779  0.6663  0.1667 -0.0972
  132MOL   C22945031   1.148   2.101   4.845  0.3538  0.3314 -0.2504
  132MOL   C23045032   1.090   1.973   4.819 -0.3631  0.5020  0.1752
  132MOL   C23145033   1.027   1.721   4.543 -0.2299  0.2170  0.6696
  132MOL   H23245034   0.987   1.749   4.747 -1.6789  2.7743  2.0440
  132MOL   H23345035   1.079   2.000   4.480 -0.1372 -2.5210  0.3983
  132MOL   H23445036   1.205   2.203   4.526 -0.7636 -0.0300 -0.3599
  132MOL   H23545037   1.270   2.352   4.704 -3.1769  0.3036 -2.1306
  132MOL   H23645038   1.178   2.120   4.947  1.0853  1.9272 -0.7517
  132MOL   H23745039   1.060   1.910   4.901 -2.4136  0.4557 -0.5829
  132MOL   H23845040   0.970   1.629   4.526  1.4319 -0.5758 -0.8480
  132MOL   H23945041   1.011   1.782   4.454 -1.7620  1.3306  1.6765
  132MOL   C24045042   1.174   1.680   4.566  0.2772 -0.3750  0.2113
  132MOL   C24145043   1.195   1.594   4.692  0.0629 -0.5804  0.1125
  132MOL   C24245044   1.258   1.652   4.806  0.0901 -0.1011  0.5111
  132MOL   C24345045   1.280   1.570   4.919 -0.0118  0.1125 -0.2068
  132MOL   C24445046   1.226   1.444   4.921 -0.2125 -0.5397  0.6034
  132MOL   O24545047   1.216   1.386   5.042 -0.3709 -0.2885 -0.0713
  132MOL   C24645048   1.175   1.382   4.812  0.2750  0.1568  0.6082
  132MOL   C24745049   1.155   1.460   4.697  0.2045  0.0882 -0.6030
  132MOL   C24845050   1.240   1.613   4.442  0.3943  0.0334  0.3413
  132MOL   H24945051   1.219   1.776   4.591 -0.5580  0.2654 -0.7268
  132MOL   H25045052   1.300   1.750   4.790  3.9056 -1.6171  0.7951
  132MOL   H25145053   1.326   1.622   5.002  0.7984 -0.3639 -0.3551
  132MOL   H25245054   1.268   1.417   5.115  2.0764  0.2479 -1.9453
  132MOL   H25345055   1.150   1.278   4.810  2.1335 -0.3040 -0.1050
  132MOL   H25445056   1.101   1.428   4.609 -0.4296 -1.1866  0.2256
  132MOL   H25545057   1.219   1.507   4.425  0.1928  0.1503 -0.1309
  132MOL   H25645058   1.203   1.660   4.350 -1.7365 -1.6438  0.2827
  132MOL   C25745059   1.396   1.637   4.436 -0.8297  0.1354 -0.1673
  132MOL   C25845060   1.469   1.586   4.564 -0.1962 -0.5487  0.0843
  132MOL   C25945061   1.530   1.686   4.649  0.3518 -0.2810  0.1362
  132MOL   C26045062   1.594   1.641   4.768  0.1178  0.5041  0.1811
  132MOL   C26145063   1.586   1.503   4.802 -0.2513 -0.0714 -0.1937
  132MOL   O26245064   1.635   1.465   4.921  0.6062 -0.3061 -0.5744
  132MOL   C26345065   1.538   1.405   4.712  0.1749  0.9754 -0.3534
  132MOL   C26445066   1.474   1.451   4.596 -0.2443  0.6552  0.3866
  132MOL   C26545067   1.456   1.592   4.304  0.0687 -0.5634  0.0278
  132MOL   H26645068   1.402   1.745   4.425 -0.0819  0.1120  0.0303
  132MOL   H26745069   1.521   1.792   4.628  1.4300 -0.2128  0.0106
  132MOL   H26845070   1.634   1.721   4.829  0.2203 -0.3222  1.1968
  132MOL   H26945071   1.643   1.542   4.975  1.1234  2.5682 -4.4523
  132MOL   H27045072   1.553   1.300   4.729  0.5600  1.1017  0.0961
  132MOL   H27145073   1.426   1.387   4.524 -0.0695  1.1101 -0.1364
  132MOL   H27245074   1.387   1.599   4.221 -0.2508  1.6644  0.4465
  132MOL   H27345075   1.478   1.486   4.318  1.3456  0.0199  2.9687
  132MOL   C27445076   1.581   1.679   4.261 -0.7054  0.1660  0.8390
  132MOL   C27545077   1.561   1.829   4.233  0.3190 -0.2708  0.4599
  132MOL   C27645078   1.439   1.868   4.168  0.0483 -0.5316 -0.2016
  132MOL   C27745079   1.408   2.006   4.158 -0.2749 -0.7646 -0.6617
  132MOL   C27845080   1.502   2.102   4.192 -0.2751  0.5756 -0.4257
  132MOL   O27945081   1.483   2.238   4.176 -0.6691 -0.2997  0.2499
  132MOL   C28045082   1.629   2.061   4.240 -0.6803 -0.6674 -0.0835
  132MOL   C28145083   1.662   1.927   4.262 -0.5815  0.2774  0.3471
  132MOL   C28245084   1.679   1.618   4.161 -0.1281  0.2119  0.8974
  132MOL   H28345085   1.643   1.686   4.351  0.2407 -3.5975  0.5334
  132MOL   H28445086   1.367   1.801   4.124 -0.5699 -0.1722  0.2708
  132MOL   H28545087   1.322   2.045   4.105 -0.9003 -1.3933 -0.1106
  132MOL   H28645088   1.564   2.280   4.155 -2.0916  2.0170 -0.8350
  132MOL   H28745089   1.704   2.136   4.257 -2.0170  0.0875  2.8261
  132MOL   H28845090   1.759   1.891   4.293 -0.4329  0.9629  0.6788
  132MOL   H28945091   1.782   1.647   4.184 -0.0250  2.0475 -1.6590
  132MOL   H29045092   1.669   1.510   4.171  0.5441  0.1783  1.2449
  132MOL   C29145093   1.662   1.645   4.004  0.6511  0.2247 -0.4611
  132MOL   C29245094   1.520   1.630   3.953  0.0351 -0.0191 -0.7053
  132MOL   C29345095   1.465   1.738   3.880  0.2875 -0.6826 -0.1099
  132MOL   C29445096   1.330   1.736   3.837 -0.4783 -0.1676  0.1525
  132MOL   C29545097   1.247   1.628   3.880  0.3232  0.0773  0.4501
  132MOL   O29645098   1.115   1.629   3.844  0.0865  0.7193 -0.1721
  132MOL   C29745099   1.306   1.513   3.935  0.5212  0.4175 -0.4193
  132MOL   C29845100   1.439   1.512   3.973  0.0469 -0.2386 -0.0107
  132MOL   C29945101   1.761   1.567   3.908 -0.9470  0.6041 -0.1243
  132MOL   H30045102   1.685   1.750   3.989 -2.0778  0.8838 -0.2509
  132MOL   H30145103   1.519   1.827   3.852  0.4826 -1.0978 -1.0798
  132MOL   H30245104   1.291   1.823   3.786 -1.1699 -0.6172 -0.0940
  132MOL   H30345105   1.085   1.709   3.803  0.5927  1.4705  0.8869
  132MOL   H30445106   1.248   1.424   3.953 -1.2233  1.8482  1.2246
  132MOL   H30545107   1.494   1.430   4.015  1.4686  1.3745  1.3597
  132MOL   H30645108   1.734   1.587   3.804 -0.3873 -2.1377 -0.8410
  132MOL   H30745109   1.733   1.462   3.911 -2.3625  0.9503 -0.7650
  132MOL   C30845110   1.911   1.590   3.934  0.7682  0.0735  0.3459
  132MOL   C30945111   1.935   1.740   3.949  0.3360  0.2663 -0.8357
  132MOL   C31045112   1.922   1.828   3.840 -0.4260 -0.4711  0.8109
  132MOL   C31145113   1.939   1.968   3.850 -0.3350  0.4416  0.3463
  132MOL   C31245114   1.976   2.024   3.973 -0.5082 -0.2406  0.2784
  132MOL   O31345115   1.991   2.160   3.981 -0.8130 -0.2785 -0.4450
  132MOL   C31445116   1.996   1.939   4.086 -0.7073  0.1536 -0.6697
  132MOL   C31545117   1.978   1.796   4.070  0.5256 -0.2434  0.3527
  132MOL   C31645118   2.002   1.537   3.814 -0.4548  0.9020  0.8864
  132MOL   H31745119   1.953   1.540   4.021 -0.9884  1.9652  2.3408
  132MOL   H31845120   1.884   1.796   3.744 -1.0404  2.3795  0.0385
  132MOL   H31945121   1.928   2.031   3.763 -2.7341  0.0360  0.3348
  132MOL   H32045122   2.003   2.200   4.066 -0.3169  0.4034 -0.8336
  132MOL   H32145123   2.036   1.975   4.180 -1.5198 -2.6054  0.7918
  132MOL   H32245124   2.000   1.732   4.154  0.7875  0.4459  0.8095
  132MOL   H32345125   1.961   1.573   3.720  0.9793 -2.6257 -1.1929
  132MOL   H32445126   1.981   1.430   3.813  0.0574  0.8090  0.5128
  132MOL   C32545127   2.150   1.568   3.814 -0.0220 -0.1675 -0.3302
  132MOL   C32645128   2.206   1.586   3.674 -0.2123  0.0518 -0.8082
  132MOL   C32745129   2.213   1.718   3.622 -0.1338 -0.7409  0.2140
  132MOL   C32845130   2.284   1.746   3.508  0.3832  0.4801  0.8281
  132MOL   C32945131   2.333   1.641   3.428 -0.4948 -0.1385  0.3342
  132MOL   O33045132   2.393   1.672   3.310  0.4967  0.0224 -0.0800
  132MOL   C33145133   2.324   1.508   3.477 -0.2637  0.0010  0.2581
  132MOL   C33245134   2.261   1.477   3.600 -0.2696  0.4394 -0.3322
  132MOL   C33345135   2.228   1.468   3.896  0.3174  1.1908 -0.3890
  132MOL   H33445136   2.154   1.661   3.871  3.2959  1.2453 -2.7244
  132MOL   H33545137   2.162   1.792   3.682 -0.0930 -0.8141  0.3406
  132MOL   H33645138   2.291   1.844   3.462  1.8633  0.1749  0.3865
  132MOL   H33745139   2.407   1.765   3.306  0.6522 -0.0482 -1.3921
  132MOL   H33845140   2.373   1.427   3.425  1.2240  1.3931 -0.5535
  132MOL   H33945141   2.261   1.373   3.631 -1.8172  0.4648 -0.1908
  132MOL   H34045142   2.227   1.369   3.851  0.9255  0.5112  1.0568
  132MOL   H34145143   2.210   1.458   4.003  1.4854  1.4139 -0.1600
  132MOL   H34245144   2.334   1.494   3.907  0.3673  1.4589 -1.4881
  133MOL     C145145   3.611   2.477   0.285 -0.0782  0.3974  0.4671
  133MOL     C245146   3.460   2.488   0.308  0.0429 -0.2234 -0.1865
  133MOL     C345147   3.376   2.388   0.256 -0.8465 -0.0785 -1.1792
  133MOL     C445148   3.234   2.409   0.273  0.1260 -0.3538 -0.2771
  133MOL     C545149   3.176   2.509   0.350  0.3084  0.2538 -0.2583
  133MOL     O645150   3.039   2.523   0.357  0.7263 -0.7778  0.3191
  133MOL     C745151   3.264   2.603   0.407  0.6282  0.2313  0.3092
  133MOL     C845152   3.404   2.591   0.384  0.4500 -0.7267 -0.5172
  133MOL     C945153   3.676   2.360   0.360 -0.4703  0.0518 -0.4733
  133MOL    H1045154   3.629   2.461   0.179 -2.1077 -1.0030  0.3017
  133MOL    H1145155   3.396   2.298   0.200  0.3347  0.1050 -1.0705
  133MOL    H1245156   3.161   2.341   0.232 -1.5376  0.5290  1.1712
  133MOL    H1345157   3.014   2.594   0.414 -0.0861 -0.4741 -0.4071
  133MOL    H1445158   3.229   2.692   0.457  1.7102  2.0029 -1.9944
  133MOL    H1545159   3.468   2.672   0.417  0.2417 -1.3266  1.3809
  133MOL    H1645160   3.631   2.262   0.341  1.8443 -0.7995 -1.7372
  133MOL    H1745161   3.649   2.386   0.462  1.6265 -0.9247  0.3530
  133MOL    H1845162   3.651   2.576   0.307 -2.2131  1.4997 -0.4573
  133MOL    C1945163   3.829   2.342   0.343 -0.4678 -0.9918 -0.3347
  133MOL    C2045164   3.875   2.308   0.204 -0.0943  0.0304 -0.2233
  133MOL    C2145165   3.985   2.379   0.148  0.1175 -0.0854  0.2737
  133MOL    C2245166   4.043   2.330   0.029  0.5764  0.2191 -0.1264
  133MOL    C2345167   3.991   2.213   8.003  0.1239 -0.1891 -0.1147
  133MOL    O2445168   4.030   2.165   7.884 -0.0671  0.4013 -0.3285
  133MOL    C2545169   3.883   2.142   0.027 -0.3167  0.3721  0.4237
  133MOL    C2645170   3.832   2.185   0.146 -0.2386 -0.0787 -0.4896
  133MOL    C2745171   3.904   2.247   0.446 -0.4548 -0.2567  0.6580
  133MOL    H2845172   3.867   2.442   0.363 -1.4720 -0.8767  1.0726
  133MOL    H2945173   4.023   2.468   0.195  0.7996 -0.8127  1.1130
  133MOL    H3045174   4.124   2.384   8.020 -0.1458 -0.2143 -1.9205
  133MOL    H3145175   3.985   2.086   7.860  1.6111 -0.6821  0.0214
  133MOL    H3245176   3.841   2.054   8.018  1.0676 -0.6522  1.0961
  133MOL    H3345177   3.752   2.127   0.190 -0.7700  1.4214  0.5655
  133MOL    H3445178   3.862   2.149   0.423 -2.7257  1.0534 -0.9415
  133MOL    H3545179   3.870   2.273   0.547  3.0279 -0.9841  2.0989
  133MOL    C3645180   4.057   2.255   0.449 -0.3041 -0.0379  0.4923
  133MOL    C3745181   4.103   2.120   0.513  0.1400  0.0410  0.3360
  133MOL    C3845182   4.106   2.108   0.652 -0.3154  0.3069 -0.1902
  133MOL    C3945183   4.165   1.997   0.711  0.2619  0.6265 -0.6934
  133MOL    C4045184   4.192   1.884   0.638 -0.9224 -0.1237  0.3295
  133MOL    O4145185   4.226   1.765   0.693 -0.0531  0.5948 -0.9420
  133MOL    C4245186   4.196   1.894   0.495 -0.1788  0.5249  0.7847
  133MOL    C4345187   4.152   2.013   0.433 -0.4762 -1.2186  0.3656
  133MOL    C4445188   4.117   2.385   0.510  0.2567 -0.2555 -0.1371
  133MOL    H4545189   4.100   2.249   0.349 -0.0337  0.9322  0.5488
  133MOL    H4645190   4.073   2.187   0.717 -1.6836 -2.8393  3.1039
  133MOL    H4745191   4.168   1.985   0.818  1.0052 -0.8188 -0.8602
  133MOL    H4845192   4.248   1.780   0.784 -3.0625 -0.2085 -0.0115
  133MOL    H4945193   4.242   1.813   0.440  0.4892  1.4408 -0.0158
  133MOL    H5045194   4.160   2.029   0.327 -2.2026 -0.7463  0.2921
  133MOL    H5145195   4.088   2.468   0.446 -0.0246  0.4562  0.9009
  133MOL    H5245196   4.063   2.384   0.605 -0.0138 -0.1289 -0.2895
  133MOL    C5345197   4.270   2.391   0.533  0.9652 -1.0841 -0.1255
  133MOL    C5445198   4.344   2.407   0.406  0.4065  0.4286  0.1009
  133MOL    C5545199   4.332   2.520   0.328  0.0574  0.5856 -0.8530
  133MOL    C5645200   4.410   2.536   0.213  0.0421 -0.0953  0.0853
  133MOL    C5745201   4.495   2.433   0.170  0.1230  0.6092 -0.0046
  133MOL    O5845202   4.566   2.439   0.056  0.5080 -0.1478  0.5549
  133MOL    C5945203   4.507   2.317   0.244  0.7335  0.8563 -0.1335
  133MOL    C6045204   4.434   2.306   0.364  0.4673  0.0513  0.8089
  133MOL    C6145205   4.317   2.496   0.635 -0.0721  0.5343  0.2245
  133MOL    H6245206   4.293   2.296   0.582 -0.2882 -0.9277  0.7779
  133MOL    H6345207   4.260   2.596   0.356 -0.7637 -0.2820 -0.5665
  133MOL    H6445208   4.392   2.625   0.155 -0.4136  0.4578  1.0625
  133MOL    H6545209   4.612   2.362   0.026 -1.2560 -1.6988  1.7480
  133MOL    H6645210   4.569   2.234   0.216 -0.1203  0.6494 -1.4997
  133MOL    H6745211   4.453   2.223   0.431  0.4290 -2.1283 -1.8104
  133MOL    H6845212   4.245   2.517   0.715 -0.2867 -1.4805  0.5840
  133MOL    H6945213   4.323   2.594   0.586 -3.9541  1.3553  1.1803
  133MOL    C7045214   4.437   2.469   0.726 -0.6023  0.2444  0.0092
  133MOL    C7145215   4.430   2.372   0.842 -0.3110 -0.2398 -0.3036
  133MOL    C7245216   4.350   2.408   0.949 -0.8122 -0.8232 -0.1096
  133MOL    C7345217   4.351   2.334   1.070 -0.1576  0.6414  0.3172
  133MOL    C7445218   4.420   2.214   1.072 -0.2096  0.7918  0.8790
  133MOL    O7545219   4.422   2.131   1.180  0.5210  0.3280 -0.1841
  133MOL    C7645220   4.502   2.181   0.965 -0.3785  0.3198  0.0514
  133MOL    C7745221   4.511   2.258   0.854  0.1418 -0.1864  0.6898
  133MOL    C7845222   4.506   2.604   0.770 -0.2478 -0.3564  0.8305
  133MOL    H7945223   4.507   2.428   0.653 -2.0223 -2.8476  0.3130
  133MOL    H8045224   4.287   2.496   0.945 -0.1793 -0.3858 -0.4584
  133MOL    H8145225   4.292   2.361   1.157 -1.2748  0.7916 -0.4762
  133MOL    H8245226   4.347   2.147   1.235  1.0375 -0.0326  0.6228
  133MOL    H8345227   4.560   2.091   0.979 -0.0095  0.3517 -1.1956
  133MOL    H8445228   4.583   2.232   0.777  0.5442 -0.7736  1.2533
  133MOL    H8545229   4.441   2.657   0.839 -1.9594  0.9345 -1.6914
  133MOL    H8645230   4.511   2.662   0.677 -1.1308  3.2104  2.8970
  133MOL    C8745231   4.646   2.601   0.832 -0.8719  0.5478 -0.2686
  133MOL    C8845232   4.656   2.544   0.979  0.3188 -0.6261  0.4808
  133MOL    C8945233   4.586   2.614   1.081  0.3738  0.0826  0.2191
  133MOL    C9045234   4.587   2.571   1.212 -0.3292  0.0585  0.5995
  133MOL    C9145235   4.656   2.454   1.243 -0.2047 -0.8204  0.7069
  133MOL    O9245236   4.656   2.416   1.372  0.3823  0.9672  0.4747
  133MOL    C9345237   4.731   2.389   1.144 -0.1172  0.0423 -0.3539
  133MOL    C9445238   4.735   2.432   1.014  0.6217  0.5641 -0.0416
  133MOL    C9545239   4.724   2.734   0.799  0.5052  0.0626  0.4677
  133MOL    H9645240   4.701   2.517   0.788 -0.3287 -0.3483  2.0477
  133MOL    H9745241   4.527   2.702   1.058  0.2324  0.5862  2.3927
  133MOL    H9845242   4.528   2.628   1.282 -0.2036 -0.8019  1.4098
  133MOL    H9945243   4.718   2.345   1.374 -3.1913 -2.3388 -1.0086
  133MOL   H10045244   4.776   2.295   1.172 -0.0841 -0.2026 -1.2079
  133MOL   H10145245   4.781   2.376   0.934 -0.8790  1.2735 -1.4274
  133MOL   H10245246   4.680   2.822   0.847 -0.1055  0.5443 -0.9431
  133MOL   H10345247   4.819   2.722   0.850  0.4500 -0.5543  0.4334
  133MOL   C10445248   4.757   2.769   0.646  0.0158  0.1840  0.0984
  133MOL   C10545249   4.828   2.649   0.577  0.7086 -0.4433 -0.3005
  133MOL   C10645250   4.756   2.576   0.474 -0.0643 -0.3514 -0.1230
  133MOL   C10745251   4.819   2.469   0.410 -0.0179 -0.6597  1.0899
  133MOL   C10845252   4.940   2.417   0.459  0.0795  0.0277  0.0325
  133MOL   O10945253   4.995   2.301   0.404  0.2900 -0.2927 -0.1727
  133MOL   C11045254   4.998   2.469   0.575 -0.1001  0.1418  0.2910
  133MOL   C11145255   4.945   2.589   0.628 -0.2040 -0.1602 -0.1260
  133MOL   C11245256   4.842   2.895   0.633 -0.4655 -0.2440 -0.4031
  133MOL   H11345257   4.660   2.793   0.603 -0.7613 -2.2089  0.4477
  133MOL   H11445258   4.659   2.610   0.443  0.2456  0.2903 -0.4039
  133MOL   H11545259   4.775   2.412   0.329  2.2596 -1.5260  0.4093
  133MOL   H11645260   5.088   2.288   0.415  0.1573 -1.0222  0.1111
  133MOL   H11745261   5.080   2.415   0.620  0.6735  1.0467 -0.0209
  133MOL   H11845262   4.982   2.640   0.716 -0.1421  0.2301 -0.3772
  133MOL   H11945263   4.881   2.895   0.531  0.2702 -0.2561 -0.1193
  133MOL   H12045264   4.934   2.884   0.689 -0.0682  1.0949 -0.7785
  133MOL   C12145265   4.772   3.031   0.660  0.2876  0.5321  0.2930
  133MOL   C12245266   4.873   3.146   0.686 -0.5017  0.5512 -0.6600
  133MOL   C12345267   5.002   3.151   0.620  0.2012 -0.6080  0.5549
  133MOL   C12445268   5.085   3.261   0.645  0.2295  0.1425  0.2952
  133MOL   C12545269   5.043   3.369   0.720  0.9026  0.3392  0.2292
  133MOL   O12645270   5.118   3.488   0.723  0.0861 -0.0431 -0.3889
  133MOL   C12745271   4.917   3.364   0.790 -0.3263 -0.3383  0.5596
  133MOL   C12845272   4.837   3.252   0.769 -0.4689  0.1373 -0.0338
  133MOL   C12945273   4.664   3.074   0.553 -0.1278  0.8634  0.8375
  133MOL   H13045274   4.724   3.022   0.758 -1.4278 -1.0249 -0.6704
  133MOL   H13145275   5.039   3.076   0.551  0.9855 -0.0539  0.3657
  133MOL   H13245276   5.176   3.270   0.587 -0.3570  0.1068 -0.6356
  133MOL   H13345277   5.212   3.481   0.718  0.1958  1.7818 -1.0443
  133MOL   H13445278   4.887   3.441   0.859  0.5842  0.5856 -0.0667
  133MOL   H13545279   4.742   3.255   0.819 -1.3428  3.8267 -1.7142
  133MOL   H13645280   4.647   2.994   0.480 -1.3537  1.1623  0.7817
  133MOL   H13745281   4.711   3.145   0.486  0.0653  1.1450  1.2727
  133MOL   C13845282   4.521   3.114   0.601 -0.5165 -0.7431  0.4937
  133MOL   C13945283   4.413   3.050   0.516  0.2329 -0.7395  0.2287
  133MOL   C14045284   4.352   3.117   0.405  0.4758  0.7663 -0.0136
  133MOL   C14145285   4.244   3.052   0.343 -0.2605  0.0030 -0.0897
  133MOL   C14245286   4.183   2.934   0.392  0.1661 -0.2932 -0.8915
  133MOL   O14345287   4.084   2.875   0.321  0.0561 -0.2706 -0.5058
  133MOL   C14445288   4.247   2.872   0.503 -0.3785  0.3666  0.5941
  133MOL   C14545289   4.366   2.923   0.554 -0.2508  0.4052 -0.0844
  133MOL   C14645290   4.518   3.270   0.619  0.2772 -0.2526  0.4255
  133MOL   H14745291   4.515   3.084   0.705 -1.3036  2.3380  1.3946
  133MOL   H14845292   4.388   3.213   0.371 -2.9883  2.1574  0.1003
  133MOL   H14945293   4.210   3.106   0.257  0.4833  1.0183  0.2486
  133MOL   H15045294   4.049   2.921   0.246  1.0959  0.5112 -0.5252
  133MOL   H15145295   4.216   2.775   0.538 -0.4764 -0.2465 -1.1259
  133MOL   H15245296   4.416   2.877   0.638  0.9707  1.0108 -0.4733
  133MOL   H15345297   4.505   3.326   0.527 -0.8174  2.6902  2.2947
  133MOL   H15445298   4.619   3.299   0.647  0.0052  0.0787  1.0842
  133MOL   C15545299   4.419   3.317   0.730  0.5679 -0.0566 -0.2310
  133MOL   C15645300   4.276   3.345   0.676  0.2101  1.3342  0.2144
  133MOL   C15745301   4.179   3.242   0.685  0.1468  0.6377 -0.1062
  133MOL   C15845302   4.056   3.251   0.614  0.4235  0.0258 -0.0787
  133MOL   C15945303   4.017   3.378   0.565  0.0790  0.4048 -0.0011
  133MOL   O16045304   3.895   3.390   0.509 -0.3019 -0.0422  0.0839
  133MOL   C16145305   4.111   3.482   0.556  0.7710  0.0983  0.5596
  133MOL   C16245306   4.239   3.461   0.608 -0.3871 -0.4656  0.1227
  133MOL   C16345307   4.464   3.441   0.813 -0.1123 -0.5255 -0.3986
  133MOL   H16445308   4.413   3.237   0.803 -0.5771 -1.9565 -2.3424
  133MOL   H16545309   4.214   3.152   0.733  0.2939  1.8499  2.1559
  133MOL   H16645310   3.978   3.177   0.610 -1.0988  1.6740 -2.2429
  133MOL   H16745311   3.842   3.437   0.571 -2.6696 -0.1660 -1.7631
  133MOL   H16845312   4.084   3.574   0.506 -1.3344 -0.3760  0.7574
  133MOL   H16945313   4.311   3.541   0.599 -0.2311 -0.9460 -3.8089
  133MOL   H17045314   4.474   3.514   0.734 -0.7321  0.3345  0.3025
  133MOL   H17145315   4.567   3.426   0.846 -0.6963  0.2675  1.8698
  133MOL   C17245316   4.368   3.482   0.928 -0.4670 -0.8469  0.0019
  133MOL   C17345317   4.370   3.628   0.960  0.2978 -0.0944  0.7812
  133MOL   C17445318   4.247   3.694   0.945 -0.1493 -0.3052  0.1068
  133MOL   C17545319   4.237   3.829   0.974  0.6951 -0.3204 -0.1595
  133MOL   C17645320   4.343   3.901   1.022  0.0956  0.1745  0.5051
  133MOL   O17745321   4.334   4.039   1.055 -0.4380  0.2402  0.1213
  133MOL   C17845322   4.467   3.834   1.035  0.1559 -0.1775 -0.2977
  133MOL   C17945323   4.483   3.697   1.004  0.4841  0.1014  0.9272
  133MOL   C18045324   4.388   3.387   1.054  0.6115 -0.2751 -0.0919
  133MOL   H18145325   4.264   3.468   0.901 -1.0060 -2.5609  2.6875
  133MOL   H18245326   4.156   3.640   0.924 -0.1912 -0.4239  0.5960
  133MOL   H18345327   4.137   3.868   0.962  0.1595 -0.9749  1.9396
  133MOL   H18445328   4.246   4.071   1.049  0.0772  1.7713  0.4920
  133MOL   H18545329   4.557   3.886   1.063 -0.3993  1.3184 -1.2786
  133MOL   H18645330   4.584   3.661   1.010  0.9740  0.9781 -1.6925
  133MOL   H18745331   4.489   3.399   1.092  0.9166 -0.0309 -0.9706
  133MOL   H18845332   4.381   3.281   1.026  0.2520 -0.5051  0.8652
  133MOL   C18945333   4.289   3.416   1.178 -0.2859 -0.0570 -0.0516
  133MOL   C19045334   4.143   3.398   1.142  0.1860  0.1848  0.5395
  133MOL   C19145335   4.104   3.289   1.059  0.1611 -0.1480  0.5536
  133MOL   C19245336   3.970   3.285   1.008  0.3001 -0.5113 -0.0694
  133MOL   C19345337   3.885   3.397   1.026  0.4739  1.0571 -0.7137
  133MOL   O19445338   3.763   3.392   0.965 -0.4203 -0.4838 -0.1216
  133MOL   C19545339   3.928   3.505   1.101 -0.2024  0.1745  0.7247
  133MOL   C19645340   4.053   3.509   1.161 -0.7453  0.6579 -0.0980
  133MOL   C19745341   4.329   3.338   1.308 -0.2699 -0.7173  0.4103
  133MOL   H19845342   4.304   3.523   1.192  1.6955 -0.0195 -2.1508
  133MOL   H19945343   4.170   3.203   1.052  0.0618 -0.1325 -0.5980
  133MOL   H20045344   3.930   3.206   0.946 -0.2467  0.1464 -0.5606
  133MOL   H20145345   3.695   3.432   1.016  0.6930  1.4959 -0.1448
  133MOL   H20245346   3.868   3.592   1.123  1.7573  1.5887  0.6263
  133MOL   H20345347   4.080   3.596   1.219  1.3756  0.0759 -0.1522
  133MOL   H20445348   4.435   3.345   1.329 -0.1417  1.7251 -0.7852
  133MOL   H20545349   4.317   3.232   1.289  0.8757 -0.9880  1.1960
  133MOL   C20645350   4.262   3.376   1.434 -0.6168 -0.3539  0.7245
  133MOL   C20745351   4.288   3.521   1.476 -0.2389 -0.4707  0.5522
  133MOL   C20845352   4.413   3.571   1.492 -0.1802  0.1181 -1.0567
  133MOL   C20945353   4.429   3.709   1.509  0.1172 -0.3699  0.8574
  133MOL   C21045354   4.320   3.798   1.510  0.0638 -0.0662 -0.7013
  133MOL   O21145355   4.340   3.932   1.516 -0.6752 -0.4324  0.2249
  133MOL   C21245356   4.194   3.746   1.486 -0.3570  0.0433 -0.2588
  133MOL   C21345357   4.176   3.605   1.473  0.6013 -0.1509 -0.1257
  133MOL   C21445358   4.305   3.273   1.541 -0.1692 -0.6948  0.1943
  133MOL   H21545359   4.154   3.371   1.420 -0.4587 -3.2611  0.1589
  133MOL   H21645360   4.500   3.507   1.500  0.2695  0.5805 -2.0648
  133MOL   H21745361   4.530   3.737   1.532  0.1604 -0.5061  0.8345
  133MOL   H21845362   4.431   3.945   1.537 -1.0287  1.2850  0.7964
  133MOL   H21945363   4.113   3.815   1.471 -1.0323 -1.0865 -1.9949
  133MOL   H22045364   4.076   3.568   1.456  1.0911 -0.0719 -3.5966
  133MOL   H22145365   4.336   3.340   1.620 -0.0546 -0.7073  0.1593
  133MOL   H22245366   4.393   3.216   1.511 -1.0928 -2.3507  0.5826
  133MOL   C22345367   4.200   3.184   1.608 -0.8291 -0.4269 -0.2928
  133MOL   C22445368   4.074   3.260   1.635 -0.1070 -0.7355  0.0314
  133MOL   C22545369   3.949   3.219   1.577 -0.1178 -0.0112 -0.3251
  133MOL   C22645370   3.832   3.292   1.599  0.2124  0.0048 -0.0836
  133MOL   C22745371   3.835   3.406   1.686  0.3068  0.5320 -0.4485
  133MOL   O22845372   3.723   3.477   1.718 -0.0848 -0.6747  0.2586
  133MOL   C22945373   3.958   3.449   1.738 -0.2267 -0.0030  0.3726
  133MOL   C23045374   4.073   3.378   1.716  0.3680 -0.1501  1.0650
  133MOL   C23145375   4.263   3.122   1.736 -0.2080  0.1149 -0.6440
  133MOL   H23245376   4.176   3.100   1.544 -0.5805  0.1172 -1.0998
  133MOL   H23345377   3.944   3.125   1.524  0.9673 -0.3479  0.1462
  133MOL   H23445378   3.747   3.237   1.562  0.0006  0.1854  0.1359
  133MOL   H23545379   3.749   3.564   1.743  2.0232 -1.1760 -0.0771
  133MOL   H23645380   3.956   3.511   1.827  0.5727  2.1134 -1.0371
  133MOL   H23745381   4.169   3.408   1.756  0.8444  2.8291 -2.0526
  133MOL   H23845382   4.360   3.080   1.711  0.0755  1.6915 -2.2688
  133MOL   H23945383   4.281   3.204   1.806  1.5042  1.4360 -2.6045
  133MOL   C24045384   4.179   3.017   1.818 -0.4202  0.7027  0.1165
  133MOL   C24145385   4.189   2.876   1.744  0.6676  1.0542 -0.3416
  133MOL   C24245386   4.069   2.819   1.699  0.5919  0.8231  0.4429
  133MOL   C24345387   4.072   2.698   1.628  0.4565  0.2468 -0.1000
  133MOL   C24445388   4.191   2.625   1.610  0.0149  0.5878  0.5301
  133MOL   O24545389   4.187   2.507   1.546  0.2724  0.5977  0.2680
  133MOL   C24645390   4.311   2.681   1.644 -0.1626 -0.4621 -0.3914
  133MOL   C24745391   4.309   2.807   1.715 -0.5590  0.7149  0.7976
  133MOL   C24845392   4.239   2.998   1.952  0.6318 -0.1702  0.2942
  133MOL   H24945393   4.070   3.026   1.822 -0.6426 -0.2495 -3.0617
  133MOL   H25045394   3.972   2.855   1.728  0.2527 -0.3880  0.8459
  133MOL   H25145395   3.978   2.660   1.591  1.0186 -1.1115 -0.1568
  133MOL   H25245396   4.269   2.462   1.556  0.3070 -0.1095 -2.7241
  133MOL   H25345397   4.403   2.630   1.622  2.3571  1.9577  3.9433
  133MOL   H25445398   4.409   2.840   1.739  0.7110 -0.7081 -2.2870
  133MOL   H25545399   4.213   2.901   1.995  1.4584 -0.1141  0.9130
  133MOL   H25645400   4.347   3.004   1.947  0.6129 -0.6946 -1.0070
  133MOL   C25745401   4.187   3.107   2.054  0.7366  0.2166  0.2677
  133MOL   C25845402   4.040   3.112   2.059  0.2469  0.0009 -0.5047
  133MOL   C25945403   3.962   3.005   2.112  0.6829  0.7434  0.1129
  133MOL   C26045404   3.821   3.005   2.105 -0.1122  0.1423 -0.0084
  133MOL   C26145405   3.757   3.110   2.049 -0.2146 -0.4197  0.5067
  133MOL   O26245406   3.625   3.098   2.025  0.0004 -0.1462  0.1622
  133MOL   C26345407   3.829   3.222   2.003 -0.5982  0.1985 -0.1221
  133MOL   C26445408   3.968   3.222   2.005 -0.2977 -0.2710 -0.0922
  133MOL   C26545409   4.255   3.082   2.190 -0.3711  1.3997 -0.2062
  133MOL   H26645410   4.227   3.199   2.012 -3.9881  1.3293 -2.1624
  133MOL   H26745411   4.017   2.924   2.157  0.0861  0.1078 -0.2981
  133MOL   H26845412   3.765   2.914   2.123  0.4558 -0.1113  0.5034
  133MOL   H26945413   3.597   3.159   1.959  0.9251 -0.6207 -0.6911
  133MOL   H27045414   3.784   3.303   1.947  1.4936  0.5317 -1.3625
  133MOL   H27145415   4.028   3.296   1.955  1.6369 -0.3784  1.9854
  133MOL   H27245416   4.256   2.977   2.219  0.9265  1.5370  0.2937
  133MOL   H27345417   4.192   3.139   2.259  0.4420  0.0571  1.6817
  133MOL   C27445418   4.395   3.156   2.208  0.8403 -0.2731 -0.0752
  133MOL   C27545419   4.509   3.066   2.252  0.5460  0.9093 -0.8797
  133MOL   C27645420   4.500   2.978   2.364 -0.0154 -0.0970 -0.1263
  133MOL   C27745421   4.614   2.908   2.412  0.8163  0.1787 -0.3110
  133MOL   C27845422   4.724   2.892   2.327 -0.0935 -0.2021  0.2826
  133MOL   O27945423   4.816   2.793   2.353 -0.5929  0.8863  0.0531
  133MOL   C28045424   4.733   2.967   2.211  0.2918 -0.1125  0.2280
  133MOL   C28145425   4.623   3.057   2.177 -0.5760 -0.0913  0.5572
  133MOL   C28245426   4.388   3.275   2.304 -0.0979 -1.0488  0.8367
  133MOL   H28345427   4.430   3.184   2.109  1.3658  0.4733  0.3222
  133MOL   H28445428   4.414   2.977   2.430 -1.1988 -1.8180 -1.6493
  133MOL   H28545429   4.601   2.855   2.506 -5.1174  0.4901 -0.7301
  133MOL   H28645430   4.832   2.763   2.441 -0.8216  3.2814  0.9459
  133MOL   H28745431   4.817   2.950   2.145 -0.2914  0.2086 -0.6107
  133MOL   H28845432   4.639   3.115   2.088 -0.3063  0.6810  1.1057
  133MOL   H28945433   4.343   3.234   2.394 -0.5431 -1.6415  0.3490
  133MOL   H29045434   4.491   3.305   2.326  0.1901 -1.0594 -0.4355
  133MOL   C29145435   4.313   3.402   2.256 -0.1017 -0.0129 -0.4273
  133MOL   C29245436   4.373   3.465   2.126 -0.3771 -0.3005 -0.0932
  133MOL   C29345437   4.513   3.480   2.116 -0.1801 -0.3756  0.0310
  133MOL   C29445438   4.568   3.538   2.007 -0.1656  0.1656  0.1255
  133MOL   C29545439   4.489   3.570   1.899 -0.7222 -0.4469 -0.0434
  133MOL   O29645440   4.545   3.621   1.786  0.1720 -0.0190  0.0831
  133MOL   C29745441   4.354   3.551   1.906  0.4257  0.2393  1.2779
  133MOL   C29845442   4.290   3.501   2.019 -0.6504 -0.1238 -0.6295
  133MOL   C29945443   4.318   3.501   2.370  0.8598  0.6738 -0.5300
  133MOL   H30045444   4.215   3.363   2.228  1.2503 -1.1132 -3.9299
  133MOL   H30145445   4.587   3.446   2.186  0.8491  0.5946 -0.5671
  133MOL   H30245446   4.674   3.556   2.009  0.1369 -1.4687  2.5260
  133MOL   H30345447   4.489   3.649   1.715  0.9293  0.1946 -0.4404
  133MOL   H30445448   4.294   3.582   1.821 -0.0642  0.0543  1.5593
  133MOL   H30545449   4.184   3.490   2.032 -0.6898  1.4204  0.4674
  133MOL   H30645450   4.293   3.599   2.329 -1.8114 -0.1135 -0.8721
  133MOL   H30745451   4.419   3.498   2.412  0.3596  2.4973  0.8412
  133MOL   C30845452   4.223   3.485   2.491  0.8465 -0.0641 -0.2076
  133MOL   C30945453   4.081   3.436   2.445 -0.2158 -0.1685  0.3941
  133MOL   C31045454   4.005   3.509   2.349  0.1945  0.7437  0.4129
  133MOL   C31145455   3.878   3.456   2.303  0.2804  0.5761 -0.2171
  133MOL   C31245456   3.830   3.336   2.354  0.5513 -0.5693 -0.3015
  133MOL   O31345457   3.711   3.292   2.309  0.1834  0.7650  0.3949
  133MOL   C31445458   3.913   3.258   2.442 -0.1606 -0.0274 -0.3403
  133MOL   C31545459   4.032   3.314   2.491  0.8309 -0.4348  0.5511
  133MOL   C31645460   4.234   3.598   2.591  0.6497  0.0921  0.0814
  133MOL   H31745461   4.270   3.403   2.544  2.0550  1.1725  0.6894
  133MOL   H31845462   4.042   3.606   2.320  1.7099 -0.6105 -2.3596
  133MOL   H31945463   3.810   3.511   2.239  0.0028  0.1690 -0.2785
  133MOL   H32045464   3.680   3.314   2.223 -0.3446  0.1069  0.4135
  133MOL   H32145465   3.872   3.162   2.469  0.5349  0.0744  1.1421
  133MOL   H32245466   4.095   3.256   2.556  0.6085 -2.6344 -1.1545
  133MOL   H32345467   4.236   3.688   2.530  0.6188  0.2630  0.3335
  133MOL   H32445468   4.328   3.599   2.646  0.0529 -1.0732  1.1631
  133MOL   C32545469   4.113   3.610   2.698  0.5276  0.1379  0.7744
  133MOL   C32645470   3.982   3.658   2.642  0.2797 -0.3283 -0.6131
  133MOL   C32745471   3.975   3.773   2.553 -0.2772  0.0075  0.3696
  133MOL   C32845472   3.860   3.802   2.480 -0.2062 -0.6709  0.1278
  133MOL   C32945473   3.744   3.725   2.498  0.0520  0.0495  0.0822
  133MOL   O33045474   3.632   3.751   2.428  0.2456  0.3700 -0.5397
  133MOL   C33145475   3.737   3.630   2.601  0.6266  0.0303  0.2932
  133MOL   C33245476   3.856   3.590   2.669  0.1488  0.0299 -0.4614
  133MOL   C33345477   4.170   3.701   2.809  0.1065 -0.3979 -0.2709
  133MOL   H33445478   4.098   3.510   2.736 -1.2646 -0.4700 -1.3825
  133MOL   H33545479   4.065   3.830   2.531 -1.7565  2.3160  0.1382
  133MOL   H33645480   3.860   3.878   2.403  1.5992 -0.1855  0.5586
  133MOL   H33745481   3.564   3.686   2.439 -1.8797  2.3981 -1.3578
  133MOL   H33845482   3.647   3.578   2.629 -0.4555  1.1599 -1.0387
  133MOL   H33945483   3.853   3.508   2.740 -0.1244  2.9382  3.0109
  133MOL   H34045484   4.105   3.711   2.896  0.3011 -2.3964  0.1470
  133MOL   H34145485   4.189   3.802   2.772 -0.0369 -1.2395 -2.7488
  133MOL   H34245486   4.268   3.665   2.842  0.6754  0.7074 -0.7292
  134MOL     C145487   7.758   1.957   0.007 -0.6060 -0.4986  0.1949
  134MOL     C245488   7.815   1.909   7.923  0.0414  0.3439  0.4126
  134MOL     C345489   7.748   1.914   7.800  0.3527  0.0518  0.6715
  134MOL     C445490   7.810   1.863   7.683  1.1641  0.3424  0.1502
  134MOL     C545491   7.940   1.817   7.690  0.0187 -0.1741 -0.0795
  134MOL     O645492   7.998   1.778   7.577 -0.3350 -0.0962  0.0452
  134MOL     C745493   8.007   1.817   7.815 -0.7069  0.4022  0.9593
  134MOL     C845494   7.945   1.859   7.931  0.1774  0.2743 -0.1524
  134MOL     C945495   7.744   1.846   0.116  0.1638  0.7508  0.2759
  134MOL    H1045496   7.811   2.045   0.044 -0.2165 -1.1405  1.1786
  134MOL    H1145497   7.646   1.950   7.802  0.6738  1.0509 -0.2365
  134MOL    H1245498   7.766   1.848   7.586 -0.3536 -0.9123  0.9969
  134MOL    H1345499   0.053   1.760   7.588 -0.4010 -0.5611 -0.1583
  134MOL    H1445500   0.066   1.769   7.826  0.5106  1.9220 -2.4693
  134MOL    H1545501   7.997   1.846   8.025 -0.1453  0.3717  0.0401
  134MOL    H1645502   7.840   1.819   0.161  0.4460  0.8289 -0.2674
  134MOL    H1745503   7.710   1.751   0.075 -0.1406  0.9065  0.1711
  134MOL    H1845504   7.663   1.998   8.010 -0.9376 -1.4973 -0.0948
  134MOL    C1945505   7.643   1.878   0.230 -0.0156  0.0452 -0.2736
  134MOL    C2045506   7.671   1.784   0.346  0.1912 -0.1856 -0.3080
  134MOL    C2145507   7.638   1.648   0.340 -0.0548  0.1580  0.5848
  134MOL    C2245508   7.662   1.556   0.446 -0.4277 -0.5171  0.0296
  134MOL    C2345509   7.734   1.606   0.558 -0.5392  0.6100  0.4962
  134MOL    O2445510   7.747   1.521   0.668 -0.4097 -0.5611 -0.2526
  134MOL    C2545511   7.774   1.741   0.565  0.0459 -0.1891  0.1258
  134MOL    C2645512   7.738   1.834   0.465  0.3221  0.1753  0.1108
  134MOL    C2745513   7.492   1.878   0.181  0.7355 -0.4059 -0.0564
  134MOL    H2845514   7.666   1.979   0.263 -2.7169  0.3881  0.6886
  134MOL    H2945515   7.581   1.600   0.261  0.4155  1.2658 -0.4446
  134MOL    H3045516   7.647   1.451   0.425  0.1093 -0.3181 -1.4286
  134MOL    H3145517   7.756   1.429   0.645 -1.3872 -0.4690 -1.0199
  134MOL    H3245518   7.835   1.773   0.648 -0.0785  3.5358 -1.1516
  134MOL    H3345519   7.768   1.936   0.479  1.8551 -0.1306 -0.9035
  134MOL    H3445520   7.457   1.777   0.155 -0.0206 -0.1871  0.1032
  134MOL    H3545521   7.486   1.927   0.084 -2.2173 -1.3761 -0.4106
  134MOL    C3645522   7.393   1.943   0.284 -1.0368  0.3448 -0.0785
  134MOL    C3745523   7.255   1.875   0.278  0.2158 -0.0056 -0.1421
  134MOL    C3845524   7.186   1.888   0.158 -0.6045 -0.1969  0.2479
  134MOL    C3945525   7.060   1.831   0.146 -0.4822  0.3166  0.2992
  134MOL    C4045526   7.001   1.762   0.254  0.0555 -1.0147  0.7284
  134MOL    O4145527   6.880   1.700   0.246  0.4073  0.2423 -0.4049
  134MOL    C4245528   7.075   1.750   0.369 -0.4396  0.1945  0.4436
  134MOL    C4345529   7.203   1.802   0.388  0.0766  0.7020  0.2066
  134MOL    C4445530   7.381   2.095   0.272 -0.3995 -0.5227 -0.4211
  134MOL    H4545531   7.435   1.925   0.383  0.2140  2.7020 -0.1532
  134MOL    H4645532   7.225   1.947   0.078 -0.9714 -0.2090  0.0587
  134MOL    H4745533   7.005   1.841   0.054 -2.0848  0.0063  1.1832
  134MOL    H4845534   6.840   1.697   0.160  1.1886 -2.0583 -0.7162
  134MOL    H4945535   7.028   1.688   0.445 -1.2022  0.6233  0.3315
  134MOL    H5045536   7.261   1.786   0.477 -0.8042  1.2426  0.8909
  134MOL    H5145537   7.466   2.132   0.215 -0.1152  0.0192  0.3436
  134MOL    H5245538   7.293   2.124   0.215 -1.3264 -0.8488  0.8108
  134MOL    C5345539   7.371   2.183   0.401  0.0554 -0.0781 -0.0369
  134MOL    C5445540   7.506   2.181   0.481  0.2379  0.3885  0.0267
  134MOL    C5545541   7.525   2.095   0.588  0.0922 -0.7575 -0.6004
  134MOL    C5645542   7.639   2.090   0.669  0.1926 -0.1804  0.0275
  134MOL    C5745543   7.743   2.173   0.632 -0.1049  0.0968  0.7207
  134MOL    O5845544   7.854   2.169   0.707 -0.5924  0.5790 -0.3230
  134MOL    C5945545   7.729   2.259   0.526 -1.3010  0.3046 -1.2234
  134MOL    C6045546   7.619   2.259   0.443 -0.6506 -0.0672 -0.9333
  134MOL    C6145547   7.340   2.335   0.364  0.6988  0.1413  0.3272
  134MOL    H6245548   7.296   2.141   0.468  1.9034 -2.2668  0.7513
  134MOL    H6345549   7.448   2.023   0.611  1.9468 -2.3851  0.7056
  134MOL    H6445550   7.653   2.030   0.757  1.7286 -0.7584 -0.6034
  134MOL    H6545551   7.925   2.201   0.653 -1.7442  2.0719 -0.9861
  134MOL    H6645552   7.812   2.325   0.505 -3.6510  3.4507 -1.1675
  134MOL    H6745553   7.610   2.326   0.359 -0.9414  0.9035 -0.1379
  134MOL    H6845554   7.406   2.382   0.291  0.4163  0.1124  0.0519
  134MOL    H6945555   7.370   2.382   0.457 -0.3752  0.7679  0.3597
  134MOL    C7045556   7.197   2.377   0.320  0.5292 -0.1022 -0.0951
  134MOL    C7145557   7.090   2.302   0.398 -0.4275 -0.2781  0.7865
  134MOL    C7245558   7.038   2.369   0.513 -1.0002 -0.6443 -0.0984
  134MOL    C7345559   6.941   2.312   0.593 -0.2862 -0.6514  0.2520
  134MOL    C7445560   6.874   2.195   0.552  0.2094  0.4359 -0.5138
  134MOL    O7545561   6.773   2.139   0.623 -0.9115  0.8103 -0.0308
  134MOL    C7645562   6.918   2.130   0.433 -0.3844  0.1786 -0.0038
  134MOL    C7745563   7.029   2.182   0.356 -0.1994 -0.8568  0.6387
  134MOL    C7845564   7.176   2.393   0.163 -0.2724 -0.2840 -0.3102
  134MOL    H7945565   7.198   2.479   0.358  1.2171 -0.1401 -0.0073
  134MOL    H8045566   7.082   2.464   0.542 -0.8140 -0.8640  0.3585
  134MOL    H8145567   6.911   2.380   0.672 -2.4685  1.2959 -2.1764
  134MOL    H8245568   6.739   2.179   0.702  0.9122  2.4868 -0.0707
  134MOL    H8345569   6.864   2.045   0.394  1.2303 -0.1939 -1.4937
  134MOL    H8445570   7.053   2.131   0.264  0.2485 -0.3957  0.5001
  134MOL    H8545571   7.239   2.312   0.126  0.5646 -0.2441  0.9843
  134MOL    H8645572   7.234   2.478   0.126  0.1067 -0.7191 -0.7190
  134MOL    C8745573   7.033   2.393   0.097 -0.1216  0.7838  0.0042
  134MOL    C8845574   7.049   2.356   7.990 -0.0167 -0.2495  0.3217
  134MOL    C8945575   7.011   2.228   7.957 -0.1856 -0.0836 -0.0254
  134MOL    C9045576   6.997   2.201   7.820 -0.0468  0.2731 -0.3626
  134MOL    C9145577   7.018   2.298   7.721 -0.1330 -0.0597 -0.2953
  134MOL    O9245578   6.992   2.262   7.590  0.8025 -0.1761  0.0528
  134MOL    C9345579   7.057   2.430   7.763 -0.1518  0.6060  0.2773
  134MOL    C9445580   7.072   2.456   7.897  0.4324 -0.1457  0.1005
  134MOL    C9545581   6.932   2.509   0.125 -0.0554 -0.4174  0.3312
  134MOL    H9645582   6.988   2.306   0.146  1.8580  0.0071  0.4909
  134MOL    H9745583   6.990   2.151   8.030 -0.6307  0.4349  0.3934
  134MOL    H9845584   6.968   2.104   7.783  2.6925 -1.4559  1.8155
  134MOL    H9945585   6.908   2.218   7.586  1.4286 -1.5300  1.1828
  134MOL   H10045586   7.066   2.513   7.694  0.4748 -0.6457 -1.1700
  134MOL   H10145587   7.088   2.557   7.933 -1.1507  0.3492 -0.5544
  134MOL   H10245588   6.926   2.526   0.232 -0.1436 -1.8462  0.5549
  134MOL   H10345589   6.976   2.602   0.087  1.9189 -0.5567  2.1548
  134MOL   C10445590   6.793   2.484   0.060 -0.5001 -0.5243 -0.1403
  134MOL   C10545591   6.716   2.610   0.026  0.0496  0.0870  0.0970
  134MOL   C10645592   6.678   2.632   7.928 -0.0685  0.2388 -0.0809
  134MOL   C10745593   6.616   2.745   7.886  0.2079  0.7364  0.6992
  134MOL   C10845594   6.570   2.836   7.983  0.8070 -0.3402  0.4180
  134MOL   O10945595   6.495   2.946   7.945  0.6222 -0.6127  0.4459
  134MOL   C11045596   6.601   2.820   0.082 -1.8051 -0.1900 -0.1944
  134MOL   C11145597   6.671   2.702   0.126  0.0399 -0.6719  0.5658
  134MOL   C11245598   6.704   2.385   0.144 -0.1196  0.0191 -0.0404
  134MOL   H11345599   6.809   2.436   8.001  1.3616  1.6650 -0.9662
  134MOL   H11445600   6.722   2.562   7.858 -1.0549 -1.9430  1.4030
  134MOL   H11545601   6.599   2.761   7.780  3.5158 -0.6429 -0.0890
  134MOL   H11645602   6.505   3.007   8.017  0.5623 -0.9624  0.7535
  134MOL   H11745603   6.581   2.903   0.147 -0.4016 -2.3924  3.1864
  134MOL   H11845604   6.690   2.691   0.232 -1.0806  1.2202  0.9812
  134MOL   H11945605   6.664   2.428   0.235  3.2743  4.3481 -0.4508
  134MOL   H12045606   6.772   2.308   0.180  0.3341  0.6562  0.4742
  134MOL   C12145607   6.605   2.314   0.054 -0.6253  0.5620 -0.2712
  134MOL   C12245608   6.635   2.165   0.044  0.9404 -0.5799 -0.3424
  134MOL   C12345609   6.635   2.082   0.165  0.2934  0.0916  0.6761
  134MOL   C12445610   6.666   1.946   0.140 -0.0046  0.2617  0.0518
  134MOL   C12545611   6.701   1.892   0.019 -0.5151  0.6032  0.3926
  134MOL   O12645612   6.733   1.762   0.009  0.4020  0.3751  0.1325
  134MOL   C12745613   6.716   1.973   7.948 -0.4216 -0.2969 -0.5999
  134MOL   C12845614   6.670   2.108   7.954 -0.2772 -0.1944 -0.1169
  134MOL   C12945615   6.459   2.340   0.091 -0.2759 -0.0510 -0.2516
  134MOL   H13045616   6.611   2.357   7.992  2.0348  1.2827  0.1615
  134MOL   H13145617   6.633   2.130   0.261  1.8487  2.7378 -0.5734
  134MOL   H13245618   6.660   1.885   0.229  0.6402 -0.7907 -0.6133
  134MOL   H13345619   6.702   1.724   7.966  2.5590  0.0437 -0.5576
  134MOL   H13445620   6.733   1.927   7.852  1.7270 -1.9200  0.5210
  134MOL   H13545621   6.667   2.164   7.862  1.4569  0.2465  0.0902
  134MOL   H13645622   6.449   2.448   0.086 -3.3250 -0.1702  2.1029
  134MOL   H13745623   6.444   2.325   0.197  1.3640 -0.2231 -0.0322
  134MOL   C13845624   6.351   2.262   0.011 -1.0261 -0.1384 -0.1449
  134MOL   C13945625   6.375   2.296   7.897  0.4391 -0.8543  0.3727
  134MOL   C14045626   6.398   2.424   7.853 -0.2883  0.3486 -0.7330
  134MOL   C14145627   6.451   2.449   7.726 -0.0352  0.5045  0.3299
  134MOL   C14245628   6.467   2.347   7.636  0.3356  0.4734  0.1634
  134MOL   O14345629   6.531   2.359   7.515  1.0275  0.5198  0.6942
  134MOL   C14445630   6.420   2.213   7.668  0.1628  0.1776 -0.7271
  134MOL   C14545631   6.381   2.194   7.800  0.1556  0.1911  0.1098
  134MOL   C14645632   6.211   2.294   0.066 -0.0291  0.0427  0.2470
  134MOL   H14745633   6.380   2.157   0.020 -1.5852 -0.3440 -0.6433
  134MOL   H14845634   6.394   2.505   7.924  0.7901 -0.0263 -0.2453
  134MOL   H14945635   6.462   2.551   7.692 -2.1819  0.5511 -0.3362
  134MOL   H15045636   6.539   2.447   7.483  2.8406  0.0955 -0.0828
  134MOL   H15145637   6.436   2.134   7.596  0.0414 -4.3530  3.9309
  134MOL   H15245638   6.374   2.091   7.831 -0.6637  1.2312  3.5218
  134MOL   H15345639   6.133   2.249   0.005  1.7158  1.4213 -3.1794
  134MOL   H15445640   6.190   2.399   0.046  1.0119 -0.0529 -1.4916
  134MOL   C15545641   6.188   2.270   0.223  0.9082 -0.2291  0.1732
  134MOL   C15645642   6.218   2.129   0.270 -0.1133  0.1642 -0.0376
  134MOL   C15745643   6.315   2.115   0.371 -0.6971 -0.7877 -0.5127
  134MOL   C15845644   6.366   1.997   0.425  0.2070 -0.3903  0.3600
  134MOL   C15945645   6.294   1.879   0.386  0.4201  0.0529  0.8954
  134MOL   O16045646   6.326   1.762   0.441 -0.5858  0.2134 -0.2988
  134MOL   C16145647   6.190   1.884   0.286 -0.0306  0.1382  0.8502
  134MOL   C16245648   6.157   2.005   0.227 -0.5353 -0.3175  0.6242
  134MOL   C16345649   6.050   2.310   0.255  0.4388  0.1078 -0.6363
  134MOL   H16445650   6.242   2.347   0.278  0.3365  0.1362  0.2272
  134MOL   H16545651   6.369   2.204   0.402 -3.3063  0.8233 -0.4808
  134MOL   H16645652   6.445   2.002   0.498  1.1115  4.0882 -0.7855
  134MOL   H16745653   6.371   1.766   0.523  0.8286 -0.4030 -1.0194
  134MOL   H16845654   6.126   1.800   0.263 -0.3546  0.5893  0.0915
  134MOL   H16945655   6.079   2.020   0.155 -1.9837 -1.6379  1.8869
  134MOL   H17045656   6.000   2.245   0.184  2.5614 -1.1730 -0.9805
  134MOL   H17145657   6.028   2.414   0.231 -2.1346 -0.5414 -1.2258
  134MOL   C17245658   5.988   2.280   0.400 -0.2269  0.1033  0.1232
  134MOL   C17345659   5.868   2.191   0.383 -0.3580  0.0691  0.1211
  134MOL   C17445660   5.771   2.227   0.291 -1.0227  0.1443 -0.3965
  134MOL   C17545661   5.664   2.133   0.276  0.8242 -0.5103  0.8092
  134MOL   C17645662   5.666   2.005   0.347 -0.2132  0.1574  0.0983
  134MOL   O17745663   5.560   1.923   0.318  0.5722  0.1104  0.0016
  134MOL   C17845664   5.767   1.974   0.440  0.0496 -0.3354 -0.4759
  134MOL   C17945665   5.875   2.064   0.447  0.2285 -0.0893  0.1378
  134MOL   C18045666   5.954   2.407   0.483 -0.3155  0.0174  0.1065
  134MOL   H18145667   6.065   2.226   0.454 -0.1211  0.2281  0.0969
  134MOL   H18245668   5.774   2.327   0.250  1.2029  0.2825  0.0474
  134MOL   H18345669   5.582   2.147   0.208  0.0187  3.0632  2.4074
  134MOL   H18445670   5.509   1.942   0.241 -1.2454  0.0767  1.1647
  134MOL   H18545671   5.767   1.884   0.500  0.7188 -1.2987 -1.9009
  134MOL   H18645672   5.954   2.052   0.519  0.0793  0.4046  0.3853
  134MOL   H18745673   5.872   2.384   0.552 -0.6779  0.1881 -0.2626
  134MOL   H18845674   5.910   2.481   0.417 -1.3153 -1.8436 -1.3522
  134MOL   C18945675   6.074   2.475   0.553 -0.6291  0.1211  0.0843
  134MOL   C19045676   6.057   2.628   0.585 -0.5787 -0.1474 -0.7755
  134MOL   C19145677   5.983   2.665   0.701 -0.6064  0.1995 -0.5666
  134MOL   C19245678   5.969   2.803   0.738  0.9601  0.8453 -0.0452
  134MOL   C19345679   6.029   2.902   0.652  0.5506 -0.3014  0.1553
  134MOL   O19445680   6.018   3.036   0.674 -1.0346  0.8851  0.7173
  134MOL   C19545681   6.096   2.865   0.539  0.0079  0.8344  0.9100
  134MOL   C19645682   6.108   2.726   0.498 -1.0163  0.0875 -0.8291
  134MOL   C19745683   6.109   2.384   0.674  0.1277  0.3353 -0.4817
  134MOL   H19845684   6.160   2.466   0.487 -1.0825  0.3194 -0.5353
  134MOL   H19945685   5.934   2.588   0.759  1.6123  1.1312  2.6905
  134MOL   H20045686   5.913   2.827   0.827 -1.7982 -1.0310 -1.2158
  134MOL   H20145687   5.981   3.054   0.759 -0.4835 -0.4354  1.2650
  134MOL   H20245688   6.145   2.940   0.479  1.1801 -1.3621 -0.9940
  134MOL   H20345689   6.165   2.701   0.409  0.1375  0.5971 -0.2453
  134MOL   H20445690   6.133   2.283   0.640 -1.1475 -0.3523  0.5754
  134MOL   H20545691   6.027   2.376   0.746  0.0687 -1.9926 -0.7673
  134MOL   C20645692   6.232   2.441   0.754 -0.4208 -0.2713 -0.6223
  134MOL   C20745693   6.355   2.461   0.672  0.1833 -0.7246 -0.1151
  134MOL   C20845694   6.427   2.345   0.622  0.0093 -0.4065  0.3754
  134MOL   C20945695   6.553   2.367   0.562 -0.0136  0.2009  0.0626
  134MOL   C21045696   6.613   2.487   0.534 -0.4029  0.1101  0.2063
  134MOL   O21145697   6.735   2.505   0.474 -0.1066  0.2642  0.1359
  134MOL   C21245698   6.536   2.600   0.569  0.6329  0.6291 -0.1759
  134MOL   C21345699   6.412   2.587   0.636 -0.4949 -0.0509  0.0971
  134MOL   C21445700   6.276   2.360   0.878  0.1891 -0.5928 -0.2439
  134MOL   H21545701   6.197   2.538   0.789 -2.7959 -1.7898  1.4109
  134MOL   H21645702   6.392   2.245   0.641 -3.0909  0.1855 -1.8354
  134MOL   H21745703   6.604   2.278   0.528  0.7942  0.1068  1.4599
  134MOL   H21845704   6.795   2.432   0.464  2.0611  1.6887  2.2440
  134MOL   H21945705   6.576   2.697   0.545  0.9044  0.9715  1.5980
  134MOL   H22045706   6.355   2.672   0.672 -1.5455 -0.3377 -0.8523
  134MOL   H22145707   6.378   2.385   0.907  0.0176 -0.1452 -0.0054
  134MOL   H22245708   6.259   2.255   0.857 -2.3812 -0.5016  1.2109
  134MOL   C22345709   6.188   2.387   1.000 -0.3201 -0.3670  0.1109
  134MOL   C22445710   6.214   2.525   1.058 -0.0127 -0.5614 -0.5153
  134MOL   C22545711   6.121   2.633   1.045 -0.0899  0.6575  0.0115
  134MOL   C22645712   6.151   2.762   1.094 -0.4352 -0.4610  0.2126
  134MOL   C22745713   6.282   2.784   1.144 -0.2049  0.1446 -0.2265
  134MOL   O22845714   6.317   2.910   1.179  0.3989  0.4986 -0.3190
  134MOL   C22945715   6.375   2.680   1.165  0.1666 -0.4247  0.4187
  134MOL   C23045716   6.339   2.553   1.122  0.2042 -0.7795 -0.3011
  134MOL   C23145717   6.212   2.275   1.096  0.1541  1.1625 -0.5997
  134MOL   H23245718   6.083   2.390   0.971 -0.8949 -1.1423  2.0589
  134MOL   H23345719   6.026   2.624   0.994  0.5334 -0.3327 -1.0002
  134MOL   H23445720   6.078   2.840   1.075  0.1692  0.3143  1.0147
  134MOL   H23545721   6.245   2.967   1.200 -0.5902 -0.8199 -0.0570
  134MOL   H23645722   6.462   2.692   1.229  0.0377 -1.9875  0.9134
  134MOL   H23745723   6.406   2.469   1.138 -0.1611 -0.6648  1.9346
  134MOL   H23845724   6.316   2.255   1.123  0.1455  1.7860 -0.0953
  134MOL   H23945725   6.182   2.327   1.187 -0.6143  0.2416 -0.3263
  134MOL   C24045726   6.127   2.147   1.084  0.5705  0.4154  0.2720
  134MOL   C24145727   6.203   2.039   0.988  0.2917 -0.1691  0.0615
  134MOL   C24245728   6.342   2.003   1.004 -0.2412 -0.2079  0.2971
  134MOL   C24345729   6.407   1.921   0.915  1.1907  0.5565 -0.4253
  134MOL   C24445730   6.333   1.874   0.805  0.5402 -0.1752  0.2904
  134MOL   O24545731   6.398   1.804   0.705 -0.3359 -0.1302  0.0909
  134MOL   C24645732   6.198   1.905   0.792 -0.5386  0.1368 -0.4513
  134MOL   C24745733   6.132   1.986   0.878 -0.1439 -0.2938 -0.7182
  134MOL   C24845734   6.089   2.071   1.210 -0.2039 -0.4250 -0.2892
  134MOL   H24945735   6.036   2.167   1.027 -0.3566 -1.9940  0.8448
  134MOL   H25045736   6.395   2.040   1.090  4.4253 -0.7064 -2.2222
  134MOL   H25145737   6.512   1.901   0.929  0.9728  0.4688  1.1944
  134MOL   H25245738   6.475   1.775   0.751  0.8669  1.3346 -0.9561
  134MOL   H25345739   6.142   1.848   0.719  1.6510  0.4048 -2.3698
  134MOL   H25445740   6.026   2.003   0.868 -0.7275 -2.9007  0.6767
  134MOL   H25545741   6.161   2.000   1.250  1.8824  1.9046  0.2099
  134MOL   H25645742   6.075   2.140   1.292 -1.6104 -1.9942  0.8139
  134MOL   C25745743   5.961   1.986   1.193 -0.5520  0.1969 -0.2281
  134MOL   C25845744   5.948   1.867   1.289 -1.3729  0.3522  1.7250
  134MOL   C25945745   5.909   1.741   1.236 -0.2697 -0.0536 -0.3739
  134MOL   C26045746   5.897   1.621   1.311 -0.3274  0.1051  0.4017
  134MOL   C26145747   5.933   1.634   1.445 -0.4946  0.5827  0.3165
  134MOL   O26245748   5.936   1.525   1.522  0.1946  0.3379 -0.1674
  134MOL   C26345749   5.982   1.753   1.502  0.6361 -0.2118 -0.6355
  134MOL   C26445750   5.984   1.874   1.424  0.1671 -0.5789  0.1737
  134MOL   C26545751   5.840   2.081   1.205  0.6924 -0.3197  0.1569
  134MOL   H26645752   5.962   1.943   1.092  1.3901  1.0908 -0.6108
  134MOL   H26745753   5.876   1.730   1.134  0.8028  1.8589 -0.9491
  134MOL   H26845754   5.859   1.522   1.291  0.5849 -0.4333  1.2650
  134MOL   H26945755   5.871   1.465   1.488  1.1353  0.2274 -1.8632
  134MOL   H27045756   6.017   1.755   1.604 -0.2013  3.2703 -0.3494
  134MOL   H27145757   6.019   1.967   1.466  0.4789 -1.2704  1.4667
  134MOL   H27245758   5.870   2.182   1.175  1.8897 -1.0074 -0.9855
  134MOL   H27345759   5.821   2.089   1.312 -1.1726  1.5415 -0.2778
  134MOL   C27445760   5.709   2.047   1.122  0.1802  0.4328  0.2507
  134MOL   C27545761   5.708   2.115   0.985 -0.3160 -0.3666 -0.0318
  134MOL   C27645762   5.703   2.032   0.876 -0.4975  0.1911 -0.1331
  134MOL   C27745763   5.678   2.089   0.749  0.0397 -0.6870 -0.0458
  134MOL   C27845764   5.674   2.226   0.732 -0.6498  0.3029  0.2655
  134MOL   O27945765   5.647   2.286   0.618  0.3388 -0.3286  0.5928
  134MOL   C28045766   5.697   2.314   0.836 -0.7507  0.6585 -0.5431
  134MOL   C28145767   5.704   2.255   0.969 -0.2832  0.4829 -0.7259
  134MOL   C28245768   5.582   2.086   1.202  0.1489 -0.2096 -0.1694
  134MOL   H28345769   5.705   1.938   1.118 -2.8318  0.5673 -1.3727
  134MOL   H28445770   5.716   1.925   0.887 -0.3511 -0.0485 -2.3189
  134MOL   H28545771   5.649   2.028   0.665 -1.3010  0.8215 -0.6915
  134MOL   H28645772   5.661   2.230   0.543 -0.2574 -0.9616  0.9527
  134MOL   H28745773   5.685   2.421   0.827  1.5410  0.8703 -1.5521
  134MOL   H28845774   5.709   2.317   1.058  1.6209  0.0159 -0.5013
  134MOL   H28945775   5.566   2.022   1.289 -2.6335 -0.5774 -0.8917
  134MOL   H29045776   5.598   2.181   1.253  0.2447 -2.2746  3.9008
  134MOL   C29145777   5.453   2.104   1.119  0.1745 -0.3805  0.1945
  134MOL   C29245778   5.349   2.180   1.201 -0.1130 -0.4320  0.0390
  134MOL   C29345779   5.319   2.135   1.332  0.3436  0.6003  0.6660
  134MOL   C29445780   5.243   2.212   1.413 -0.1741 -0.1154  0.5650
  134MOL   C29545781   5.174   2.327   1.364  0.1320  0.2707 -0.0399
  134MOL   O29645782   5.105   2.403   1.455  0.2338  0.2220  0.0800
  134MOL   C29745783   5.192   2.363   1.233 -0.4537 -0.3093  0.0772
  134MOL   C29845784   5.294   2.300   1.155 -0.0521 -0.2892 -0.0188
  134MOL   C29945785   5.409   1.971   1.064 -0.1814 -0.0799  0.4985
  134MOL   H30045786   5.471   2.173   1.037  0.1873  0.8186  1.2034
  134MOL   H30145787   5.369   2.051   1.379  1.1566  0.4799 -0.3926
  134MOL   H30245788   5.234   2.197   1.519  1.6940  0.0965  0.7532
  134MOL   H30345789   5.038   2.459   1.419  0.2920  0.3292  0.1382
  134MOL   H30445790   5.143   2.454   1.199 -3.2042 -1.5553  0.5815
  134MOL   H30545791   5.322   2.344   1.060  0.7775  1.3878  0.9684
  134MOL   H30645792   5.378   1.918   1.154 -3.0085 -0.4500 -0.6257
  134MOL   H30745793   5.487   1.913   1.014 -2.1867 -0.3709 -2.4242
  134MOL   C30845794   5.289   1.980   0.963 -0.0524  0.2103 -0.7028
  134MOL   C30945795   5.231   1.842   0.941 -0.0091  0.0820  0.2879
  134MOL   C31045796   5.131   1.791   1.031  0.4121 -0.2414  1.2787
  134MOL   C31145797   5.080   1.660   1.014 -0.7359 -0.0784  0.4307
  134MOL   C31245798   5.123   1.572   0.918 -0.0711  0.0995 -0.3172
  134MOL   O31345799   5.056   1.457   0.901  0.2908 -0.4681  0.2050
  134MOL   C31445800   5.219   1.624   0.823  0.2184 -0.0845 -0.0949
  134MOL   C31545801   5.268   1.757   0.835  0.4622 -0.1314  0.1323
  134MOL   C31645802   5.321   2.063   0.830  0.5206  0.2229 -0.7657
  134MOL   H31745803   5.220   2.044   1.018 -2.4090 -2.7954 -0.0295
  134MOL   H31845804   5.090   1.854   1.109 -1.8125 -0.6121  0.4564
  134MOL   H31945805   5.016   1.626   1.093  0.6111 -2.4481  0.5352
  134MOL   H32045806   5.081   1.410   0.824  0.0494 -1.3644  0.6654
  134MOL   H32145807   5.261   1.570   0.739 -0.6365 -0.1634 -0.4779
  134MOL   H32245808   5.330   1.799   0.757 -0.5872  1.2335  0.0042
  134MOL   H32345809   5.412   2.019   0.790  0.7966  0.1064 -0.0351
  134MOL   H32445810   5.354   2.164   0.854 -0.3199  0.5388 -0.9363
  134MOL   C32545811   5.203   2.088   0.741 -0.2110  0.2740  0.3001
  134MOL   C32645812   5.246   2.109   0.594  0.6393  0.4646  1.2963
  134MOL   C32745813   5.337   2.217   0.566 -0.3163 -0.6675 -0.0932
  134MOL   C32845814   5.362   2.255   0.431 -0.2931  0.3567 -0.7129
  134MOL   C32945815   5.317   2.172   0.328 -1.0355 -0.2407 -0.3631
  134MOL   O33045816   5.353   2.194   0.202 -0.9810  0.2487  0.2853
  134MOL   C33145817   5.237   2.055   0.358  0.3673  0.5664 -0.5581
  134MOL   C33245818   5.203   2.028   0.488  0.3426 -0.4001 -0.2294
  134MOL   C33345819   5.121   2.203   0.810  0.3229 -0.0332 -0.0728
  134MOL   H33445820   5.145   1.995   0.742 -1.0727  0.8119  0.7328
  134MOL   H33545821   5.363   2.289   0.642  0.0577 -0.4457 -0.4311
  134MOL   H33645822   5.434   2.336   0.420 -0.4689  0.7016  0.5783
  134MOL   H33745823   5.342   2.120   0.145 -0.8432 -1.9662  3.0251
  134MOL   H33845824   5.198   1.998   0.275  0.1504  0.9446 -0.7189
  134MOL   H33945825   5.122   1.955   0.489 -1.3253  1.4119  1.2182
  134MOL   H34045826   5.161   2.298   0.774 -1.5336  0.7923 -0.0189
  134MOL   H34145827   5.118   2.199   0.919  1.2851  0.3504 -0.0302
  134MOL   H34245828   5.017   2.202   0.778  0.1003 -0.6495  0.6611
  135MOL     C145829   7.500   6.352   5.485  0.3998  0.0362  0.3521
  135MOL     C245830   7.549   6.483   5.534 -0.5152  0.0716 -1.2202
  135MOL     C345831   7.586   6.584   5.441  0.5164 -0.1046  0.3433
  135MOL     C445832   7.641   6.707   5.483  0.0615 -0.2618 -0.5715
  135MOL     C545833   7.639   6.745   5.618 -0.6411 -0.5201  0.3180
  135MOL     O645834   7.671   6.871   5.651 -0.6326  0.0333 -0.3680
  135MOL     C745835   7.605   6.645   5.706 -0.3131 -1.1724 -0.5199
  135MOL     C845836   7.556   6.519   5.672  0.5816  0.6661  0.2890
  135MOL     C945837   7.617   6.247   5.489  0.5924  0.5206  0.1128
  135MOL    H1045838   7.428   6.324   5.562  0.9787 -1.8744  0.2448
  135MOL    H1145839   7.585   6.568   5.335 -2.3318  0.7056  0.2131
  135MOL    H1245840   7.665   6.775   5.403 -0.1893  0.7293  0.1794
  135MOL    H1345841   7.681   6.928   5.576  1.7170  1.3675  0.9072
  135MOL    H1445842   7.597   6.656   5.813 -0.6433 -0.1063 -0.6519
  135MOL    H1545843   7.528   6.454   5.754  0.2461  0.1685 -0.2147
  135MOL    H1645844   7.659   6.241   5.589 -0.1138 -1.4370  0.3104
  135MOL    H1745845   7.705   6.288   5.438 -0.1557 -0.2240 -1.8408
  135MOL    H1845846   7.453   6.353   5.387  0.9225  0.6489  0.1030
  135MOL    C1945847   7.576   6.104   5.432 -0.0658  0.1434 -0.2594
  135MOL    C2045848   7.458   6.049   5.512  0.5757 -0.4925 -0.3490
  135MOL    C2145849   7.469   6.041   5.648 -0.2577  0.4307 -0.1529
  135MOL    C2245850   7.346   6.008   5.716 -0.6595  0.1313 -0.5073
  135MOL    C2345851   7.231   5.974   5.652 -0.7882 -0.1025 -0.5114
  135MOL    O2445852   7.119   5.938   5.719  0.5270  0.1442 -0.3405
  135MOL    C2545853   7.233   5.969   5.520  0.7578 -0.6365  0.1126
  135MOL    C2645854   7.341   6.012   5.444 -0.1006  0.5461 -0.1213
  135MOL    C2745855   7.693   6.003   5.401 -0.3592  0.1556  0.0263
  135MOL    H2845856   7.538   6.122   5.331 -2.2512 -1.7820  0.1718
  135MOL    H2945857   7.558   6.054   5.707 -0.2286 -3.6422  0.8776
  135MOL    H3045858   7.361   6.004   5.823  0.3270  1.3238 -0.5939
  135MOL    H3145859   7.118   5.959   5.811  0.2562 -1.0960 -0.0579
  135MOL    H3245860   7.144   5.936   5.467  0.5393 -2.4741  1.5689
  135MOL    H3345861   7.339   6.012   5.336  0.1115  0.1484 -0.1273
  135MOL    H3445862   7.773   6.061   5.354  2.2732 -1.0194  2.8825
  135MOL    H3545863   7.675   5.940   5.315 -2.4592  0.8576 -0.0685
  135MOL    C3645864   7.739   5.911   5.518 -0.4644  0.3633  0.1442
  135MOL    C3745865   7.886   5.906   5.526  0.5969  0.1142 -0.9551
  135MOL    C3845866   7.962   5.865   5.419  0.0932  0.1736  0.0592
  135MOL    C3945867   0.064   5.883   5.412 -0.2355  0.5308 -0.2783
  135MOL    C4045868   0.129   5.931   5.521 -1.2193 -0.2165  0.6056
  135MOL    O4145869   0.267   5.944   5.522 -0.3471  0.1185 -0.5423
  135MOL    C4245870   0.053   5.966   5.645  0.1072  0.1782 -0.2086
  135MOL    C4345871   7.950   5.953   5.646  0.0150  0.0375 -0.1115
  135MOL    C4445872   7.675   5.766   5.505 -0.5781 -0.0685 -0.5481
  135MOL    H4545873   7.700   5.953   5.611 -2.9817 -0.9503 -0.2569
  135MOL    H4645874   7.903   5.826   5.338 -1.6190  1.0539  0.8453
  135MOL    H4745875   0.119   5.846   5.327 -0.0606  0.8368 -0.2993
  135MOL    H4845876   0.292   5.893   5.447 -1.1757  0.8980 -1.3524
  135MOL    H4945877   0.105   6.000   5.734  1.5837  1.4436 -1.5259
  135MOL    H5045878   7.894   5.994   5.729 -2.7692 -0.8784 -1.4690
  135MOL    H5145879   7.588   5.779   5.440 -1.0180 -0.3362 -0.0115
  135MOL    H5245880   7.736   5.703   5.440 -1.3620 -0.2287 -1.1408
  135MOL    C5345881   7.627   5.689   5.625  0.4396  0.5788 -0.8889
  135MOL    C5445882   7.517   5.585   5.581  0.0794 -0.0240  0.2987
  135MOL    C5545883   7.556   5.460   5.532  0.1802  0.8628 -0.4990
  135MOL    C5645884   7.462   5.385   5.458  0.3689 -0.0709 -0.8357
  135MOL    C5745885   7.335   5.437   5.420 -0.3418  0.1287  0.0262
  135MOL    O5845886   7.256   5.358   5.333 -0.5233  0.3565  0.0172
  135MOL    C5945887   7.300   5.562   5.462 -0.3896 -0.4660 -0.7464
  135MOL    C6045888   7.391   5.642   5.540 -0.4269 -0.5350  0.5387
  135MOL    C6145889   7.747   5.627   5.695 -0.1485  0.0796  1.0991
  135MOL    H6245890   7.583   5.757   5.698 -2.1302 -2.4907  0.5494
  135MOL    H6345891   7.654   5.418   5.550 -0.9389 -1.1620  1.1292
  135MOL    H6445892   7.474   5.280   5.439 -0.2011 -0.0885 -1.1335
  135MOL    H6545893   7.271   5.265   5.329 -1.4305  0.1461  1.3127
  135MOL    H6645894   7.203   5.600   5.435 -1.0467 -1.7031 -0.1343
  135MOL    H6745895   7.357   5.742   5.561 -0.3911 -0.2006 -0.9711
  135MOL    H6845896   7.806   5.716   5.713 -2.5766  1.7424  1.1197
  135MOL    H6945897   7.799   5.571   5.617  0.4541  1.1818  0.7016
  135MOL    C7045898   7.731   5.553   5.829 -0.5254 -0.1944  0.8473
  135MOL    C7145899   7.658   5.627   5.933 -0.1076 -0.2118  0.3355
  135MOL    C7245900   7.729   5.728   6.009 -0.1012  0.3630 -0.5691
  135MOL    C7345901   7.658   5.806   6.101  0.8171 -0.3672 -0.0184
  135MOL    C7445902   7.524   5.777   6.128  0.0669 -0.1568 -0.4861
  135MOL    O7545903   7.459   5.845   6.227 -0.1777 -0.0844 -0.0951
  135MOL    C7645904   7.454   5.676   6.061 -0.4776  0.1088 -0.0618
  135MOL    C7745905   7.518   5.607   5.958 -0.8910  0.1852 -1.0000
  135MOL    C7845906   7.861   5.493   5.875 -0.3116  0.0718  0.6034
  135MOL    H7945907   7.673   5.465   5.801 -2.7850  0.8496  2.1312
  135MOL    H8045908   7.835   5.749   5.999 -0.6221  3.0426 -0.8215
  135MOL    H8145909   7.715   5.884   6.149 -1.8614  0.7634  1.3844
  135MOL    H8245910   7.504   5.921   6.260 -0.8557  0.1225  0.3793
  135MOL    H8345911   7.352   5.653   6.088 -0.3641  0.1198  0.3709
  135MOL    H8445912   7.468   5.537   5.892  0.4912 -0.8933 -0.9400
  135MOL    H8545913   7.926   5.576   5.900  0.4746 -0.7408  1.3019
  135MOL    H8645914   7.913   5.447   5.790  1.8331 -0.1755  2.0194
  135MOL    C8745915   7.861   5.405   6.007  0.6334  0.2061 -0.4070
  135MOL    C8845916   7.985   5.436   6.095  0.1464 -0.1627  0.8063
  135MOL    C8945917   0.071   5.482   6.040 -0.5844 -1.0022  0.1723
  135MOL    C9045918   0.178   5.503   6.129  0.4051  0.3327  0.1878
  135MOL    C9145919   0.160   5.484   6.267 -0.1537 -0.5727 -0.6030
  135MOL    O9245920   0.263   5.508   6.350 -0.0418  0.5185 -0.1234
  135MOL    C9345921   0.033   5.462   6.321  0.2212 -0.3796  0.5196
  135MOL    C9445922   7.960   5.442   6.234 -0.2275  0.2580 -0.7042
  135MOL    C9545923   7.869   5.249   5.978 -0.6439  0.4259 -0.0315
  135MOL    H9645924   7.775   5.434   6.067  1.0912  0.1202  0.2978
  135MOL    H9745925   0.084   5.488   5.933  1.1330 -3.1599  0.2159
  135MOL    H9845926   0.271   5.525   6.079 -0.4286 -0.4164 -1.7539
  135MOL    H9945927   0.294   5.434   6.401 -0.8421 -0.4028 -0.9730
  135MOL   H10045928   0.012   5.460   6.427 -0.1704 -0.7526  0.4342
  135MOL   H10145929   7.865   5.425   6.283 -0.7087 -0.2046 -1.7841
  135MOL   H10245930   7.951   5.221   5.913 -0.9455 -1.2573  0.2903
  135MOL   H10345931   7.875   5.196   6.074 -2.2428  0.4250  0.0793
  135MOL   C10445932   7.745   5.177   5.916  0.2985 -0.2634 -0.3022
  135MOL   C10545933   7.618   5.204   5.993 -0.0633 -0.6134 -0.2311
  135MOL   C10645934   7.613   5.186   6.136 -0.0098  1.1447  0.4401
  135MOL   C10745935   7.492   5.190   6.205  0.3723 -0.7384  0.5938
  135MOL   C10845936   7.376   5.226   6.137 -0.5804  1.0488 -1.4011
  135MOL   O10945937   7.260   5.228   6.209  0.3313 -0.2441  0.0605
  135MOL   C11045938   7.381   5.255   6.000 -0.3310 -0.0079 -0.0225
  135MOL   C11145939   7.504   5.245   5.928  0.2208  0.7622 -0.7479
  135MOL   C11245940   7.768   5.024   5.901  0.0411 -0.0479  0.2149
  135MOL   H11345941   7.729   5.217   5.816 -1.2665  2.9578  1.1843
  135MOL   H11445942   7.700   5.162   6.195  0.6116 -1.8262 -1.5893
  135MOL   H11545943   7.494   5.171   6.311 -0.8049 -1.5839  0.4754
  135MOL   H11645944   7.259   5.292   6.279  2.1497  1.9992 -1.8871
  135MOL   H11745945   7.293   5.289   5.949 -0.8277 -0.5841  0.4529
  135MOL   H11845946   7.502   5.272   5.824 -2.7550 -0.0938 -0.9556
  135MOL   H11945947   7.761   4.976   5.998 -2.7798  0.5743  0.3521
  135MOL   H12045948   7.868   5.001   5.864 -0.9306 -3.0722 -0.6588
  135MOL   C12145949   7.658   4.951   5.821  0.2409 -0.6639 -0.1977
  135MOL   C12245950   7.720   4.841   5.733  0.4388 -0.4552  0.3884
  135MOL   C12345951   7.762   4.725   5.796  0.3486  0.1357  0.4794
  135MOL   C12445952   7.819   4.623   5.713 -0.0265  0.0200 -0.2113
  135MOL   C12545953   7.826   4.640   5.574 -0.3107 -0.4747 -0.2259
  135MOL   O12645954   7.867   4.532   5.498 -0.4969 -0.0139  0.0248
  135MOL   C12745955   7.782   4.758   5.515  0.6361  0.1760 -0.4637
  135MOL   C12845956   7.729   4.861   5.593  0.2381 -0.0878  0.1917
  135MOL   C12945957   7.529   4.904   5.894  0.6046  0.0598 -0.0349
  135MOL   H13045958   7.616   5.021   5.748  1.3023 -0.9181 -1.0683
  135MOL   H13145959   7.767   4.710   5.903  2.1084  0.0201  0.3974
  135MOL   H13245960   7.864   4.539   5.764 -0.9496 -1.8172 -2.3656
  135MOL   H13345961   7.826   4.543   5.413 -0.6036  1.5096  0.2642
  135MOL   H13445962   7.809   4.777   5.412  2.1211  4.0638  0.5604
  135MOL   H13545963   7.709   4.960   5.554  0.9058 -0.4182 -1.0276
  135MOL   H13645964   7.480   4.990   5.940  0.8796  0.2465 -0.0900
  135MOL   H13745965   7.556   4.835   5.973  1.5657 -1.6813 -1.8328
  135MOL   C13845966   7.418   4.832   5.820 -0.7701 -0.2866  0.2731
  135MOL   C13945967   7.369   4.908   5.700  0.4141 -0.0545  0.7272
  135MOL   C14045968   7.318   5.037   5.705 -0.0963 -0.2215 -0.5455
  135MOL   C14145969   7.278   5.099   5.584 -0.4248 -0.0508 -0.3328
  135MOL   C14245970   7.297   5.036   5.460 -0.6856  0.0083 -0.5664
  135MOL   O14345971   7.245   5.087   5.348 -0.0314  0.2351  0.0377
  135MOL   C14445972   7.350   4.907   5.457  0.3071 -0.7077  0.5336
  135MOL   C14545973   7.392   4.840   5.577 -0.1041 -0.1207  0.5784
  135MOL   C14645974   7.298   4.790   5.910  0.4671  0.8510  0.6071
  135MOL   H14745975   7.451   4.736   5.779 -1.4265  0.1807 -1.4146
  135MOL   H14845976   7.307   5.085   5.800 -1.2871 -0.0299 -0.7775
  135MOL   H14945977   7.229   5.195   5.593 -1.1141 -0.5619  1.4982
  135MOL   H15045978   7.282   5.041   5.274  0.0282  0.0094  0.2082
  135MOL   H15145979   7.369   4.858   5.362 -0.5376  0.2073 -0.1145
  135MOL   H15245980   7.433   4.741   5.561 -1.5330 -0.4149 -1.4323
  135MOL   H15345981   7.239   4.876   5.939 -1.2805  0.0241 -0.4251
  135MOL   H15445982   7.334   4.753   6.007  1.0739  1.4770  0.6254
  135MOL   C15545983   7.208   4.681   5.843 -0.1130 -0.0393 -0.4333
  135MOL   C15645984   7.073   4.686   5.904  0.0861  0.2601  0.3251
  135MOL   C15745985   7.057   4.689   6.041  0.0650 -0.1735  0.1497
  135MOL   C15845986   6.932   4.712   6.099  0.3721 -0.6657  0.8692
  135MOL   C15945987   6.825   4.750   6.015 -0.5243 -0.0208 -0.2007
  135MOL   O16045988   6.709   4.790   6.072 -0.0756 -0.0629  0.0984
  135MOL   C16145989   6.844   4.752   5.876 -0.7244 -0.3003 -0.5053
  135MOL   C16245990   6.966   4.717   5.826  0.2475 -0.5310  0.0663
  135MOL   C16345991   7.280   4.543   5.860 -0.3154 -0.2694 -0.4226
  135MOL   H16445992   7.191   4.712   5.740 -1.4172 -0.2296 -0.2829
  135MOL   H16545993   7.141   4.670   6.106 -0.6133 -1.1399  0.7529
  135MOL   H16645994   6.929   4.742   6.203 -0.7758  3.2342 -0.1863
  135MOL   H16745995   6.648   4.799   6.001  1.2919  0.8306 -1.0030
  135MOL   H16845996   6.770   4.785   5.805 -1.3340 -0.3618  0.0961
  135MOL   H16945997   6.972   4.718   5.718 -0.3843 -1.0502  0.0208
  135MOL   H17045998   7.293   4.515   5.964  0.8908 -0.5232 -0.6280
  135MOL   H17145999   7.384   4.552   5.829  1.2144 -4.1129  3.2403
  135MOL   C17246000   7.206   4.433   5.779 -0.8681 -0.2473  0.7150
  135MOL   C17346001   7.260   4.297   5.824 -0.6434  0.7337 -1.1393
  135MOL   C17446002   7.178   4.201   5.890  0.1220 -0.4922 -0.6840
  135MOL   C17546003   7.221   4.065   5.904 -0.0145  0.0950  0.2485
  135MOL   C17646004   7.348   4.027   5.854 -0.3611 -0.5472  0.4204
  135MOL   O17746005   7.390   3.900   5.887 -0.0808  0.5648  0.6744
  135MOL   C17846006   7.436   4.129   5.813 -1.2678  0.4447  0.4480
  135MOL   C17946007   7.397   4.260   5.797 -0.6015 -0.5851 -0.1772
  135MOL   C18046008   7.211   4.447   5.621  0.2652 -0.2494 -0.5604
  135MOL   H18146009   7.099   4.435   5.801 -0.8946  0.9878  0.5141
  135MOL   H18246010   7.075   4.226   5.909 -0.6491 -3.4973 -0.5312
  135MOL   H18346011   7.157   3.992   5.953  0.6818  0.0675  1.1308
  135MOL   H18446012   7.322   3.845   5.923 -0.8301 -0.7301 -2.4969
  135MOL   H18546013   7.537   4.096   5.791 -1.5740  0.7068 -1.4281
  135MOL   H18646014   7.477   4.317   5.752  0.5947 -0.4309  2.0717
  135MOL   H18746015   7.313   4.419   5.594  2.5557  3.4974  3.5227
  135MOL   H18846016   7.214   4.551   5.590  0.9836  0.1446  0.7986
  135MOL   C18946017   7.092   4.370   5.547 -0.1459 -0.0550 -0.2958
  135MOL   C19046018   6.953   4.424   5.572  1.1024 -0.4532 -0.2293
  135MOL   C19146019   6.859   4.357   5.654 -0.1517 -0.3863 -0.1168
  135MOL   C19246020   6.736   4.408   5.697 -0.4293 -0.4424  0.3953
  135MOL   C19346021   6.702   4.538   5.642 -0.9227  0.7056  0.1727
  135MOL   O19446022   6.601   4.606   5.693  0.3433  0.3111 -0.1687
  135MOL   C19546023   6.778   4.606   5.548 -0.0174 -0.4207  0.2103
  135MOL   C19646024   6.909   4.550   5.517  0.7599 -0.0645  0.5570
  135MOL   C19746025   7.116   4.359   5.396  0.1391 -0.0069  0.2948
  135MOL   H19846026   7.087   4.267   5.583  1.8480 -0.0652  0.0532
  135MOL   H19946027   6.904   4.273   5.704 -3.4585 -1.6150  0.8880
  135MOL   H20046028   6.691   4.360   5.782  1.2666  0.6185  1.9273
  135MOL   H20146029   6.561   4.587   5.776  1.4663 -0.2290  0.2512
  135MOL   H20246030   6.756   4.709   5.521 -1.2183 -0.4590  1.0075
  135MOL   H20346031   6.965   4.602   5.441  0.0573  1.8562  1.3243
  135MOL   H20446032   7.149   4.456   5.359 -0.3205 -0.3772 -1.1177
  135MOL   H20546033   7.028   4.327   5.340 -0.3265 -0.4680  1.2698
  135MOL   C20646034   7.224   4.251   5.355 -0.2735 -0.2550 -0.3549
  135MOL   C20746035   7.356   4.317   5.332  0.2299  0.4487 -0.0449
  135MOL   C20846036   7.372   4.395   5.220  1.0762 -0.3210  0.0950
  135MOL   C20946037   7.492   4.461   5.196  0.0199 -0.1837 -0.0829
  135MOL   C21046038   7.599   4.447   5.288  0.7612 -0.8304 -0.7566
  135MOL   O21146039   7.721   4.497   5.256  0.0632 -0.0417  0.1681
  135MOL   C21246040   7.587   4.365   5.403  0.0853  0.6300 -0.6144
  135MOL   C21346041   7.460   4.299   5.421 -0.5392 -0.3616  0.6870
  135MOL   C21446042   7.185   4.164   5.237 -0.2133 -0.4735  0.4304
  135MOL   H21546043   7.239   4.187   5.442  0.0387 -0.3767 -0.4978
  135MOL   H21646044   7.289   4.400   5.151  0.4627  1.6268  0.9438
  135MOL   H21746045   7.504   4.521   5.106 -0.6733  1.2918  0.7876
  135MOL   H21846046   7.726   4.550   5.178  3.3609  0.0004  0.3446
  135MOL   H21946047   7.669   4.345   5.470 -0.9801  0.4143  0.6378
  135MOL   H22046048   7.443   4.235   5.507  0.4355 -1.1057  0.3196
  135MOL   H22146049   7.265   4.165   5.163 -1.2159  1.5945 -0.6523
  135MOL   H22246050   7.112   4.216   5.174 -0.9330  0.6321  2.1471
  135MOL   C22346051   7.148   4.020   5.271  0.0605 -0.5758  0.1157
  135MOL   C22446052   7.186   3.928   5.159 -0.0245 -0.4518  0.0107
  135MOL   C22546053   7.287   3.830   5.184  0.4901  0.2033  0.4994
  135MOL   C22646054   7.335   3.757   5.074 -0.1224  0.2068 -0.2511
  135MOL   C22746055   7.281   3.775   4.945  0.5975 -0.3976  0.0598
  135MOL   O22846056   7.325   3.712   4.832  0.1530 -0.3226  0.2740
  135MOL   C22946057   7.181   3.873   4.924  0.2424 -0.3459  0.4149
  135MOL   C23046058   7.127   3.942   5.033 -0.2036  0.4646 -0.2188
  135MOL   C23146059   6.990   4.013   5.292  0.3915  0.0440 -0.3155
  135MOL   H23246060   7.197   3.984   5.361  0.3900 -3.1923 -1.0628
  135MOL   H23346061   7.334   3.811   5.279 -0.4079 -0.9142  0.7227
  135MOL   H23446062   7.413   3.683   5.089  1.5846  2.3351  1.6074
  135MOL   H23546063   7.269   3.719   4.756 -0.2735  0.6467  0.6613
  135MOL   H23646064   7.127   3.877   4.831 -1.0701  0.2198  1.1879
  135MOL   H23746065   7.039   4.003   5.015 -1.6188 -1.8738 -1.4758
  135MOL   H23846066   6.958   4.097   5.353  2.5313  0.2094  0.6438
  135MOL   H23946067   6.932   4.026   5.200  0.1338  0.3774 -0.1052
  135MOL   C24046068   6.952   3.885   5.382  0.3336 -0.0193 -0.1856
  135MOL   C24146069   6.842   3.928   5.484  0.6917  0.5906 -0.5813
  135MOL   C24246070   6.706   3.937   5.446 -0.6655 -0.3589  0.4821
  135MOL   C24346071   6.603   3.963   5.534  0.1268  0.3599 -0.2896
  135MOL   C24446072   6.630   3.983   5.671 -1.0394 -0.0249  0.0429
  135MOL   O24546073   6.526   4.002   5.755 -0.8453  0.8027 -0.1399
  135MOL   C24646074   6.762   3.971   5.716 -0.2675  0.0678  0.1946
  135MOL   C24746075   6.870   3.944   5.625  0.5523 -0.3622 -0.2533
  135MOL   C24846076   6.912   3.759   5.293  0.1069 -0.8595  0.5926
  135MOL   H24946077   7.037   3.851   5.442  0.4270 -4.3864 -2.6304
  135MOL   H25046078   6.688   3.921   5.341  2.4423 -3.4733  0.3106
  135MOL   H25146079   6.502   3.970   5.498 -0.0932  1.1647  0.4792
  135MOL   H25246080   6.459   4.026   5.693  0.6378 -1.2341 -2.6178
  135MOL   H25346081   6.778   3.963   5.823  1.7664  1.3459  0.0103
  135MOL   H25446082   6.969   3.933   5.666  0.7858  0.7924 -0.4909
  135MOL   H25546083   6.848   3.798   5.214  0.2896 -3.2179 -0.7617
  135MOL   H25646084   7.001   3.731   5.237  0.3041  1.1267 -0.1335
  135MOL   C25746085   6.844   3.634   5.358  0.2266  0.5823 -0.3536
  135MOL   C25846086   6.784   3.552   5.247 -0.7416 -0.0399 -0.6527
  135MOL   C25946087   6.862   3.464   5.162 -0.7866 -0.4410  0.5659
  135MOL   C26046088   6.800   3.375   5.071  0.1286  0.6031 -1.0077
  135MOL   C26146089   6.665   3.389   5.049  0.2290 -0.4677 -0.0523
  135MOL   O26246090   6.602   3.323   4.953 -0.7398 -0.0015  0.3163
  135MOL   C26346091   6.583   3.469   5.127 -0.0485  0.4722  0.1705
  135MOL   C26446092   6.639   3.559   5.225  0.3867  0.6369  0.2954
  135MOL   C26546093   6.926   3.553   5.462 -0.7573 -0.4555  0.3852
  135MOL   H26646094   6.763   3.665   5.424  0.6140  0.5183  0.1535
  135MOL   H26746095   6.970   3.460   5.170 -0.7824 -0.6508  0.3976
  135MOL   H26846096   6.858   3.308   5.009 -0.1805 -1.5817  0.9832
  135MOL   H26946097   6.512   3.348   4.938 -1.6254 -1.4097  3.0992
  135MOL   H27046098   6.477   3.467   5.111 -0.0584  1.0568  0.1665
  135MOL   H27146099   6.571   3.622   5.280 -0.6020 -0.2721  0.1407
  135MOL   H27246100   6.963   3.625   5.534 -0.7862  1.1167 -1.1333
  135MOL   H27346101   7.023   3.530   5.419 -1.2903  1.1896 -1.8072
  135MOL   C27446102   6.847   3.433   5.528 -0.2184  0.0397  0.1963
  135MOL   C27546103   6.724   3.485   5.605 -0.5526  1.0106 -0.2563
  135MOL   C27646104   6.603   3.416   5.582  0.5752 -0.4586  0.2226
  135MOL   C27746105   6.481   3.463   5.646  0.4451  0.1286  0.1172
  135MOL   C27846106   6.480   3.577   5.723 -0.1027  0.1824  0.2053
  135MOL   O27946107   6.370   3.618   5.791 -0.2867  0.0057  0.1944
  135MOL   C28046108   6.603   3.648   5.742  0.3488  0.5147 -0.1517
  135MOL   C28146109   6.727   3.606   5.685 -0.1615 -0.4677 -0.8688
  135MOL   C28246110   6.931   3.345   5.631 -0.5268 -0.5533 -0.5426
  135MOL   H28346111   6.807   3.374   5.445  0.4340  1.0536 -0.8419
  135MOL   H28446112   6.595   3.330   5.518 -0.8545  0.6504 -1.1178
  135MOL   H28546113   6.386   3.414   5.632 -0.1719  0.8984  1.5388
  135MOL   H28646114   6.405   3.639   5.876  3.1148 -0.3500 -0.9998
  135MOL   H28746115   6.603   3.728   5.814 -0.1552 -1.0600  1.6721
  135MOL   H28846116   6.824   3.645   5.710 -0.8408 -0.8039  2.5444
  135MOL   H28946117   6.981   3.422   5.690 -3.0387  0.6171  0.1476
  135MOL   H29046118   6.865   3.297   5.703 -1.0184 -0.5129 -0.9605
  135MOL   C29146119   7.040   3.261   5.578  0.4196 -0.2649  0.1838
  135MOL   C29246120   7.175   3.333   5.555  0.1716  0.0896 -0.3550
  135MOL   C29346121   7.220   3.344   5.420 -0.2507 -0.1510  0.4185
  135MOL   C29446122   7.343   3.402   5.389  0.1654  0.6079 -0.1126
  135MOL   C29546123   7.416   3.460   5.494  1.0495 -0.4530 -0.9420
  135MOL   O29646124   7.526   3.534   5.470 -0.0072  0.0904  0.6677
  135MOL   C29746125   7.369   3.451   5.626  0.5895  0.5122 -0.4555
  135MOL   C29846126   7.251   3.389   5.660 -0.3214  0.4628  0.5821
  135MOL   C29946127   6.992   3.166   5.469 -0.2276 -0.5140  0.2776
  135MOL   H30046128   7.068   3.201   5.665 -1.0599 -0.8028  0.3028
  135MOL   H30146129   7.164   3.309   5.335  0.6354 -0.0933 -0.1985
  135MOL   H30246130   7.380   3.414   5.289 -0.7479  0.0685 -0.5250
  135MOL   H30346131   7.546   3.592   5.542  1.1940 -1.2740  1.4644
  135MOL   H30446132   7.430   3.498   5.702  0.1392  1.8323 -0.9044
  135MOL   H30546133   7.212   3.375   5.760  1.3773  1.5378  1.4234
  135MOL   H30646134   7.077   3.107   5.434 -0.6733 -0.4147 -1.0061
  135MOL   H30746135   6.965   3.223   5.380  0.7997  0.6634  0.7217
  135MOL   C30846136   6.879   3.068   5.507  0.2185  0.3311 -0.7874
  135MOL   C30946137   6.929   2.969   5.608 -0.5546 -0.4819  0.5500
  135MOL   C31046138   6.895   2.965   5.743 -0.1241  0.2068  0.7028
  135MOL   C31146139   6.938   2.869   5.830 -0.2574 -0.0344 -0.3638
  135MOL   C31246140   7.024   2.770   5.787 -0.2721  0.5051  0.6664
  135MOL   O31346141   7.060   2.665   5.867  0.7136  0.0450 -0.2559
  135MOL   C31446142   7.073   2.771   5.654  0.8856 -0.6090  0.1172
  135MOL   C31546143   7.024   2.870   5.565 -0.7016  0.3714 -0.4097
  135MOL   C31646144   6.832   3.003   5.374  0.0081 -0.3523  0.5455
  135MOL   H31746145   6.790   3.116   5.548 -0.9606 -0.7520 -2.0607
  135MOL   H31846146   6.828   3.042   5.779 -1.2995  0.3859 -1.7564
  135MOL   H31946147   6.906   2.866   5.933 -0.7560  1.1846 -0.4702
  135MOL   H32046148   7.151   2.651   5.844  1.0933  0.8054  0.7780
  135MOL   H32146149   7.129   2.689   5.611  0.2020 -0.4755 -1.0489
  135MOL   H32246150   7.046   2.867   5.460 -0.6215 -0.3031 -0.3746
  135MOL   H32346151   6.915   2.951   5.325  0.1022 -0.5943  0.9544
  135MOL   H32446152   6.799   3.085   5.311 -1.2986  2.0338  4.1998
  135MOL   C32546153   6.696   2.916   5.379  0.8416  0.4488 -0.3208
  135MOL   C32646154   6.566   2.990   5.422  0.2303  0.1396 -0.4737
  135MOL   C32746155   6.508   2.967   5.546  0.0803  0.1226  0.0233
  135MOL   C32846156   6.390   3.038   5.581 -0.4437  0.1588 -0.6759
  135MOL   C32946157   6.342   3.142   5.498 -0.1830  0.3329 -0.9764
  135MOL   O33046158   6.226   3.205   5.538  0.4538 -0.0364  0.2129
  135MOL   C33146159   6.406   3.166   5.372 -0.3905 -1.1168 -0.7157
  135MOL   C33246160   6.518   3.090   5.331 -0.1745  0.4947 -0.5655
  135MOL   C33346161   6.715   2.782   5.450  0.2425  0.3095 -0.3702
  135MOL   H33446162   6.682   2.901   5.272  1.1005  2.2867 -0.6317
  135MOL   H33546163   6.549   2.894   5.615 -0.8903 -0.5179 -0.0713
  135MOL   H33646164   6.353   3.020   5.681 -1.7629 -1.1667 -1.3750
  135MOL   H33746165   6.203   3.205   5.629  0.9848 -0.0374  0.3419
  135MOL   H33846166   6.353   3.245   5.320  2.1957  3.2928  3.0647
  135MOL   H33946167   6.563   3.097   5.233  0.6373 -0.5155 -0.2700
  135MOL   H34046168   6.803   2.724   5.421  0.1574  0.2568 -0.5205
  135MOL   H34146169   6.626   2.721   5.435  1.1705 -0.8270 -1.3981
  135MOL   H34246170   6.733   2.798   5.556  1.4769 -0.1313 -0.4984
  136MOL     C146171   2.638   7.375   1.408 -0.0245 -0.0922  0.2117
  136MOL     C246172   2.550   7.417   1.290 -0.2578 -0.1011 -0.5344
  136MOL     C346173   2.407   7.434   1.297 -0.5597  0.3065 -0.1490
  136MOL     C446174   2.329   7.477   1.186 -0.2645  0.0867 -0.1081
  136MOL     C546175   2.395   7.499   1.061  0.1142 -0.0172 -0.3663
  136MOL     O646176   2.330   7.549   0.953 -0.0132 -0.2209 -0.1923
  136MOL     C746177   2.533   7.468   1.054  0.4940  0.5298 -0.6411
  136MOL     C846178   2.607   7.433   1.167 -0.4569  0.1950 -0.4038
  136MOL     C946179   2.760   7.472   1.435  0.0577 -0.5919  0.1984
  136MOL    H1046180   2.583   7.360   1.501 -0.1855 -1.5210 -0.1064
  136MOL    H1146181   2.366   7.404   1.392 -1.7440  1.0040 -0.4342
  136MOL    H1246182   2.225   7.498   1.206  0.4972  2.3956  1.8141
  136MOL    H1346183   2.257   7.602   0.981  1.8729  2.7039 -0.5982
  136MOL    H1446184   2.582   7.460   0.958 -0.5640 -1.1182 -1.0463
  136MOL    H1546185   2.708   7.400   1.146 -0.6755 -1.1551  0.6168
  136MOL    H1646186   2.834   7.454   1.357  1.4551 -0.2993  1.4365
  136MOL    H1746187   2.813   7.445   1.527 -0.5708  0.8116  0.9798
  136MOL    H1846188   2.673   7.273   1.398  0.7676  0.1599  0.3582
  136MOL    C1946189   2.719   7.622   1.429 -0.4535 -0.1986  0.8903
  136MOL    C2046190   2.836   7.724   1.427 -0.9991  0.1133  0.2754
  136MOL    C2146191   2.808   7.854   1.380  0.0625 -0.4235 -0.3814
  136MOL    C2246192   2.911   7.952   1.377 -0.1903 -0.0340 -0.5649
  136MOL    C2346193   3.045   7.915   1.414 -1.0361 -0.1851  0.2682
  136MOL    O2446194   3.155   8.005   1.405  0.5285  0.4913  0.0594
  136MOL    C2546195   3.071   7.780   1.454  0.9768  0.8265 -0.2522
  136MOL    C2646196   2.967   7.689   1.470 -0.3442 -0.0054  0.4996
  136MOL    C2746197   2.608   7.663   1.530 -0.7743 -0.3573  0.2043
  136MOL    H2846198   2.682   7.649   1.330 -1.3089 -0.2965  1.1774
  136MOL    H2946199   2.708   7.880   1.351  0.5437  1.2087 -0.5998
  136MOL    H3046200   2.885   0.015   1.350 -0.5689 -0.6946 -2.6993
  136MOL    H3146201   3.233   7.953   1.418 -0.4651 -1.3664 -1.1879
  136MOL    H3246202   3.161   7.748   1.504  0.1401 -1.7835 -0.3773
  136MOL    H3346203   2.978   7.589   1.510 -1.3594  0.2673  1.4958
  136MOL    H3446204   2.652   7.741   1.592 -2.0988  0.2070  0.4554
  136MOL    H3546205   2.593   7.587   1.606  0.3866 -0.2733  0.5228
  136MOL    C3646206   2.464   7.702   1.480  0.3154  0.4278  0.2693
  136MOL    C3746207   2.456   7.857   1.464  0.9350  0.6593 -0.0453
  136MOL    C3846208   2.477   7.931   1.575  0.3734 -0.0506 -0.3064
  136MOL    C3946209   2.486   0.032   1.569 -0.2025 -0.4632  0.0046
  136MOL    C4046210   2.458   0.100   1.447 -0.4482 -0.4903 -0.2630
  136MOL    O4146211   2.449   0.229   1.438  0.1671  0.3884 -0.3284
  136MOL    C4246212   2.433   0.018   1.335  0.3113  0.1779  0.1449
  136MOL    C4346213   2.434   7.917   1.342 -0.0395  0.1959  0.0275
  136MOL    C4446214   2.349   7.651   1.572 -0.1950  0.5190 -0.0106
  136MOL    H4546215   2.464   7.654   1.382  0.0723 -0.0181  0.4878
  136MOL    H4646216   2.495   7.885   1.671 -1.0285  0.4942  0.2349
  136MOL    H4746217   2.503   0.083   1.664 -1.0449 -1.1982  0.5610
  136MOL    H4846218   2.421   0.269   1.357 -3.0948  1.1581  1.1083
  136MOL    H4946219   2.426   0.068   1.239 -1.3729  0.6368  0.4904
  136MOL    H5046220   2.414   7.871   1.246  1.1165  0.7826 -0.4974
  136MOL    H5146221   2.374   7.547   1.596 -1.3348  0.4591  0.9291
  136MOL    H5246222   2.354   7.698   1.671  1.7721  0.4540 -0.0494
  136MOL    C5346223   2.206   7.649   1.513  0.8831  0.7331 -0.3669
  136MOL    C5446224   2.122   7.530   1.569  0.4286  0.3520 -0.1963
  136MOL    C5546225   2.111   7.503   1.705 -0.4926 -0.2617  0.4467
  136MOL    C5646226   2.020   7.398   1.747 -0.4004 -0.8369  0.4753
  136MOL    C5746227   1.966   7.309   1.655  0.0036  0.1695 -0.5050
  136MOL    O5846228   1.890   7.203   1.697 -0.2285 -0.6636  0.0625
  136MOL    C5946229   1.992   7.325   1.518 -0.2720  0.7145  0.1297
  136MOL    C6046230   2.066   7.438   1.478  0.2058  0.1515  0.3560
  136MOL    C6146231   2.121   7.777   1.527 -0.4351  0.2503 -0.5084
  136MOL    H6246232   2.217   7.625   1.408 -0.4098 -1.1158 -0.1179
  136MOL    H6346233   2.155   7.557   1.789 -2.6330 -1.3129  2.2969
  136MOL    H6446234   2.007   7.376   1.852 -0.0812 -1.3962  0.4008
  136MOL    H6546235   1.898   7.182   1.789  0.1664 -2.2563 -0.3139
  136MOL    H6646236   1.959   7.254   1.444 -1.1355 -0.1213  1.2947
  136MOL    H6746237   2.079   7.446   1.371  2.0406 -0.8006  0.4753
  136MOL    H6846238   2.183   7.866   1.515  2.9768 -1.4416  3.2178
  136MOL    H6946239   2.089   7.772   1.631 -2.2500  1.2151 -0.9984
  136MOL    C7046240   1.993   7.774   1.447  0.3280  0.1075 -0.7731
  136MOL    C7146241   2.026   7.797   1.297  0.1636 -0.6976  0.1514
  136MOL    C7246242   2.096   7.917   1.259 -0.0452 -0.1172  0.2835
  136MOL    C7346243   2.139   7.927   1.124 -0.7950 -0.3979 -0.2692
  136MOL    C7446244   2.108   7.827   1.027 -0.5719  0.3844 -0.1953
  136MOL    O7546245   2.171   7.836   0.906 -0.6236 -0.2736 -0.5189
  136MOL    C7646246   2.024   7.714   1.059 -0.1037 -0.6369  0.5437
  136MOL    C7746247   1.989   7.703   1.194  0.5929  0.6459 -0.3385
  136MOL    C7846248   1.895   7.879   1.481  0.5944  0.2894  0.3399
  136MOL    H7946249   1.943   7.679   1.457  3.2660 -1.2856  1.3892
  136MOL    H8046250   2.115   7.986   1.341 -0.7986  0.6137 -0.1521
  136MOL    H8146251   2.183   8.022   1.097  0.7686 -1.0932 -0.1809
  136MOL    H8246252   2.249   7.890   0.906 -0.3273 -0.6972 -0.2549
  136MOL    H8346253   2.007   7.631   0.991 -1.5914  0.4369 -0.4275
  136MOL    H8446254   1.939   7.614   1.228  2.2498 -1.4196 -3.1065
  136MOL    H8546255   1.836   7.911   1.395  0.0980  0.4864  0.7560
  136MOL    H8646256   1.950   7.965   1.518  0.3488  0.3216  0.6225
  136MOL    C8746257   1.796   7.834   1.588 -0.4120 -0.1881 -0.2006
  136MOL    C8846258   1.685   7.743   1.531 -0.4055 -0.1088 -0.3003
  136MOL    C8946259   1.601   7.794   1.428 -0.5439  0.4366  0.0194
  136MOL    C9046260   1.509   7.706   1.355 -0.5579  0.1958 -0.3705
  136MOL    C9146261   1.492   7.573   1.411  0.2320 -0.4287  0.0799
  136MOL    O9246262   1.393   7.498   1.352 -0.9239  0.2212  0.6195
  136MOL    C9346263   1.566   7.531   1.518  1.0830  0.3795  0.5192
  136MOL    C9446264   1.679   7.606   1.568 -0.0058 -0.0657  0.3844
  136MOL    C9546265   1.736   7.959   1.668  0.1177 -0.0631  0.3225
  136MOL    H9646266   1.863   7.782   1.656 -0.3071  0.9042  0.5387
  136MOL    H9746267   1.609   7.897   1.396  3.6024  0.0911 -0.2377
  136MOL    H9846268   1.464   7.733   1.261 -0.7830 -1.1023 -0.6524
  136MOL    H9946269   1.396   7.405   1.367  2.0142 -0.1128 -1.6381
  136MOL   H10046270   1.535   7.440   1.566 -1.9076  1.4296  0.6877
  136MOL   H10146271   1.752   7.566   1.637 -0.9509 -0.3708  1.2239
  136MOL   H10246272   1.675   8.022   1.603 -0.7639  0.3609  1.5494
  136MOL   H10346273   1.662   7.918   1.737 -0.4738 -1.4996 -1.1371
  136MOL   C10446274   1.836   8.037   1.745 -0.2989 -0.1737 -0.2852
  136MOL   C10546275   1.918   7.950   1.841 -0.6601 -0.3065 -0.5315
  136MOL   C10646276   2.060   7.945   1.833 -0.2306 -0.8680  0.3984
  136MOL   C10746277   2.140   7.885   1.931  0.1004 -0.6155 -0.0905
  136MOL   C10846278   2.074   7.804   2.024  0.2573  0.0404  0.1305
  136MOL   O10946279   2.155   7.725   2.105  0.3602  0.0826  0.1048
  136MOL   C11046280   1.933   7.793   2.031  0.4720  0.6080 -0.0256
  136MOL   C11146281   1.857   7.878   1.948 -0.4940  0.1433  0.3927
  136MOL   C11246282   1.766   0.113   1.814  0.1613 -0.1396 -0.9027
  136MOL   H11346283   1.905   0.044   1.673  0.5857 -1.6014 -0.3576
  136MOL   H11446284   2.104   7.998   1.749  0.1746 -0.0121  1.1483
  136MOL   H11546285   2.247   7.892   1.922  0.2711  0.0428  2.0837
  136MOL   H11646286   2.106   7.679   2.171  0.1351 -0.9145 -0.7433
  136MOL   H11746287   1.875   7.726   2.092 -0.2585  0.0723 -1.2930
  136MOL   H11846288   1.750   7.880   1.954 -0.5362  0.2782 -0.4225
  136MOL   H11946289   1.714   0.068   1.898  0.9292 -1.2215 -0.9941
  136MOL   H12046290   1.692   0.160   1.749 -0.2873  2.9605  1.7516
  136MOL   C12146291   1.858   0.224   1.868 -0.0397  1.2576  0.2036
  136MOL   C12246292   1.931   0.300   1.754 -0.0086  1.4701  0.5517
  136MOL   C12346293   2.066   0.282   1.720  1.0193  0.2565  0.2725
  136MOL   C12446294   2.128   0.357   1.624 -0.4783 -0.2395 -0.4509
  136MOL   C12546295   2.054   0.456   1.563 -0.3992  0.2900  0.0382
  136MOL   O12646296   2.123   0.550   1.490 -0.1646  0.6395  0.1679
  136MOL   C12746297   1.912   0.467   1.571 -0.0043 -0.1921  0.1445
  136MOL   C12846298   1.854   0.391   1.675  0.0965  0.1358  0.6855
  136MOL   C12946299   1.780   0.330   1.949  0.2161  0.3534  0.1248
  136MOL   H13046300   1.939   0.174   1.921  0.4000  2.1303  0.3797
  136MOL   H13146301   2.121   0.202   1.768 -1.0200 -0.3407  1.6822
  136MOL   H13246302   2.234   0.341   1.618 -0.6798 -1.1252 -1.8146
  136MOL   H13346303   2.213   0.526   1.475 -1.0441 -1.4722 -2.1432
  136MOL   H13446304   1.853   0.530   1.506  0.2984  2.1181  2.0403
  136MOL   H13546305   1.747   0.397   1.691 -0.1562 -1.0663 -0.4799
  136MOL   H13646306   1.681   0.355   1.911  0.4977  0.8915 -0.2639
  136MOL   H13746307   1.830   0.427   1.942 -0.7033  0.7188 -1.6613
  136MOL   C13846308   1.781   0.300   2.097 -0.1161 -0.3969  0.1248
  136MOL   C13946309   1.700   0.178   2.129  0.0522  0.5408  0.3241
  136MOL   C14046310   1.561   0.168   2.108  0.1800 -0.2539  1.1450
  136MOL   C14146311   1.496   0.050   2.133  0.3009  0.1729 -0.1355
  136MOL   C14246312   1.564   7.976   2.186  0.1684 -0.3563  0.2933
  136MOL   O14346313   1.492   7.865   2.194 -0.6350  0.3923 -0.4444
  136MOL   C14446314   1.701   7.989   2.228 -0.6835  0.3709  0.2745
  136MOL   C14546315   1.770   0.074   2.202  0.4786 -0.1898 -0.3487
  136MOL   C14646316   1.742   0.421   2.182  0.1117 -0.8916  1.0218
  136MOL   H14746317   1.884   0.284   2.127  0.4627  2.0825 -0.4478
  136MOL   H14846318   1.513   0.260   2.076 -0.3019 -0.5269  1.0808
  136MOL   H14946319   1.393   0.044   2.103  0.0024 -0.3882  0.9600
  136MOL   H15046320   1.401   7.879   2.214 -0.5916 -0.1791  0.1978
  136MOL   H15146321   1.749   7.897   2.260  1.6826  1.6409  0.4697
  136MOL   H15246322   1.873   0.078   2.233  0.1025 -2.3395  1.3462
  136MOL   H15346323   1.638   0.444   2.155  1.1829  1.5347 -1.3065
  136MOL   H15446324   1.802   0.508   2.156 -1.0683  0.1884  1.8231
  136MOL   C15546325   1.761   0.409   2.337 -0.4966  0.5613  0.5676
  136MOL   C15646326   1.634   0.397   2.410 -0.2963 -0.3335  0.6718
  136MOL   C15746327   1.575   0.278   2.452  0.0410 -0.8889  0.1489
  136MOL   C15846328   1.448   0.280   2.519 -0.2005 -0.9045  0.5670
  136MOL   C15946329   1.382   0.403   2.546  0.2556  0.0322  0.2560
  136MOL   O16046330   1.253   0.408   2.602  0.1139  0.1657  0.0509
  136MOL   C16146331   1.441   0.526   2.501 -0.1795 -0.3242  0.7093
  136MOL   C16246332   1.563   0.518   2.434  0.2830  0.8273  0.1671
  136MOL   C16346333   1.861   0.502   2.413 -0.1070 -0.1126  0.5403
  136MOL   H16446334   1.809   0.310   2.343 -0.3424  0.6610  1.0176
  136MOL   H16546335   1.630   0.188   2.428  2.2365  0.6746 -0.8973
  136MOL   H16646336   1.399   0.187   2.546  0.8449 -1.0534  1.9615
  136MOL   H16746337   1.222   0.497   2.607  1.7446  0.7139  1.1044
  136MOL   H16846338   1.390   0.620   2.513 -1.8689 -1.4306  2.5897
  136MOL   H16946339   1.602   0.610   2.392 -4.1696  2.0570 -1.5181
  136MOL   H17046340   1.854   0.485   2.521 -0.1949 -1.4349  0.3294
  136MOL   H17146341   1.830   0.605   2.393 -1.0462 -0.7751 -1.5565
  136MOL   C17246342   2.011   0.491   2.375 -0.1537  0.5629  0.5782
  136MOL   C17346343   2.069   0.351   2.391  0.1717  0.0264  0.7579
  136MOL   C17446344   2.110   0.277   2.278 -1.2681 -0.3004  0.8364
  136MOL   C17546345   2.169   0.152   2.293  0.7135 -0.4887 -0.4580
  136MOL   C17646346   2.190   0.101   2.420  0.0376  0.5872 -0.0811
  136MOL   O17746347   2.232   8.009   2.438  0.1445 -0.2932  0.0627
  136MOL   C17846348   2.157   0.170   2.537  0.0608 -0.0393  0.3144
  136MOL   C17946349   2.091   0.290   2.519 -0.1900 -0.0096  0.4342
  136MOL   C18046350   2.102   0.603   2.429 -0.3474 -0.0270  0.1261
  136MOL   H18146351   2.027   0.508   2.269  0.7100  0.1283  0.6367
  136MOL   H18246352   2.094   0.310   2.176 -0.8522 -1.5685  0.3581
  136MOL   H18346353   2.203   0.099   2.206  0.3046 -0.5090 -0.6063
  136MOL   H18446354   2.298   7.978   2.378  1.4884  1.7782  0.4238
  136MOL   H18546355   2.180   0.126   2.633  0.5287 -1.0066 -0.2244
  136MOL   H18646356   2.045   0.335   2.606  0.6947 -2.3937  2.1882
  136MOL   H18746357   2.104   0.605   2.538  0.9002  0.0652  0.1020
  136MOL   H18846358   2.058   0.700   2.404 -0.4365  0.4379  2.0125
  136MOL   C18946359   2.249   0.594   2.382 -0.0305 -0.1993 -0.8984
  136MOL   C19046360   2.278   0.665   2.247 -0.1873 -0.1248  0.1970
  136MOL   C19146361   2.285   0.802   2.240 -0.3901  0.5581  0.0223
  136MOL   C19246362   2.304   0.860   2.113 -0.7004  0.1631  0.2196
  136MOL   C19346363   2.331   0.785   1.996 -0.0604  0.3111 -0.5378
  136MOL   O19446364   2.375   0.841   1.884 -0.0925  0.1244 -0.0792
  136MOL   C19546365   2.325   0.646   2.007  0.4634 -0.5923  0.1228
  136MOL   C19646366   2.299   0.588   2.133  0.8911  0.3758 -0.5483
  136MOL   C19746367   2.351   0.640   2.493  0.2047 -0.6531  0.4085
  136MOL   H19846368   2.285   0.492   2.371  0.1936 -0.3175  0.8792
  136MOL   H19946369   2.276   0.853   2.334  0.6938  2.1845 -0.7452
  136MOL   H20046370   2.310   0.967   2.098  1.1688  0.0403 -0.0135
  136MOL   H20146371   2.413   0.924   1.910 -0.5512  0.1386  0.5484
  136MOL   H20246372   2.343   0.593   1.915 -0.5108 -0.0358 -0.3902
  136MOL   H20346373   2.297   0.480   2.140  0.4745  0.3204 -1.5175
  136MOL   H20446374   2.332   0.583   2.584  0.2420 -0.8226  0.3099
  136MOL   H20546375   2.324   0.740   2.527  1.4143  0.5918 -2.2051
  136MOL   C20646376   2.498   0.617   2.470  0.2320  0.5016 -0.6039
  136MOL   C20746377   2.557   0.513   2.567 -0.3695  0.8149  0.2938
  136MOL   C20846378   2.637   0.544   2.677  0.2797  0.0525 -0.5294
  136MOL   C20946379   2.669   0.446   2.773  0.4245 -0.3536 -0.8466
  136MOL   C21046380   2.643   0.310   2.748  0.1419  0.4427 -0.2021
  136MOL   O21146381   2.682   0.210   2.826 -0.1221  0.0971 -0.3443
  136MOL   C21246382   2.566   0.283   2.637  0.3666 -0.4828 -0.1610
  136MOL   C21346383   2.516   0.379   2.551 -0.2352 -0.5130  0.5122
  136MOL   C21446384   2.572   0.748   2.459 -0.0036  0.0182  0.5323
  136MOL   H21546385   2.497   0.569   2.372 -1.1136 -1.1485  0.1860
  136MOL   H21646386   2.664   0.646   2.696 -0.9823  0.1151  1.0042
  136MOL   H21746387   2.724   0.480   2.859 -0.5281 -1.4688  0.2179
  136MOL   H21846388   2.758   0.237   2.876  1.1543 -2.7593 -0.6634
  136MOL   H21946389   2.534   0.182   2.618 -0.7390  0.1934 -1.9727
  136MOL   H22046390   2.470   0.346   2.459  1.7796  0.5060 -0.9166
  136MOL   H22146391   2.600   0.782   2.559  0.3900  0.1227  0.3891
  136MOL   H22246392   2.511   0.824   2.411 -1.6243 -0.0200  2.4832
  136MOL   C22346393   2.703   0.739   2.379 -0.1202 -0.1094  0.1897
  136MOL   C22446394   2.802   0.855   2.416  0.5944  0.2285  0.0115
  136MOL   C22546395   2.922   0.829   2.492  0.0719 -0.1350  0.3594
  136MOL   C22646396   3.006   0.934   2.529 -0.7430 -0.2768 -0.0102
  136MOL   C22746397   2.984   1.065   2.478  0.0120 -1.0825 -0.1133
  136MOL   O22846398   3.057   1.172   2.511 -0.4003 -0.6257 -0.1084
  136MOL   C22946399   2.867   1.089   2.409  0.3068 -0.2043 -1.1441
  136MOL   C23046400   2.774   0.988   2.379  0.0138 -0.2598  0.1047
  136MOL   C23146401   2.676   0.746   2.229  0.3091  0.6319 -0.1289
  136MOL   H23246402   2.753   0.646   2.405  0.6680  0.0442 -0.7378
  136MOL   H23346403   2.935   0.729   2.530 -1.8151 -0.1694  0.9602
  136MOL   H23446404   3.089   0.908   2.594 -1.0371  0.9194  0.8576
  136MOL   H23546405   3.021   1.252   2.475  0.3681 -0.3374 -0.2440
  136MOL   H23646406   2.844   1.193   2.391  1.9893  0.4846  0.5505
  136MOL   H23746407   2.675   1.017   2.348 -0.5305 -0.1193  1.9035
  136MOL   H23846408   2.592   0.680   2.208  0.3963  0.5442 -0.1989
  136MOL   H23946409   2.640   0.848   2.212 -0.8950  0.6653  2.3750
  136MOL   C24046410   2.786   0.718   2.126  0.0148  0.4632  0.1727
  136MOL   C24146411   2.812   0.570   2.129 -0.3463 -0.4119 -0.4070
  136MOL   C24246412   2.949   0.526   2.133 -0.2161  0.0618  0.3259
  136MOL   C24346413   2.976   0.387   2.135 -1.2498  0.1537 -0.0686
  136MOL   C24446414   2.874   0.294   2.108 -0.7164 -0.2733 -0.5205
  136MOL   O24546415   2.912   0.165   2.084  0.1417  0.5373  0.5444
  136MOL   C24646416   2.739   0.333   2.102 -0.1048  0.1074 -0.2180
  136MOL   C24746417   2.707   0.473   2.109 -0.3228  0.5026 -0.3361
  136MOL   C24846418   2.734   0.763   1.984 -0.1557 -0.5386 -0.5499
  136MOL   H24946419   2.877   0.773   2.149  1.9947 -2.6786  0.1019
  136MOL   H25046420   3.030   0.597   2.140 -1.1616  1.2719 -0.8981
  136MOL   H25146421   3.082   0.367   2.143 -1.1520  0.6904  0.0480
  136MOL   H25246422   2.843   0.101   2.093  0.5359 -0.0762 -0.6849
  136MOL   H25346423   2.662   0.258   2.095 -0.1134 -0.0971  1.6757
  136MOL   H25446424   2.599   0.482   2.109 -0.2786  1.0840  0.9050
  136MOL   H25546425   2.642   0.707   1.966  0.9529 -2.9067  0.7963
  136MOL   H25646426   2.712   0.868   2.005  1.3935 -0.5313  1.0872
  136MOL   C25746427   2.825   0.768   1.853 -0.4868 -0.8724 -0.0123
  136MOL   C25846428   2.844   0.633   1.785 -0.3336 -0.5304  0.5348
  136MOL   C25946429   2.743   0.553   1.728 -0.5539  0.2165  0.0297
  136MOL   C26046430   2.766   0.417   1.692  0.5395  0.1613 -0.1995
  136MOL   C26146431   2.897   0.379   1.672  0.0916  0.2549  0.6721
  136MOL   O26246432   2.934   0.257   1.650  0.5525 -0.0469  0.4176
  136MOL   C26346433   3.001   0.466   1.712  1.1163 -0.1249  0.1284
  136MOL   C26446434   2.972   0.579   1.782  0.6472  0.0128 -0.0749
  136MOL   C26546435   2.767   0.875   1.758 -0.0173  0.1026 -0.7229
  136MOL   H26646436   2.927   0.791   1.884 -0.9897 -0.5453  1.4234
  136MOL   H26746437   2.643   0.588   1.746 -0.3775  0.2630  0.9816
  136MOL   H26846438   2.685   0.348   1.670  0.7975 -0.2843  0.2520
  136MOL   H26946439   3.000   0.236   1.715  0.6390 -1.9553 -0.2438
  136MOL   H27046440   3.103   0.430   1.712  0.9388 -0.6300  0.2288
  136MOL   H27146441   3.055   0.644   1.808  2.5822 -1.9291 -1.2521
  136MOL   H27246442   2.738   0.968   1.806 -0.5680  0.6496 -2.0965
  136MOL   H27346443   2.674   0.833   1.719 -0.3038  0.1033 -0.0378
  136MOL   C27446444   2.848   0.909   1.633  0.6309  0.3075 -0.5611
  136MOL   C27546445   2.985   0.967   1.661 -0.3845 -0.2651  0.0735
  136MOL   C27646446   3.095   0.911   1.605 -0.0448 -0.2100  0.0006
  136MOL   C27746447   3.224   0.968   1.623  0.6462  1.1242  0.8581
  136MOL   C27846448   3.242   1.078   1.706  0.2773 -0.1754 -0.3198
  136MOL   O27946449   3.370   1.125   1.728 -0.3932  0.3611  0.3875
  136MOL   C28046450   3.132   1.138   1.765 -0.4161 -0.2445 -1.2029
  136MOL   C28146451   3.005   1.077   1.745 -0.0920 -0.2850 -0.2006
  136MOL   C28246452   2.770   1.017   1.556  0.1672 -0.1746 -0.3561
  136MOL   H28346453   2.855   0.827   1.562  2.0010 -0.8052  0.8282
  136MOL   H28446454   3.091   0.820   1.547  1.1247  0.0453 -0.4971
  136MOL   H28546455   3.309   0.924   1.574  0.7855  1.4863  0.7764
  136MOL   H28646456   3.362   1.186   1.800  1.7465 -0.2933  1.2046
  136MOL   H28746457   3.127   1.232   1.816 -0.7949 -0.7753 -0.2590
  136MOL   H28846458   2.917   1.122   1.788 -0.5891 -1.1679 -0.2935
  136MOL   H28946459   2.678   0.960   1.543 -1.5244  2.7471 -1.7054
  136MOL   H29046460   2.749   1.105   1.618 -0.0290  0.0472 -0.7348
  136MOL   C29146461   2.827   1.061   1.418 -0.5648  0.1244 -0.5450
  136MOL   C29246462   2.750   1.179   1.362 -0.7078  0.5746 -0.2375
  136MOL   C29346463   2.828   1.289   1.312  0.0240  0.1183  0.4078
  136MOL   C29446464   2.753   1.397   1.252 -0.0053  0.4067 -0.1562
  136MOL   C29546465   2.614   1.400   1.271 -0.0758  0.2620 -0.0641
  136MOL   O29646466   2.540   1.499   1.216  0.5521 -0.4573  0.1742
  136MOL   C29746467   2.541   1.305   1.345  0.8420 -0.1198 -0.2061
  136MOL   C29846468   2.607   1.190   1.383 -0.1279 -0.4414  0.6403
  136MOL   C29946469   2.850   0.953   1.308 -0.3160  0.5545  0.2472
  136MOL   H30046470   2.918   1.117   1.438 -0.1037 -1.0695  0.7818
  136MOL   H30146471   2.934   1.289   1.291  0.3086 -0.9537  1.7643
  136MOL   H30246472   2.806   1.472   1.195  1.2106 -1.0857 -1.0087
  136MOL   H30346473   2.557   1.522   1.126  1.3668  1.0921  0.7110
  136MOL   H30446474   2.434   1.311   1.351  0.7854 -2.1852  1.5597
  136MOL   H30546475   2.554   1.111   1.434 -1.9000  0.0025 -0.4712
  136MOL   H30646476   2.902   0.868   1.352 -2.0747 -1.2535 -1.0985
  136MOL   H30746477   2.923   0.989   1.236 -0.0758 -1.6643 -0.6343
  136MOL   C30846478   2.734   0.900   1.224 -0.5870  0.4404 -0.3374
  136MOL   C30946479   2.645   0.807   1.296  0.3197 -0.5034 -0.0668
  136MOL   C31046480   2.696   0.685   1.345  0.1362  0.2232  0.1618
  136MOL   C31146481   2.615   0.584   1.397  0.3581 -0.9246  0.7924
  136MOL   C31246482   2.476   0.610   1.403  0.7569 -0.0095 -0.1458
  136MOL   O31346483   2.380   0.512   1.451 -0.5794 -0.1980 -0.0067
  136MOL   C31446484   2.420   0.732   1.359 -0.2625 -0.5732 -0.0361
  136MOL   C31546485   2.504   0.833   1.308  0.6235 -0.3305 -0.0809
  136MOL   C31646486   2.778   0.848   1.085 -1.1530  0.0924  0.5031
  136MOL   H31746487   2.660   0.979   1.209 -2.3480 -1.0217  0.4056
  136MOL   H31846488   2.803   0.665   1.339  0.2708  0.4362  1.8599
  136MOL   H31946489   2.651   0.487   1.424  2.9700  0.2087  1.5011
  136MOL   H32046490   2.418   0.428   1.471 -3.1878 -0.9307  2.1755
  136MOL   H32146491   2.314   0.754   1.360 -0.1116  0.1234  2.0755
  136MOL   H32246492   2.467   0.930   1.279 -1.6569 -1.3332 -0.6504
  136MOL   H32346493   2.831   0.754   1.105 -0.9597  0.5132  2.0103
  136MOL   H32446494   2.848   0.917   1.038 -0.6907 -1.7054 -1.5189
  136MOL   C32546495   2.662   0.827   0.981 -0.1775  0.4731 -0.0884
  136MOL   C32646496   2.690   0.732   0.864 -0.0808  0.8322  0.2585
  136MOL   C32746497   2.584   0.648   0.821 -0.0104 -0.9837  0.3380
  136MOL   C32846498   2.595   0.575   0.701 -0.5372  0.4709  0.0479
  136MOL   C32946499   2.721   0.568   0.633 -0.3740 -0.0757  0.2968
  136MOL   O33046500   2.729   0.496   0.516  0.0975 -0.7377 -0.4768
  136MOL   C33146501   2.828   0.653   0.671 -0.5280  0.6928  0.3956
  136MOL   C33246502   2.812   0.735   0.787  0.0163  0.5315  0.4661
  136MOL   C33346503   2.632   0.961   0.920 -0.0210 -0.1079 -0.1542
  136MOL   H33446504   2.580   0.785   1.040 -0.0276 -0.8270 -0.7725
  136MOL   H33546505   2.486   0.652   0.864 -0.7573 -2.1067 -1.2039
  136MOL   H33646506   2.509   0.518   0.669  1.1961 -2.2981  0.1390
  136MOL   H33746507   2.791   0.425   0.518  1.1572  0.1567 -1.1271
  136MOL   H33846508   2.920   0.651   0.615 -0.2002 -0.1061  0.9549
  136MOL   H33946509   2.895   0.795   0.821  0.9751 -1.0658  1.0391
  136MOL   H34046510   2.594   1.034   0.992  1.9581 -0.1908  0.9927
  136MOL   H34146511   2.553   0.938   0.848 -0.7793 -0.6214  0.8280
  136MOL   H34246512   2.716   1.006   0.867 -0.3613  1.1375  0.3487
  137MOL     C146513   3.153   2.842   2.312  0.1120 -0.1834 -0.3757
  137MOL     C246514   3.187   2.706   2.384 -0.5817  0.0485 -0.5566
  137MOL     C346515   3.247   2.704   2.510  0.1192  0.3433 -0.5235
  137MOL     C446516   3.256   2.587   2.587 -0.4402  0.9174  0.2583
  137MOL     C546517   3.191   2.472   2.546 -0.1138 -0.3571 -0.3471
  137MOL     O646518   3.185   2.366   2.628 -0.1748 -0.0510  0.0358
  137MOL     C746519   3.128   2.467   2.423 -0.1673 -0.3010 -0.7145
  137MOL     C846520   3.122   2.587   2.346  0.0111 -0.2344  0.0895
  137MOL     C946521   3.283   2.913   2.262 -0.9612 -0.6709  0.0856
  137MOL    H1046522   3.099   2.809   2.224 -0.3551  0.1505 -0.2178
  137MOL    H1146523   3.289   2.787   2.564  0.1323 -0.7739  1.2235
  137MOL    H1246524   3.304   2.585   2.684  0.1633  1.6403 -0.0233
  137MOL    H1346525   3.130   2.296   2.597 -1.9330  0.9645  0.7999
  137MOL    H1446526   3.070   2.378   2.400 -2.9679  1.1341  0.5760
  137MOL    H1546527   3.052   2.592   2.263 -0.0444  0.9204  0.2036
  137MOL    H1646528   3.276   2.954   2.161 -0.6743 -0.1426  0.2815
  137MOL    H1746529   3.355   2.833   2.247 -1.7164 -1.4726  0.7059
  137MOL    H1846530   3.080   2.903   2.366  0.7114  0.1886  0.0162
  137MOL    C1946531   3.357   3.006   2.359 -0.4054 -0.0311  0.5834
  137MOL    C2046532   3.313   3.156   2.330  0.1179  0.5030  0.5781
  137MOL    C2146533   3.221   3.206   2.417 -0.7756 -0.0096 -0.4381
  137MOL    C2246534   3.177   3.339   2.393 -0.4324 -0.9106  0.0708
  137MOL    C2346535   3.216   3.416   2.274 -0.4750  0.7286  0.0715
  137MOL    O2446536   3.166   3.538   2.253 -0.4446  0.0498  0.4433
  137MOL    C2546537   3.316   3.357   2.194 -0.2676  0.1400  0.5088
  137MOL    C2646538   3.359   3.229   2.222  0.2298  0.0996 -0.5899
  137MOL    C2746539   3.517   2.996   2.365 -0.4740 -0.0651 -0.1075
  137MOL    H2846540   3.319   2.988   2.460  0.3050 -1.1789  0.6559
  137MOL    H2946541   3.192   3.160   2.510  0.6085 -0.0352 -0.0159
  137MOL    H3046542   3.110   3.382   2.466  0.4646  1.3485 -0.3809
  137MOL    H3146543   3.084   3.559   2.295 -0.3247  3.1724 -0.7839
  137MOL    H3246544   3.343   3.414   2.106 -2.0117  1.1319  0.6086
  137MOL    H3346545   3.440   3.192   2.161 -2.5083 -1.2155 -3.5642
  137MOL    H3446546   3.556   3.097   2.376  0.7436 -0.2080 -2.6810
  137MOL    H3546547   3.557   2.966   2.268 -0.3103 -0.6242  0.1332
  137MOL    C3646548   3.576   2.908   2.477  0.2655 -0.0640  0.2230
  137MOL    C3746549   3.568   2.980   2.615  0.6795  0.7488  0.2128
  137MOL    C3846550   3.647   3.096   2.636 -0.2946 -0.1163 -0.1277
  137MOL    C3946551   3.665   3.152   2.764 -0.4172  0.0887  0.1259
  137MOL    C4046552   3.603   3.090   2.875  0.0138 -0.2676  0.1919
  137MOL    O4146553   3.611   3.132   3.009 -0.2102  0.0910 -0.0321
  137MOL    C4246554   3.524   2.978   2.854 -0.5401 -0.4616 -1.1400
  137MOL    C4346555   3.508   2.922   2.725  0.3251 -0.4986  0.5622
  137MOL    C4446556   3.718   2.847   2.462 -0.5068 -0.1855 -0.2088
  137MOL    H4546557   3.506   2.824   2.482  0.6762 -0.4734 -0.9016
  137MOL    H4646558   3.695   3.138   2.548  0.5396  0.1518  0.4457
  137MOL    H4746559   3.735   3.233   2.763  0.0057 -0.2629  0.9293
  137MOL    H4846560   3.652   3.217   3.011  0.8911 -0.4587  1.5797
  137MOL    H4946561   3.478   2.926   2.936 -1.5840  2.2861  0.0878
  137MOL    H5046562   3.459   2.826   2.717 -1.1136  0.4046 -1.8519
  137MOL    H5146563   3.734   2.798   2.366 -1.8726 -1.3596  0.1382
  137MOL    H5246564   3.783   2.934   2.469 -0.1725 -0.4328 -0.2409
  137MOL    C5346565   3.760   2.750   2.580 -0.2467 -0.3983  0.9377
  137MOL    C5446566   3.677   2.619   2.574  0.1303 -0.3664  0.4188
  137MOL    C5546567   3.673   2.541   2.459 -0.3981  0.2522 -0.0361
  137MOL    C5646568   3.599   2.421   2.466 -0.0145  0.1464  0.5101
  137MOL    C5746569   3.541   2.378   2.589  0.6683  0.1039 -0.5917
  137MOL    O5846570   3.464   2.265   2.582 -0.9639 -1.0269  0.0946
  137MOL    C5946571   3.548   2.459   2.703  0.0863  0.5159  0.3736
  137MOL    C6046572   3.616   2.584   2.695 -0.3519  0.2156 -0.2507
  137MOL    C6146573   3.914   2.728   2.580  0.5480  0.0347  0.5569
  137MOL    H6246574   3.733   2.807   2.669 -0.6649 -0.4721  0.8609
  137MOL    H6346575   3.717   2.578   2.368 -3.4215  3.2614 -0.3753
  137MOL    H6446576   3.593   2.366   2.373  2.7572 -0.7608  0.8217
  137MOL    H6546577   3.386   2.272   2.634 -1.7192 -0.1831 -1.1176
  137MOL    H6646578   3.503   2.429   2.797 -0.4143  1.0016  0.2907
  137MOL    H6746579   3.631   2.650   2.779  4.2412 -0.2419 -0.5989
  137MOL    H6846580   3.974   2.804   2.530 -0.6488  0.0391 -0.9036
  137MOL    H6946581   3.940   2.637   2.525  0.1765  0.9042 -1.0874
  137MOL    C7046582   3.968   2.715   2.719  0.1524 -0.5626  0.1121
  137MOL    C7146583   3.990   2.851   2.783 -0.6550  0.1002 -0.2620
  137MOL    C7246584   3.899   2.903   2.877 -0.2807  0.7931  0.1040
  137MOL    C7346585   3.930   3.025   2.941 -0.4004  1.1580  0.1883
  137MOL    C7446586   4.040   3.100   2.900  0.0995  0.3993  0.4899
  137MOL    O7546587   4.061   3.226   2.949 -0.0172  0.1585  0.5573
  137MOL    C7646588   4.122   3.046   2.800  0.2211  0.6803 -0.2267
  137MOL    C7746589   4.101   2.922   2.743  0.3470 -0.1224 -0.3101
  137MOL    C7846590   4.089   2.621   2.723  0.2773  0.9533 -0.1424
  137MOL    H7946591   3.897   2.666   2.786  0.0478  0.1812  0.5520
  137MOL    H8046592   3.805   2.857   2.907  0.4057 -0.2846  0.6259
  137MOL    H8146593   3.863   3.076   3.009 -2.0117  2.6778 -2.4439
  137MOL    H8246594   4.043   3.254   3.037  0.5897  2.4052  0.0025
  137MOL    H8346595   4.206   3.106   2.769  1.5061 -0.7975  0.3218
  137MOL    H8446596   4.169   2.887   2.667  1.8910 -1.5420  1.6421
  137MOL    H8546597   4.149   2.638   2.634  1.0843 -3.5153 -0.5772
  137MOL    H8646598   4.070   2.514   2.715  1.1850  0.6585  1.5240
  137MOL    C8746599   4.168   2.618   2.855 -1.4102  0.3872 -0.0596
  137MOL    C8846600   4.315   2.626   2.835  0.0347 -0.1953  0.1628
  137MOL    C8946601   4.391   2.736   2.891 -0.1987  0.1029 -0.1041
  137MOL    C9046602   4.534   2.742   2.865 -0.4843 -0.6909  0.2471
  137MOL    C9146603   4.595   2.639   2.798  0.0841  0.6460 -0.0301
  137MOL    O9246604   4.730   2.644   2.776  0.5927 -0.3121 -0.2260
  137MOL    C9346605   4.525   2.538   2.740  0.1423 -0.9277 -0.4161
  137MOL    C9446606   4.382   2.527   2.756  0.0423  0.2733  0.5130
  137MOL    C9546607   4.142   2.487   2.933  0.4895  0.7538 -0.6387
  137MOL    H9646608   4.134   2.704   2.913  1.0791  1.0463  0.4463
  137MOL    H9746609   4.328   2.803   2.949 -3.6129 -2.2996 -0.8693
  137MOL    H9846610   4.589   2.825   2.907 -0.2330  0.4708 -2.3375
  137MOL    H9946611   4.761   2.623   2.689  2.2350  0.0914  0.2324
  137MOL   H10046612   4.565   2.455   2.683 -0.3914 -2.2472  1.0957
  137MOL   H10146613   4.333   2.446   2.706  1.1263 -0.0669 -0.0243
  137MOL   H10246614   4.159   2.398   2.872 -0.9904  0.3319 -0.4611
  137MOL   H10346615   4.223   2.482   3.006  0.1038 -0.5124 -0.2687
  137MOL   C10446616   4.009   2.471   3.011  0.1632 -0.6560  0.1120
  137MOL   C10546617   3.954   2.595   3.086  0.0471 -0.1561 -1.0005
  137MOL   C10646618   3.825   2.647   3.057 -0.0650  0.2907 -0.1586
  137MOL   C10746619   3.762   2.741   3.140 -0.3290 -0.9637  0.3298
  137MOL   C10846620   3.834   2.799   3.243  1.4845 -0.1202 -0.3729
  137MOL   O10946621   3.777   2.895   3.325  0.9846  0.4398  0.0683
  137MOL   C11046622   3.971   2.757   3.263  0.4284  0.9601  0.6880
  137MOL   C11146623   4.031   2.663   3.180  0.0864  0.1343  0.0159
  137MOL   C11246624   4.025   2.356   3.106  0.3659  0.0247 -0.0154
  137MOL   H11346625   3.938   2.432   2.939  0.2648 -0.6783  0.0237
  137MOL   H11446626   3.771   2.600   2.976 -0.0263 -1.6228  0.8947
  137MOL   H11546627   3.658   2.767   3.126  0.0328  0.4642  0.2043
  137MOL   H11646628   3.685   2.901   3.305  0.8949 -1.3477 -0.0982
  137MOL   H11746629   4.034   2.794   3.343 -0.3130  0.2699  1.5965
  137MOL   H11846630   4.133   2.631   3.197  0.8949  2.6677  0.1430
  137MOL   H11946631   4.098   2.362   3.186 -0.8684 -0.7102  1.1822
  137MOL   H12046632   4.060   2.272   3.045  0.7599  0.8828 -0.9976
  137MOL   C12146633   3.890   2.302   3.167 -0.5824 -0.7072  0.1674
  137MOL   C12246634   3.810   2.218   3.066 -0.3556  0.1523  0.1626
  137MOL   C12346635   3.705   2.273   2.988 -0.4519  0.4472  0.0326
  137MOL   C12446636   3.643   2.188   2.896 -0.4122  0.3959  0.0885
  137MOL   C12546637   3.672   2.050   2.883 -0.4213 -0.9078  0.1143
  137MOL   O12646638   3.603   1.978   2.794  0.3876 -0.0205  0.1941
  137MOL   C12746639   3.774   2.001   2.959  0.1876  0.7369 -0.1380
  137MOL   C12846640   3.845   2.086   3.049 -0.1163  0.2096  0.7839
  137MOL   C12946641   3.915   2.241   3.306  0.2183 -0.1660 -0.0329
  137MOL   H13046642   3.825   2.388   3.186  0.2825 -0.2195  0.8989
  137MOL   H13146643   3.672   2.376   2.985  2.0646  1.2597 -1.5580
  137MOL   H13246644   3.563   2.223   2.833 -0.9063 -1.7117 -0.4923
  137MOL   H13346645   3.534   2.034   2.762 -0.7215 -0.2187  2.1397
  137MOL   H13446646   3.810   1.899   2.952  0.8280  0.8715  1.1047
  137MOL   H13546647   3.932   2.046   3.099 -0.5972  0.3287  1.7320
  137MOL   H13646648   3.969   2.308   3.373  0.9229  0.8962 -1.6407
  137MOL   H13746649   3.989   2.163   3.290  1.6416  1.4192 -1.3389
  137MOL   C13846650   3.783   2.196   3.384  0.2547  0.5224 -0.2548
  137MOL   C13946651   3.685   2.314   3.375  0.1204  0.9379 -0.3866
  137MOL   C14046652   3.712   2.432   3.445 -0.3237  0.3021 -0.5378
  137MOL   C14146653   3.632   2.541   3.427  0.0732  0.1310 -0.2609
  137MOL   C14246654   3.518   2.530   3.353 -0.1322 -0.7619  0.0841
  137MOL   O14346655   3.438   2.640   3.329 -0.4360 -0.3119 -0.0548
  137MOL   C14446656   3.482   2.419   3.286 -0.4652  0.6411  0.0251
  137MOL   C14546657   3.566   2.305   3.291  0.1363 -0.8552  1.1288
  137MOL   C14646658   3.808   2.159   3.526  0.2308  0.3170  0.2886
  137MOL   H14746659   3.740   2.102   3.349  0.7636  1.2631 -3.0162
  137MOL   H14846660   3.797   2.439   3.511 -0.7292 -1.4087  0.2035
  137MOL   H14946661   3.660   2.637   3.469  2.0263  0.6111 -2.5898
  137MOL   H15046662   3.468   2.713   3.380  1.0927 -0.3271 -0.8963
  137MOL   H15146663   3.397   2.421   3.219  0.2317 -0.6419 -0.9307
  137MOL   H15246664   3.543   2.229   3.218 -0.4888 -0.4461  0.9001
  137MOL   H15346665   3.714   2.131   3.575 -0.7286  2.0360 -0.5150
  137MOL   H15446666   3.836   2.241   3.593  0.1954 -0.0634  0.7755
  137MOL   C15546667   3.916   2.051   3.552  0.0929 -0.0690  0.1181
  137MOL   C15646668   3.883   1.920   3.484  0.1883 -0.5959 -0.2410
  137MOL   C15746669   3.786   1.834   3.539 -0.4516 -0.3312  0.7752
  137MOL   C15846670   3.746   1.722   3.461  0.5183  0.2326  0.0639
  137MOL   C15946671   3.798   1.699   3.332  0.6215 -0.4269  0.5021
  137MOL   O16046672   3.743   1.604   3.246 -0.3463 -0.0130  0.0938
  137MOL   C16146673   3.910   1.766   3.289 -0.0152 -0.4542  0.2009
  137MOL   C16246674   3.947   1.884   3.360 -0.4460  0.1702  0.0960
  137MOL   C16346675   3.967   2.031   3.699 -0.4657  0.6802  0.3304
  137MOL   H16446676   4.007   2.080   3.498 -0.4467  0.1574 -0.6751
  137MOL   H16546677   3.739   1.845   3.635 -0.7282  0.0974  0.5932
  137MOL   H16646678   3.668   1.661   3.504  0.2196 -0.2353 -1.1329
  137MOL   H16746679   3.793   1.582   3.169 -1.1428  1.2635 -0.8039
  137MOL   H16846680   3.960   1.751   3.195  2.8458  1.0929  1.3976
  137MOL   H16946681   4.024   1.944   3.313  1.1393 -1.8968  0.0197
  137MOL   H17046682   3.871   2.012   3.747 -0.2174  0.6919  0.8342
  137MOL   H17146683   3.991   2.127   3.746  0.7725  0.8258 -0.5679
  137MOL   C17246684   4.068   1.917   3.733  0.6586  0.1338 -0.4118
  137MOL   C17346685   4.069   1.880   3.880 -0.1248  0.4056  0.5319
  137MOL   C17446686   4.028   1.752   3.924  0.0098  0.0021  0.5736
  137MOL   C17546687   4.057   1.719   4.058  0.4425 -0.4780  0.0431
  137MOL   C17646688   4.116   1.812   4.152  0.3591  0.2383 -0.2638
  137MOL   O17746689   4.143   1.771   4.281  0.0658  0.7099 -0.1041
  137MOL   C17846690   4.140   1.941   4.103 -0.3054 -0.1160 -0.3342
  137MOL   C17946691   4.123   1.972   3.967 -0.3345  0.4718 -0.2313
  137MOL   C18046692   4.208   1.955   3.680 -0.1333  0.3026  0.0643
  137MOL   H18146693   4.035   1.832   3.674 -0.0583  0.7922 -0.9645
  137MOL   H18246694   4.006   1.677   3.850  0.3510 -2.0694  2.5328
  137MOL   H18346695   4.033   1.620   4.094 -0.3097 -0.3263 -0.0341
  137MOL   H18446696   4.107   1.685   4.296 -0.2160  1.0898  1.5402
  137MOL   H18546697   4.170   2.018   4.172 -0.6095  1.5714 -2.0375
  137MOL   H18646698   4.148   2.071   3.931  0.9799  1.4456  3.1659
  137MOL   H18746699   4.268   2.003   3.758 -3.4129  2.0155  1.5930
  137MOL   H18846700   4.197   2.027   3.600 -0.1358  2.1026  1.6354
  137MOL   C18946701   4.300   1.838   3.634  0.2881 -0.2417  0.0403
  137MOL   C19046702   4.324   1.730   3.743 -0.2300  0.5935  0.0094
  137MOL   C19146703   4.417   1.750   3.850 -0.8510 -0.5038  0.3366
  137MOL   C19246704   4.451   1.649   3.938  0.3360  0.0612  0.1547
  137MOL   C19346705   4.380   1.529   3.927 -0.0687 -0.4365 -0.5425
  137MOL   O19446706   4.411   1.423   4.000  0.3744 -0.1996  0.0395
  137MOL   C19546707   4.288   1.504   3.827 -0.8383  0.0494  0.0771
  137MOL   C19646708   4.254   1.605   3.731 -0.5547 -0.3132  0.2372
  137MOL   C19746709   4.272   1.793   3.494  0.3011 -0.1986  0.2058
  137MOL   H19846710   4.400   1.879   3.622  0.5690 -0.8740  0.1895
  137MOL   H19946711   4.458   1.849   3.843  0.1433 -0.8630  1.1517
  137MOL   H20046712   4.532   1.665   4.007  1.0311  0.8521 -0.8219
  137MOL   H20146713   4.478   1.449   4.061  1.6359 -0.6425 -1.1455
  137MOL   H20246714   4.241   1.407   3.817  0.7429 -0.7233  0.0271
  137MOL   H20346715   4.180   1.585   3.655  0.7887 -1.0686 -0.8947
  137MOL   H20446716   4.176   1.830   3.458 -0.4096 -0.8462  1.4090
  137MOL   H20546717   4.272   1.684   3.485  1.5894 -0.0812 -1.5646
  137MOL   C20646718   4.379   1.840   3.390 -0.0675  0.7002  0.3920
  137MOL   C20746719   4.310   1.851   3.254 -0.3716  0.0900 -0.3841
  137MOL   C20846720   4.255   1.974   3.207 -0.2847  0.4304 -0.3830
  137MOL   C20946721   4.214   1.987   3.072  0.3457  0.4478  0.6430
  137MOL   C21046722   4.221   1.871   2.987  1.2256 -0.4468  0.7033
  137MOL   O21146723   4.170   1.887   2.862 -0.1373  0.6068 -0.6651
  137MOL   C21246724   4.267   1.752   3.038 -0.4198 -0.3219  0.2592
  137MOL   C21346725   4.311   1.739   3.174 -0.1561  0.8857 -0.7313
  137MOL   C21446726   4.512   1.748   3.404  0.3380 -0.0028 -0.2010
  137MOL   H21546727   4.396   1.944   3.415  0.6733  0.6632  0.0468
  137MOL   H21646728   4.247   2.063   3.267 -0.6223 -0.7112  1.2912
  137MOL   H21746729   4.174   2.080   3.034  0.9742  1.0207  1.3596
  137MOL   H21846730   4.137   1.975   2.847  0.1272  0.6054 -1.2721
  137MOL   H21946731   4.267   1.665   2.974 -1.0012  0.7899 -1.2902
  137MOL   H22046732   4.347   1.645   3.212  2.8708  1.8433 -1.1090
  137MOL   H22146733   4.487   1.642   3.397  1.0191 -0.1043 -1.2240
  137MOL   H22246734   4.563   1.759   3.499 -1.0768  0.9264  0.4691
  137MOL   C22346735   4.617   1.773   3.291 -0.4912 -0.4758 -0.5589
  137MOL   C22446736   4.744   1.686   3.315 -0.0933  0.3295 -0.8183
  137MOL   C22546737   4.754   1.555   3.265  0.3159  0.2230  0.0625
  137MOL   C22646738   4.875   1.476   3.276  0.6988  0.9881  0.2058
  137MOL   C22746739   4.984   1.530   3.343  0.1104 -0.1103  0.4740
  137MOL   O22846740   5.092   1.454   3.371  0.3227  0.4080 -0.2354
  137MOL   C22946741   4.977   1.661   3.405  0.0979 -0.4697  0.0272
  137MOL   C23046742   4.854   1.726   3.396 -0.3607  0.1995 -0.2977
  137MOL   C23146743   4.661   1.915   3.276  0.5707  0.1233 -0.0338
  137MOL   H23246744   4.577   1.745   3.194 -2.7129 -0.5525  0.3540
  137MOL   H23346745   4.665   1.522   3.215 -1.5965  2.9304  1.5532
  137MOL   H23446746   4.886   1.371   3.254 -1.9780  0.6195  0.4764
  137MOL   H23546747   5.086   1.373   3.322 -0.8859  0.3509  0.0017
  137MOL   H23646748   5.064   1.691   3.461 -0.7706  0.9640  0.6074
  137MOL   H23746749   4.859   1.822   3.445  0.2015  0.0011  0.0375
  137MOL   H23846750   4.574   1.980   3.263  0.5723  0.8305  3.1164
  137MOL   H23946751   4.702   1.951   3.370  1.9578 -0.0309 -0.5717
  137MOL   C24046752   4.764   1.948   3.163 -0.2411  0.3709 -0.2840
  137MOL   C24146753   4.690   1.959   3.031 -0.1909 -0.4171 -0.5713
  137MOL   C24246754   4.734   1.885   2.923 -0.2513 -0.5692 -0.0107
  137MOL   C24346755   4.667   1.885   2.801  0.3225  0.4446  0.2327
  137MOL   C24446756   4.565   1.974   2.775 -1.1926  0.0174 -0.4864
  137MOL   O24546757   4.507   1.986   2.654 -0.4389 -0.3081 -0.2638
  137MOL   C24646758   4.524   2.061   2.882 -0.2160  0.1363 -0.3994
  137MOL   C24746759   4.585   2.051   3.009  0.4108 -0.9650 -0.2935
  137MOL   C24846760   4.848   2.070   3.205  0.4399 -0.2808 -0.0382
  137MOL   H24946761   4.831   1.862   3.159  1.2324  1.4697  0.2151
  137MOL   H25046762   4.811   1.813   2.945 -2.0770 -2.7852 -0.6396
  137MOL   H25146763   4.707   1.825   2.720  0.1573 -0.3973  0.7706
  137MOL   H25246764   4.506   1.900   2.616 -3.4716  0.9337 -3.2444
  137MOL   H25346765   4.451   2.132   2.848  1.2644  1.3123 -1.1292
  137MOL   H25446766   4.550   2.119   3.085 -0.7404 -1.0735 -0.7111
  137MOL   H25546767   4.811   2.163   3.162 -1.1591 -0.8326  0.1016
  137MOL   H25646768   4.840   2.079   3.314 -0.6654 -2.6551  0.0997
  137MOL   C25746769   5.000   2.064   3.171 -0.1287  0.2941  0.4060
  137MOL   C25846770   5.033   2.061   3.017 -0.1700 -0.0362 -0.3878
  137MOL   C25946771   5.101   1.959   2.954 -0.2442 -0.7061 -1.2787
  137MOL   C26046772   5.131   1.955   2.816  0.3629 -0.9007 -0.5240
  137MOL   C26146773   5.090   2.063   2.738 -0.2360  0.2581  0.0195
  137MOL   O26246774   5.124   2.079   2.603  0.6498 -0.0030 -0.3590
  137MOL   C26346775   5.013   2.162   2.794 -0.1948  0.1675 -0.2224
  137MOL   C26446776   4.983   2.159   2.932  0.1591  0.2089 -0.3693
  137MOL   C26546777   5.077   2.176   3.237  0.0720  0.8134  0.4855
  137MOL   H26646778   5.039   1.970   3.211  2.6208  0.7490 -1.0533
  137MOL   H26746779   5.124   1.873   3.014  0.3041  0.5012  0.2967
  137MOL   H26846780   5.201   1.882   2.779  0.8837 -0.6061 -0.1244
  137MOL   H26946781   5.188   2.013   2.583 -0.2596 -0.2721 -2.5867
  137MOL   H27046782   4.964   2.239   2.737 -0.0302  0.9380  0.6510
  137MOL   H27146783   4.895   2.215   2.961 -0.9056 -0.7751 -1.6362
  137MOL   H27246784   5.036   2.180   3.338  0.7932  0.7186  0.7878
  137MOL   H27346785   5.057   2.274   3.195  0.2701  1.1434  1.1487
  137MOL   C27446786   5.232   2.165   3.226 -0.6531  0.3817  0.0632
  137MOL   C27546787   5.278   2.094   3.352  0.4811 -0.0454  0.0046
  137MOL   C27646788   5.312   1.955   3.335 -0.1071  0.5117  0.3151
  137MOL   C27746789   5.343   1.877   3.448  0.0757 -0.2318 -0.5445
  137MOL   C27846790   5.349   1.932   3.575  0.2979  0.2473  0.3018
  137MOL   O27946791   5.386   1.859   3.683 -0.0642 -1.1861 -0.5393
  137MOL   C28046792   5.312   2.070   3.587  0.0025 -0.0995 -0.2588
  137MOL   C28146793   5.281   2.154   3.476  0.3497 -0.8842 -0.4616
  137MOL   C28246794   5.310   2.296   3.194  0.1102  0.4119  0.2506
  137MOL   H28346795   5.265   2.114   3.136 -1.1088  2.6180 -1.4190
  137MOL   H28446796   5.308   1.901   3.241  0.8952  1.6892 -0.4335
  137MOL   H28546797   5.356   1.771   3.435  0.7973 -0.3951  1.3902
  137MOL   H28646798   5.462   1.804   3.671 -0.1006 -1.5436  0.7060
  137MOL   H28746799   5.318   2.110   3.687 -0.1937 -1.3350  0.2475
  137MOL   H28846800   5.271   2.261   3.489  1.3797 -0.7295 -0.9111
  137MOL   H28946801   5.249   2.384   3.216  0.7446  0.2325  2.9564
  137MOL   H29046802   5.381   2.304   3.276  0.7832 -2.1783 -0.0468
  137MOL   C29146803   5.381   2.307   3.059  0.3792 -0.2676 -0.1191
  137MOL   C29246804   5.480   2.191   3.048 -0.0497  0.4295 -0.6547
  137MOL   C29346805   5.579   2.174   3.151  0.4118  0.2065  0.1631
  137MOL   C29446806   5.664   2.059   3.153 -0.0779 -0.0904 -0.0465
  137MOL   C29546807   5.655   1.965   3.050  0.7257  0.6965  0.4703
  137MOL   O29646808   5.745   1.860   3.052 -0.1210 -0.0381 -0.7951
  137MOL   C29746809   5.558   1.971   2.948  0.3289 -0.6592  0.4916
  137MOL   C29846810   5.466   2.083   2.950  0.2793  0.5147  0.4276
  137MOL   C29946811   5.464   2.433   3.027  0.7320  0.1676 -0.2187
  137MOL   H30046812   5.305   2.292   2.982  0.5599 -0.3881 -0.2721
  137MOL   H30146813   5.576   2.247   3.230 -0.2709  1.4655 -0.9977
  137MOL   H30246814   5.736   2.047   3.232 -0.3736 -0.2267  0.2048
  137MOL   H30346815   5.756   1.842   3.144  1.1719  0.9070 -0.7562
  137MOL   H30446816   5.561   1.897   2.870 -0.5829  1.2004 -1.3741
  137MOL   H30546817   5.390   2.097   2.875  1.0236  0.1836 -0.3909
  137MOL   H30646818   5.566   2.420   2.990  0.6320  1.5095 -0.9873
  137MOL   H30746819   5.473   2.484   3.123  1.8329 -3.8743  1.9507
  137MOL   C30846820   5.394   2.540   2.931 -0.1123  0.0863 -0.3798
  137MOL   C30946821   5.248   2.564   2.959  0.3663 -0.1059  0.3177
  137MOL   C31046822   5.143   2.484   2.904 -0.0874 -0.1352 -0.4669
  137MOL   C31146823   5.010   2.510   2.921 -0.1330  0.5729  0.0216
  137MOL   C31246824   4.970   2.616   3.001  0.3750 -0.4273 -1.2338
  137MOL   O31346825   4.839   2.640   3.027  0.1806  0.2218 -0.1277
  137MOL   C31446826   5.066   2.697   3.064 -0.0571 -0.0754  0.1534
  137MOL   C31546827   5.204   2.677   3.045 -0.3874  0.3447  0.2893
  137MOL   C31646828   5.435   2.496   2.788 -0.4547  0.2318  0.1665
  137MOL   H31746829   5.441   2.637   2.945 -0.0756 -0.1478  1.2645
  137MOL   H31846830   5.179   2.402   2.844 -3.5088 -0.8155 -1.6987
  137MOL   H31946831   4.935   2.440   2.887  0.3454 -0.9343  2.0074
  137MOL   H32046832   4.791   2.626   2.947  0.5014 -1.1608 -0.0907
  137MOL   H32146833   5.041   2.783   3.124 -0.7137  0.2921 -0.6406
  137MOL   H32246834   5.276   2.735   3.101 -1.1857  0.7549  0.8919
  137MOL   H32346835   5.406   2.393   2.765  0.1966  0.6216 -2.5590
  137MOL   H32446836   5.542   2.515   2.794 -0.2271 -0.8538 -0.3109
  137MOL   C32546837   5.393   2.584   2.670 -0.7022  0.5631 -0.4317
  137MOL   C32646838   5.250   2.572   2.627  0.2412 -0.3183 -0.4546
  137MOL   C32746839   5.173   2.686   2.645  0.1289  0.3855 -0.5017
  137MOL   C32846840   5.036   2.678   2.610 -0.1467  0.9850  0.0376
  137MOL   C32946841   4.977   2.561   2.562  0.6575  0.1996 -0.3996
  137MOL   O33046842   4.846   2.558   2.524 -0.2098  0.1888  0.2458
  137MOL   C33146843   5.060   2.452   2.542 -0.0618 -0.5084 -0.0375
  137MOL   C33246844   5.198   2.459   2.569  0.3704  0.0467  0.5380
  137MOL   C33346845   5.487   2.563   2.555  0.7162 -0.0202  0.0199
  137MOL   H33446846   5.401   2.687   2.706 -0.4632  1.0010 -1.7269
  137MOL   H33546847   5.209   2.776   2.693  0.8507  0.1149 -0.5198
  137MOL   H33646848   4.976   2.768   2.621 -0.8300  0.3351  1.8644
  137MOL   H33746849   4.831   2.471   2.489 -0.9975  0.5906 -0.4466
  137MOL   H33846850   5.024   2.363   2.492  1.5444 -0.7614 -0.7756
  137MOL   H33946851   5.267   2.379   2.544 -0.4849 -0.2706 -0.8559
  137MOL   H34046852   5.447   2.606   2.463 -0.7786 -1.2998  0.0477
  137MOL   H34146853   5.489   2.455   2.538  0.7188 -0.0979  0.5233
  137MOL   H34246854   5.588   2.596   2.578 -0.0443  1.8761  0.7183
  138MOL     C146855   7.598   6.194   7.048 -0.1905  0.1086  0.3929
  138MOL     C246856   7.471   6.231   7.126 -0.5114 -0.0240  0.2401
  138MOL     C346857   7.339   6.210   7.078 -0.7111  0.9909 -0.1500
  138MOL     C446858   7.225   6.233   7.153  0.3444 -0.3561  0.0955
  138MOL     C546859   7.244   6.289   7.282  0.3233  0.8098  0.3220
  138MOL     O646860   7.138   6.300   7.367 -0.3915  0.8722 -0.5089
  138MOL     C746861   7.371   6.314   7.332 -0.0873 -0.3211 -0.3993
  138MOL     C846862   7.485   6.289   7.257  0.6204  0.4059  0.6102
  138MOL     C946863   7.589   6.069   6.947  0.0675 -0.2607  0.0018
  138MOL    H1046864   7.627   6.281   6.989  1.4490  0.1682  1.2565
  138MOL    H1146865   7.325   6.161   6.982 -0.3071  0.6452 -0.0320
  138MOL    H1246866   7.127   6.198   7.124 -1.1740  1.5363  2.7607
  138MOL    H1346867   7.092   6.217   7.368 -0.3186  0.8362  0.1035
  138MOL    H1446868   7.368   6.360   7.430  0.4942 -1.1967  0.0319
  138MOL    H1546869   7.585   6.314   7.289  0.0429 -0.2009  2.9419
  138MOL    H1646870   7.572   6.105   6.845 -1.3140  0.3754  0.4444
  138MOL    H1746871   7.498   6.018   6.979  0.2602 -0.7210 -0.1810
  138MOL    H1846872   7.677   6.178   7.122  1.6201 -0.8125 -1.7094
  138MOL    C1946873   7.706   5.970   6.946 -0.7699 -0.5760  0.0812
  138MOL    C2046874   7.728   5.912   6.811 -0.2404 -0.2840  0.4913
  138MOL    C2146875   7.624   5.838   6.745  0.3659  0.4150  0.2417
  138MOL    C2246876   7.634   5.786   6.618 -0.3583  0.3700 -0.4598
  138MOL    C2346877   7.754   5.804   6.545  0.2490  0.9879  0.1544
  138MOL    O2446878   7.763   5.774   6.414  0.2822 -0.8035 -0.7944
  138MOL    C2546879   7.864   5.864   6.612  0.1871 -0.2660  0.8624
  138MOL    C2646880   7.845   5.917   6.740 -0.4389 -0.2094  0.1026
  138MOL    C2746881   7.704   5.845   7.045  0.1391  0.3131 -0.7455
  138MOL    H2846882   7.799   6.021   6.969 -1.9037  1.2930  0.5615
  138MOL    H2946883   7.533   5.823   6.801  1.9945 -1.4191  2.5318
  138MOL    H3046884   7.546   5.741   6.574  0.4088 -0.9440 -0.6543
  138MOL    H3146885   7.847   5.800   6.379 -0.9099  2.7095 -1.2047
  138MOL    H3246886   7.958   5.881   6.563 -0.2901 -0.9745 -0.3197
  138MOL    H3346887   7.928   5.971   6.783  0.0153  0.3850 -1.4495
  138MOL    H3446888   7.777   5.770   7.014  0.6922  0.1973  0.7850
  138MOL    H3546889   7.608   5.795   7.035  0.1195  0.0879  0.5286
  138MOL    C3646890   7.740   5.876   7.194  0.4840 -0.0343  0.1686
  138MOL    C3746891   7.877   5.945   7.209 -0.4480  0.4429  0.0690
  138MOL    C3846892   7.891   6.064   7.289  0.3325 -0.0448 -0.1728
  138MOL    C3946893   8.016   6.127   7.312  0.0882  0.0237 -0.3068
  138MOL    C4046894   0.085   6.084   7.234  0.0655 -0.1322  0.5883
  138MOL    O4146895   0.206   6.138   7.255 -0.3990 -0.3131 -0.1354
  138MOL    C4246896   0.075   5.964   7.157  0.5304 -0.0354 -0.7811
  138MOL    C4346897   7.995   5.894   7.140 -0.3940  0.1460 -0.5064
  138MOL    C4446898   7.739   5.750   7.276  0.2913  0.0976  0.0999
  138MOL    H4546899   7.672   5.947   7.242 -0.1560 -0.8810  0.5165
  138MOL    H4646900   7.807   6.099   7.348 -1.2017 -2.0039 -1.1446
  138MOL    H4746901   8.015   6.216   7.374  0.0872 -1.6901  2.2259
  138MOL    H4846902   0.184   6.221   7.295  2.1359  0.2286  0.2165
  138MOL    H4946903   0.161   5.936   7.098  1.4996  0.2531  0.4587
  138MOL    H5046904   8.006   5.797   7.093  0.9571  1.5575 -3.2230
  138MOL    H5146905   7.645   5.700   7.249 -0.3825  0.6045  1.4624
  138MOL    H5246906   7.813   5.679   7.239  1.5324  1.0394  0.7423
  138MOL    C5346907   7.746   5.754   7.433  0.2424  0.0497 -0.1969
  138MOL    C5446908   7.638   5.666   7.494  0.0637  0.1045  0.0155
  138MOL    C5546909   7.624   5.531   7.450  0.2910 -1.0886  0.0378
  138MOL    C5646910   7.527   5.445   7.496  0.1168 -0.0125  0.7251
  138MOL    C5746911   7.444   5.491   7.598 -0.4842  0.1097 -0.5445
  138MOL    O5846912   7.342   5.412   7.641 -0.0001  0.0052 -0.4862
  138MOL    C5946913   7.450   5.623   7.643  0.4712 -0.3189  0.1159
  138MOL    C6046914   7.539   5.713   7.584  0.8202 -0.3419 -0.1633
  138MOL    C6146915   7.885   5.724   7.483 -0.1526 -0.3256  0.0407
  138MOL    H6246916   7.730   5.858   7.463  1.7914  0.2031  0.1815
  138MOL    H6346917   7.696   5.485   7.384 -1.4875 -2.2532 -1.1326
  138MOL    H6446918   7.536   5.341   7.468 -0.0882  0.3606 -0.7541
  138MOL    H6546919   7.290   5.437   7.715 -0.2849 -1.4436 -0.1675
  138MOL    H6646920   7.381   5.664   7.715  0.7278 -1.0431  0.7865
  138MOL    H6746921   7.528   5.812   7.624  0.3560 -0.0375 -1.0400
  138MOL    H6846922   7.956   5.800   7.450 -0.3967  0.1546  0.6222
  138MOL    H6946923   7.920   5.635   7.430  0.1281 -2.2047  3.2453
  138MOL    C7046924   7.903   5.695   7.634  0.0777 -0.0770  0.0543
  138MOL    C7146925   7.872   5.811   7.724 -0.1161 -0.2035 -0.9029
  138MOL    C7246926   7.776   5.789   7.828  0.8644  0.4676 -0.8909
  138MOL    C7346927   7.738   5.897   7.907 -0.7199  0.3465  0.1704
  138MOL    C7446928   7.806   6.024   7.894 -0.1383 -0.3724  0.0772
  138MOL    O7546929   7.763   6.125   7.976 -0.3176 -0.2472  0.3322
  138MOL    C7646930   7.899   6.047   7.795 -0.2160  0.1712  0.3198
  138MOL    C7746931   7.930   5.939   7.702 -0.0994 -0.2709 -0.4730
  138MOL    C7846932   0.004   5.622   7.663 -0.0531  0.0909  0.0824
  138MOL    H7946933   7.822   5.625   7.655  0.4077 -0.3441  0.4351
  138MOL    H8046934   7.725   5.694   7.834  2.1037 -0.2968 -2.2976
  138MOL    H8146935   7.665   5.882   7.985  0.8720  0.9846  1.8215
  138MOL    H8246936   7.708   6.095   0.009  0.3717 -2.4351 -0.0343
  138MOL    H8346937   7.938   6.147   7.780  0.2616 -0.0938 -0.2320
  138MOL    H8446938   8.001   5.949   7.621 -0.2505 -0.3424 -0.6147
  138MOL    H8546939   8.030   5.590   7.767 -1.9392 -0.1997 -0.2038
  138MOL    H8646940   0.076   5.701   7.684 -1.1073  1.3771 -1.0105
  138MOL    C8746941   0.057   5.503   7.583 -0.8751 -0.2328  0.0415
  138MOL    C8846942   7.984   5.394   7.567  0.0478 -0.2680  0.0940
  138MOL    C8946943   7.906   5.356   7.677 -0.0501  0.3656  0.0343
  138MOL    C9046944   7.811   5.253   7.667  0.6660 -0.6204  0.5162
  138MOL    C9146945   7.793   5.185   7.544 -1.0054 -0.4166  0.3034
  138MOL    O9246946   7.708   5.074   7.542  0.3598  0.3055  0.5298
  138MOL    C9346947   7.874   5.218   7.429  0.0545 -0.0528  0.2151
  138MOL    C9446948   7.967   5.331   7.448 -0.4947  0.4201  0.5869
  138MOL    C9546949   0.196   5.458   7.640  0.3572 -0.4396 -0.5738
  138MOL    H9646950   0.074   5.548   7.485 -0.9786  0.8838  0.5357
  138MOL    H9746951   7.903   5.401   7.775  0.0083 -0.4714  0.4257
  138MOL    H9846952   7.752   5.225   7.753  3.2900  0.2355  2.7055
  138MOL    H9946953   7.619   5.102   7.557  0.2477  0.1048  0.2290
  138MOL   H10046954   7.855   5.173   7.332 -1.1119  0.3182  0.2638
  138MOL   H10146955   8.031   5.361   7.366 -0.0404  0.1949  0.8609
  138MOL   H10246956   0.161   5.410   7.732 -3.4098  0.4250 -1.4913
  138MOL   H10346957   0.243   5.373   7.591 -2.8219 -4.3074  2.7129
  138MOL   C10446958   0.309   5.559   7.680  0.1528 -0.5000 -0.0083
  138MOL   C10546959   0.330   5.659   7.562 -0.5468  0.6875 -0.2884
  138MOL   C10646960   0.349   5.606   7.429  0.5120 -0.2384  0.3745
  138MOL   C10746961   0.364   5.699   7.324 -0.4238 -0.0340  0.3374
  138MOL   C10846962   0.355   5.840   7.358  0.1398 -0.0533 -0.0504
  138MOL   O10946963   0.367   5.927   7.255 -0.1247 -0.3675 -0.1594
  138MOL   C11046964   0.341   5.890   7.490  0.2743 -0.3546  0.0317
  138MOL   C11146965   0.322   5.795   7.591  0.2534  0.0651  0.1155
  138MOL   C11246966   0.443   5.496   7.724 -0.2344 -0.6340 -0.0635
  138MOL   H11346967   0.276   5.626   7.760  0.7130  1.2057 -1.1608
  138MOL   H11446968   0.357   5.500   7.412 -1.3229 -0.4149  0.4613
  138MOL   H11546969   0.397   5.667   7.227 -2.0286 -1.9811  0.4020
  138MOL   H11646970   0.320   6.009   7.257 -1.3580 -1.1030  1.6385
  138MOL   H11746971   0.322   5.993   7.515  0.3862 -0.3434  0.0697
  138MOL   H11846972   0.305   5.822   7.694  1.2111 -1.4541  0.6858
  138MOL   H11946973   0.462   5.428   7.641 -1.4073  0.0934 -0.9368
  138MOL   H12046974   0.430   5.442   7.818 -0.1765  2.0849  1.5691
  138MOL   C12146975   0.565   5.588   7.722 -0.3373 -0.0405  0.0051
  138MOL   C12246976   0.561   5.701   7.826  0.8230  0.2249  0.0352
  138MOL   C12346977   0.586   5.835   7.788 -0.0441  0.4048  0.7623
  138MOL   C12446978   0.594   5.937   7.885  0.1968 -0.8167  0.2792
  138MOL   C12546979   0.570   5.909   8.021  0.4624 -0.3002  0.1497
  138MOL   O12646980   0.572   6.006   0.079  0.1343  0.0303 -0.3883
  138MOL   C12746981   0.552   5.772   0.016 -0.2289  0.5039 -1.0395
  138MOL   C12846982   0.543   5.669   7.964  0.3139  0.4832 -0.3061
  138MOL   C12946983   0.699   5.503   7.735 -0.4170 -0.4553 -0.3144
  138MOL   H13046984   0.564   5.639   7.625 -2.5148 -1.0432 -0.5429
  138MOL   H13146985   0.604   5.868   7.687 -0.9498 -1.0412  0.1089
  138MOL   H13246986   0.600   6.039   7.851  1.5463 -1.0966 -0.3658
  138MOL   H13346987   0.598   6.089   0.041  1.5874  0.0760  0.6953
  138MOL   H13446988   0.550   5.745   0.120  0.2072  0.6021 -1.0027
  138MOL   H13546989   0.544   5.564   7.991  3.5196 -0.4933 -3.7506
  138MOL   H13646990   0.688   5.397   7.717 -0.0549 -0.8628  1.6848
  138MOL   H13746991   0.726   5.506   7.841 -2.6645 -0.9634  0.3059
  138MOL   C13846992   0.824   5.564   7.662 -0.0800  0.2623 -0.1088
  138MOL   C13946993   0.817   5.574   7.507  0.6667  0.1140 -0.8490
  138MOL   C14046994   0.746   5.467   7.440  0.4177 -0.0675 -0.6023
  138MOL   C14146995   0.717   5.480   7.307 -0.3182 -0.0028  0.0653
  138MOL   C14246996   0.750   5.601   7.243  0.1063  0.2579  0.8379
  138MOL   O14346997   0.723   5.601   7.107 -0.1278 -0.2234 -0.8611
  138MOL   C14446998   0.820   5.702   7.311  0.0602 -0.2593 -0.0037
  138MOL   C14546999   0.851   5.694   7.445  0.0052  0.2615 -0.6463
  138MOL   C14647000   0.961   5.501   7.691 -0.1418 -0.2927 -0.4437
  138MOL   H14747001   0.845   5.664   7.699 -0.4828 -0.3592  1.8157
  138MOL   H14847002   0.735   5.374   7.493 -0.7626 -1.3107 -2.9608
  138MOL   H14947003   0.661   5.409   7.248  0.3201  0.0598 -0.6215
  138MOL   H15047004   0.667   5.675   7.089  1.0802  0.1766 -3.0614
  138MOL   H15147005   0.850   5.783   7.247 -1.5721 -0.5792 -1.1991
  138MOL   H15247006   0.913   5.768   7.494 -0.8057 -0.1830  1.0796
  138MOL   H15347007   1.023   5.500   7.602  0.9812 -0.3001  0.3162
  138MOL   H15447008   0.944   5.394   7.708  3.3580 -0.9742 -0.7704
  138MOL   C15547009   1.031   5.563   7.804 -0.5002  0.3987  0.2489
  138MOL   C15647010   1.079   5.701   7.763 -0.0780  0.4650 -0.2667
  138MOL   C15747011   1.033   5.812   7.833  0.5554 -0.6089 -0.2005
  138MOL   C15847012   1.081   5.943   7.803  0.4887 -0.1304  0.5079
  138MOL   C15947013   1.189   5.957   7.711 -0.0523  0.3904  0.3659
  138MOL   O16047014   1.256   6.076   7.686 -0.0377  0.0759 -0.1646
  138MOL   C16147015   1.225   5.844   7.632 -0.1382 -0.6214  0.7453
  138MOL   C16247016   1.168   5.718   7.657  0.1218  0.9460 -0.0412
  138MOL   C16347017   1.166   5.496   7.858 -0.0084  0.3780 -0.5153
  138MOL   H16447018   0.957   5.564   7.884  0.4166  1.4357  1.1114
  138MOL   H16547019   0.967   5.806   7.918  0.9283 -0.7425  0.0821
  138MOL   H16647020   1.051   6.025   7.868  1.6499  0.9874 -0.3516
  138MOL   H16747021   1.206   6.145   7.645  1.9327  2.6996  1.6957
  138MOL   H16847022   1.295   5.851   7.550 -1.3892  0.4450 -0.2485
  138MOL   H16947023   1.199   5.627   7.609  1.6722  0.5769  1.6141
  138MOL   H17047024   1.239   5.504   7.778 -1.3877 -0.6968 -1.9243
  138MOL   H17147025   1.150   5.391   7.881 -0.5461  0.0164 -2.4100
  138MOL   C17247026   1.234   5.562   7.981  0.3941 -0.1764  0.2610
  138MOL   C17347027   1.369   5.501   8.004  0.4299  0.3034 -1.0077
  138MOL   C17447028   1.468   5.592   0.007  0.2625  0.5062  0.4313
  138MOL   C17547029   1.594   5.538   0.046 -0.5381 -0.5899  0.3707
  138MOL   C17647030   1.614   5.398   0.043 -0.2748  0.1613 -0.4138
  138MOL   O17747031   1.742   5.349   0.061 -0.2318 -1.1508  0.0558
  138MOL   C17847032   1.519   5.307   0.009  0.6131 -0.1744 -0.5081
  138MOL   C17947033   1.390   5.358   8.003 -0.7456  0.5367  0.2450
  138MOL   C18047034   1.163   5.537   0.081 -0.1788 -0.0526 -0.1014
  138MOL   H18147035   1.236   5.668   7.958 -4.0125 -0.5696 -2.5550
  138MOL   H18247036   1.449   5.698   0.003 -0.2138  0.3782 -0.9606
  138MOL   H18347037   1.671   5.606   0.079 -1.1131 -0.3245  1.1730
  138MOL   H18447038   1.808   5.414   0.080 -0.3638 -1.3847  1.3592
  138MOL   H18547039   1.549   5.204   0.004 -1.7776 -0.8538 -1.3768
  138MOL   H18647040   1.314   5.283   7.986  0.2986 -0.4443 -0.2124
  138MOL   H18747041   1.225   5.470   0.142 -0.8348 -0.7574 -0.1942
  138MOL   H18847042   1.074   5.478   0.058 -1.8184  2.2018  0.3108
  138MOL   C18947043   1.117   5.655   0.161 -0.0996 -0.3447 -0.1917
  138MOL   C19047044   1.002   5.624   0.255  0.3573 -0.2507  0.1137
  138MOL   C19147045   0.867   5.646   0.213 -0.5320  0.4681 -0.1749
  138MOL   C19247046   0.759   5.607   0.299  0.5961  0.0899  0.8361
  138MOL   C19347047   0.790   5.546   0.423  0.1550  0.1366 -0.7578
  138MOL   O19447048   0.685   5.503   0.504 -0.0520 -0.2471 -0.0140
  138MOL   C19547049   0.919   5.522   0.453 -0.1882 -0.6263 -0.6554
  138MOL   C19647050   1.028   5.561   0.379  0.4283  0.2365 -0.2242
  138MOL   C19747051   1.228   5.737   0.225  0.3062  0.5156  0.2335
  138MOL   H19847052   1.064   5.711   0.084 -3.3921 -1.7578  0.9698
  138MOL   H19947053   0.845   5.689   0.116 -1.1675 -2.4686 -1.3677
  138MOL   H20047054   0.658   5.613   0.263  0.9487 -1.1907 -0.4188
  138MOL   H20147055   0.606   5.525   0.457  0.7595  1.0659 -0.8021
  138MOL   H20247056   0.946   5.470   0.544 -1.4036  0.0228  0.0871
  138MOL   H20347057   1.133   5.559   0.405 -0.0754  2.2211  2.1716
  138MOL   H20447058   1.290   5.779   0.146 -1.5116  1.0447 -0.9372
  138MOL   H20547059   1.299   5.671   0.274  1.0519  0.3552 -1.0517
  138MOL   C20647060   1.183   5.856   0.320 -0.6755  0.2710 -0.1829
  138MOL   C20747061   1.116   5.976   0.249 -0.5610 -0.8458  0.3065
  138MOL   C20847062   1.161   6.030   0.125 -0.3453  0.2210  0.4965
  138MOL   C20947063   1.099   6.147   0.072  0.5885 -0.2240 -0.1847
  138MOL   C21047064   0.987   6.203   0.140  0.6577  0.2295  0.0463
  138MOL   O21147065   0.920   6.309   0.088 -0.6891 -0.5950  0.4925
  138MOL   C21247066   0.936   6.139   0.257 -0.1494 -0.2387 -0.2395
  138MOL   C21347067   1.003   6.028   0.311  0.2139 -0.2712 -0.3301
  138MOL   C21447068   1.311   5.900   0.399  0.1721 -0.5937  0.0464
  138MOL   H21547069   1.104   5.814   0.382 -1.6635 -2.3637 -3.1325
  138MOL   H21647070   1.241   5.992   0.063  0.9140  0.4354  1.9763
  138MOL   H21747071   1.135   6.198   8.022  0.1103  1.7382  0.7507
  138MOL   H21847072   0.985   6.376   0.076 -1.5507  0.3842  1.1504
  138MOL   H21947073   0.857   6.186   0.313  1.3164 -0.9373  2.5298
  138MOL   H22047074   0.960   5.989   0.402 -0.7908  0.3971 -0.5004
  138MOL   H22147075   1.353   5.808   0.439  0.3979 -0.0760  1.0185
  138MOL   H22247076   1.288   5.963   0.485  0.6684 -1.8551  1.1081
  138MOL   C22347077   1.426   5.975   0.324  0.2988  0.0235  0.0212
  138MOL   C22447078   1.564   5.915   0.355 -0.6150 -0.6282 -0.4779
  138MOL   C22547079   1.641   5.850   0.257 -0.1066  0.5345  0.5977
  138MOL   C22647080   1.774   5.809   0.279 -0.1268  0.4227 -0.3204
  138MOL   C22747081   1.833   5.837   0.406  0.4022 -0.0528  0.4717
  138MOL   O22847082   1.966   5.823   0.426  0.1343  0.1513  0.1523
  138MOL   C22947083   1.757   5.888   0.505  0.6355  0.2766 -0.6640
  138MOL   C23047084   1.621   5.925   0.488 -0.3164 -0.0433 -0.6134
  138MOL   C23147085   1.423   6.128   0.353 -0.0188 -0.2387 -0.1978
  138MOL   H23247086   1.430   5.964   0.216 -0.2817 -0.0322  0.0046
  138MOL   H23347087   1.614   5.844   0.153  0.5126 -1.4702  0.5330
  138MOL   H23447088   1.830   5.778   0.192  2.1033 -0.1495  1.2702
  138MOL   H23547089   2.010   5.892   0.473 -0.8781  0.0312  1.2775
  138MOL   H23647090   1.797   5.916   0.602  1.3619 -3.0024  0.0264
  138MOL   H23747091   1.562   5.981   0.560  0.9051  2.6615 -1.6520
  138MOL   H23847092   1.327   6.168   0.319 -0.3737 -2.8474 -2.5257
  138MOL   H23947093   1.417   6.140   0.461  1.6059 -0.3136 -0.0953
  138MOL   C24047094   1.538   6.209   0.288  1.0115  0.6008  0.3135
  138MOL   C24147095   1.546   6.184   0.137  0.3291  0.7484 -0.2951
  138MOL   C24247096   1.651   6.111   0.070  0.1136  0.3983 -0.7323
  138MOL   C24347097   1.633   6.063   7.977 -0.2859 -0.4672  0.2190
  138MOL   C24447098   1.526   6.113   7.903 -0.4792 -0.5194  0.0418
  138MOL   O24547099   1.509   6.076   7.770 -0.2752 -0.3823  0.1112
  138MOL   C24647100   1.428   6.193   7.959  0.6085  0.1432 -0.4965
  138MOL   C24747101   1.437   6.227   0.060  0.5911  0.0044 -0.1351
  138MOL   C24847102   1.522   6.361   0.317 -0.3943 -0.1562  0.1141
  138MOL   H24947103   1.632   6.172   0.327  0.7230 -0.5962 -0.0968
  138MOL   H25047104   1.719   6.062   0.138  0.7340  2.3791  0.1233
  138MOL   H25147105   1.713   6.005   7.932 -1.2237  0.0921 -2.2273
  138MOL   H25247106   1.419   6.061   7.745  0.1387  0.3991 -1.9485
  138MOL   H25347107   1.348   6.231   7.898  1.1102 -0.0757 -1.2959
  138MOL   H25447108   1.356   6.282   0.107  0.3484 -0.9419  0.5817
  138MOL   H25547109   1.549   6.421   0.231 -1.3784  1.2620  0.7718
  138MOL   H25647110   1.419   6.388   0.341 -0.4407  0.4068 -0.7132
  138MOL   C25747111   1.625   6.408   0.430 -0.1472 -0.1213  0.1116
  138MOL   C25847112   1.709   6.526   0.385  0.2056  0.3215 -0.0382
  138MOL   C25947113   1.656   6.660   0.395  0.0677 -0.2995 -0.3589
  138MOL   C26047114   1.745   6.766   0.358 -0.1103 -0.4216 -0.8203
  138MOL   C26147115   1.879   6.741   0.312  0.3461  0.6294 -0.4570
  138MOL   O26247116   1.966   6.843   0.292  0.3361 -0.7501 -0.2733
  138MOL   C26347117   1.927   6.606   0.307  0.4193  0.0312 -0.1623
  138MOL   C26447118   1.842   6.503   0.346 -0.2312  0.2827  0.2185
  138MOL   C26547119   1.544   6.439   0.559  0.4757 -0.2661  0.4100
  138MOL   H26647120   1.691   6.324   0.450 -0.3673 -0.4899 -0.7023
  138MOL   H26747121   1.558   6.688   0.430  0.4883  0.4256  0.2446
  138MOL   H26847122   1.719   6.871   0.362 -0.3497 -0.4341 -1.7517
  138MOL   H26947123   2.058   6.832   0.308  0.1621 -0.2491  1.1010
  138MOL   H27047124   2.024   6.598   0.260  0.5595  1.0836 -0.0658
  138MOL   H27147125   1.885   6.406   0.329  0.0283  0.5554 -0.6870
  138MOL   H27247126   1.488   6.352   0.593 -1.0689  1.2196  1.7060
  138MOL   H27347127   1.475   6.522   0.547  0.3540 -0.5925 -1.2388
  138MOL   C27447128   1.637   6.469   0.693 -0.3421  0.2523  0.2571
  138MOL   C27547129   1.768   6.381   0.702  0.0244 -0.4462  1.0887
  138MOL   C27647130   1.891   6.443   0.696  0.0048 -0.3584  0.0012
  138MOL   C27747131   2.003   6.361   0.730 -0.4656  0.3179  0.1016
  138MOL   C27847132   1.990   6.226   0.753  0.3228  0.3012  0.7646
  138MOL   O27947133   2.106   6.152   0.781  0.2262 -0.0136  0.0094
  138MOL   C28047134   1.869   6.164   0.742  0.5214 -0.0265  0.5495
  138MOL   C28147135   1.757   6.242   0.713 -0.3628 -0.4232  0.7147
  138MOL   C28247136   1.547   6.468   0.815  0.0349 -0.4783 -0.1319
  138MOL   H28347137   1.661   6.575   0.681 -1.4184  0.4137 -0.6527
  138MOL   H28447138   1.911   6.547   0.673  1.2917 -0.3809  0.9293
  138MOL   H28547139   2.102   6.402   0.743 -1.5878  2.4244  2.3928
  138MOL   H28647140   2.101   6.063   0.748 -0.0895 -0.2032  0.5698
  138MOL   H28747141   1.852   6.059   0.763 -0.1851 -0.0699 -0.2136
  138MOL   H28847142   1.660   6.196   0.717 -0.1019 -1.0237  0.2782
  138MOL   H28947143   1.478   6.552   0.811  0.1024 -0.4235 -0.1619
  138MOL   H29047144   1.473   6.389   0.810  0.3449 -0.8256  0.7558
  138MOL   C29147145   1.625   6.468   0.947 -0.0963 -0.3041  0.5046
  138MOL   C29247146   1.551   6.404   1.062  0.2948 -0.2806 -0.0595
  138MOL   C29347147   1.414   6.432   1.079  0.2546  0.3838  0.3462
  138MOL   C29447148   1.350   6.379   1.195  0.9048 -0.3675  0.8917
  138MOL   C29547149   1.425   6.305   1.286 -0.0540  0.1742  0.3110
  138MOL   O29647150   1.368   6.266   1.400  0.1062  0.3551 -0.2534
  138MOL   C29747151   1.553   6.259   1.252 -0.3287  0.5237 -0.0559
  138MOL   C29847152   1.613   6.310   1.138 -1.2661 -0.2518  0.0216
  138MOL   C29947153   1.688   6.607   0.976  0.1137  0.1108 -0.1681
  138MOL   H30047154   1.706   6.397   0.934 -0.1309 -0.4911  1.2897
  138MOL   H30147155   1.356   6.491   1.009  1.8776  2.1961  0.4784
  138MOL   H30247156   1.245   6.396   1.216  0.8713  0.6710 -0.0942
  138MOL   H30347157   1.433   6.256   1.468 -1.1584  0.3648  0.9665
  138MOL   H30447158   1.604   6.191   1.318  0.2400  1.3582  0.3692
  138MOL   H30547159   1.713   6.272   1.126 -0.5533  0.4385  3.2091
  138MOL   H30647160   1.761   6.632   0.899  0.0142 -1.2199 -0.7129
  138MOL   H30747161   1.740   6.597   1.071 -0.9651  4.5972  1.0137
  138MOL   C30847162   1.589   6.727   0.990  0.6342 -0.1620 -0.1867
  138MOL   C30947163   1.572   6.802   0.856  0.8595 -0.4715  0.5544
  138MOL   C31047164   1.439   6.821   0.817 -0.1604  0.6543  0.8035
  138MOL   C31147165   1.404   6.911   0.718 -0.2752  0.6997 -0.2971
  138MOL   C31247166   1.501   6.975   0.648  0.4268  0.5464  0.0528
  138MOL   O31347167   1.469   7.058   0.541 -0.1298 -0.6725  0.1932
  138MOL   C31447168   1.637   6.967   0.681  0.4157 -0.0818 -0.5431
  138MOL   C31547169   1.672   6.877   0.784 -0.0370 -0.2440  0.0038
  138MOL   C31647170   1.633   6.822   1.103  0.6817 -0.8988  0.3665
  138MOL   H31747171   1.492   6.688   1.022 -0.3010  2.0780 -0.1928
  138MOL   H31847172   1.358   6.773   0.871 -0.4147  0.1135 -0.0472
  138MOL   H31947173   1.307   6.906   0.672 -1.1200  2.1576  1.2354
  138MOL   H32047174   1.533   7.126   0.527 -1.3828  0.6011  0.5100
  138MOL   H32147175   1.715   7.022   0.631  1.2276  0.9800  1.8203
  138MOL   H32247176   1.777   6.880   0.810  0.3649  2.4450 -1.8124
  138MOL   H32347177   1.727   6.868   1.073  0.9863 -1.3228  0.6606
  138MOL   H32447178   1.656   6.769   1.196 -1.8071  0.3019  1.7022
  138MOL   C32547179   1.526   6.935   1.126  0.7246 -0.0383 -0.1508
  138MOL   C32647180   1.590   7.070   1.148 -0.3891 -0.3288  0.7148
  138MOL   C32747181   1.582   7.167   1.049 -0.3110  0.7183 -0.0347
  138MOL   C32847182   1.640   7.299   1.064 -0.0032 -0.1760  0.3773
  138MOL   C32947183   1.701   7.323   1.188 -0.1311  0.5768 -0.3829
  138MOL   O33047184   1.757   7.446   1.204  0.1598 -0.7648  0.1321
  138MOL   C33147185   1.710   7.222   1.291  0.2951  0.0255 -0.0231
  138MOL   C33247186   1.652   7.098   1.273  0.2797  0.0935  0.1602
  138MOL   C33347187   1.420   6.901   1.226 -0.5322 -0.3253 -0.2826
  138MOL   H33447188   1.471   6.954   1.033  3.4515  0.7509 -1.6703
  138MOL   H33547189   1.544   7.153   0.948 -0.2134  0.4772 -0.0388
  138MOL   H33647190   1.632   7.364   0.979 -0.1191  0.6114  0.9858
  138MOL   H33747191   1.755   7.507   1.131  1.3490  1.0607  1.5493
  138MOL   H33847192   1.751   7.246   1.388 -1.7192 -1.7639  1.3000
  138MOL   H33947193   1.647   7.022   1.349 -1.2952  1.8638  1.8756
  138MOL   H34047194   1.340   6.975   1.231  1.0226  1.2675  1.1365
  138MOL   H34147195   1.461   6.885   1.325  2.0841 -1.7032 -1.5275
  138MOL   H34247196   1.367   6.807   1.211 -1.9045  0.3133  0.4879
  139MOL     C147197   1.626   2.574   0.282  0.1427 -0.5450 -0.3946
  139MOL     C247198   1.701   2.703   0.265 -0.3262 -0.4790 -0.6808
  139MOL     C347199   1.840   2.706   0.293  0.3479 -0.2529 -0.6785
  139MOL     C447200   1.916   2.823   0.282  0.2215 -0.2778  0.0557
  139MOL     C547201   1.852   2.938   0.235 -0.1216 -0.3945 -0.8992
  139MOL     O647202   1.928   3.054   0.220  0.2651 -0.7664  0.5425
  139MOL     C747203   1.712   2.934   0.208 -0.4439 -0.1102  0.1848
  139MOL     C847204   1.635   2.818   0.221  0.2481 -0.2063  0.2847
  139MOL     C947205   1.589   2.509   0.150  0.2419  0.6941 -0.1109
  139MOL    H1047206   1.679   2.501   0.343  0.6195  0.1190 -0.0045
  139MOL    H1147207   1.890   2.623   0.340 -0.6637  0.1468  1.1622
  139MOL    H1247208   2.023   2.825   0.297  0.1325  2.3579  0.5652
  139MOL    H1347209   1.872   3.127   0.200  1.1710  0.1693  1.3865
  139MOL    H1447210   1.663   3.022   0.169  1.2212  0.8458  0.1810
  139MOL    H1547211   1.527   2.819   0.212  0.2985  0.0158 -0.3028
  139MOL    H1647212   1.684   2.476   0.108  1.6611  1.2859  2.5088
  139MOL    H1747213   1.544   2.576   0.077 -2.4308 -2.2651 -1.3020
  139MOL    H1847214   1.539   2.608   0.338 -1.0511 -1.2537 -1.7662
  139MOL    C1947215   1.491   2.389   0.166  0.1112 -0.5971 -0.0747
  139MOL    C2047216   1.566   2.264   0.208  0.6893  0.3901 -0.5925
  139MOL    C2147217   1.647   2.190   0.123 -0.1210 -0.2299  0.7645
  139MOL    C2247218   1.711   2.070   0.165 -0.0341 -0.2143 -0.2394
  139MOL    C2347219   1.692   2.032   0.304  0.1183 -0.0782  0.3240
  139MOL    O2447220   1.758   1.925   0.349  0.2987  0.0249 -0.1058
  139MOL    C2547221   1.606   2.106   0.388 -0.4864  0.1076  0.3931
  139MOL    C2647222   1.540   2.222   0.343  0.4974  0.1389 -0.4427
  139MOL    C2747223   1.399   2.362   0.045 -0.6159  1.2067 -0.0931
  139MOL    H2847224   1.421   2.421   0.243 -0.5782  2.8252 -2.0389
  139MOL    H2947225   1.673   2.223   0.023 -1.6654 -1.8282 -0.1813
  139MOL    H3047226   1.762   2.005   0.095  0.5058  0.2787 -0.3166
  139MOL    H3147227   1.788   1.945   0.437  1.7905 -0.4326 -0.5085
  139MOL    H3247228   1.591   2.063   0.486  0.1938 -4.1355 -1.2811
  139MOL    H3347229   1.455   2.256   0.401  0.6553  2.2286 -1.4241
  139MOL    H3447230   1.465   2.343   7.998  0.1372 -1.0745  0.9863
  139MOL    H3547231   1.347   2.453   0.014 -0.5985  1.6371  1.1261
  139MOL    C3647232   1.302   2.238   0.061  0.1306 -0.4637  0.6341
  139MOL    C3747233   1.212   2.229   7.973  0.0637 -0.0011  0.1252
  139MOL    C3847234   1.236   2.132   7.877 -0.0583  0.5424  0.2263
  139MOL    C3947235   1.150   2.117   7.762  0.1989  0.2249 -0.7799
  139MOL    C4047236   1.040   2.196   7.753 -0.1208  0.4258 -0.3409
  139MOL    O4147237   0.975   2.196   7.631 -0.5918  0.0047 -0.0424
  139MOL    C4247238   1.009   2.288   7.849  0.6884  0.5422 -0.0074
  139MOL    C4347239   1.090   2.307   7.960 -0.5971 -0.1288  0.1467
  139MOL    C4447240   1.217   2.243   0.190  0.3041 -0.0060 -0.8013
  139MOL    H4547241   1.358   2.145   0.052  0.4931 -0.0734 -1.6237
  139MOL    H4647242   1.324   2.071   7.894 -0.2100  0.7993  2.0361
  139MOL    H4747243   1.160   2.041   7.685 -0.4877  0.5347 -1.1815
  139MOL    H4847244   0.941   2.281   7.610  3.0429  0.8617 -2.8590
  139MOL    H4947245   0.912   2.334   7.835  0.6747  0.5606  0.1430
  139MOL    H5047246   1.070   2.385   8.032 -0.6831 -1.5580  1.7009
  139MOL    H5147247   1.279   2.248   0.279 -2.0450 -1.4200  0.9704
  139MOL    H5247248   1.164   2.338   0.188  1.2408  0.5790  0.9553
  139MOL    C5347249   1.126   2.118   0.211  0.2983  0.0676  0.6158
  139MOL    C5447250   1.196   1.980   0.201  0.2650 -0.8500  1.1045
  139MOL    C5547251   1.301   1.949   0.290 -0.4052 -0.7567  0.1077
  139MOL    C5647252   1.365   1.823   0.281 -0.3389 -0.5260 -0.1535
  139MOL    C5747253   1.325   1.736   0.172  0.8634 -0.2920 -0.3847
  139MOL    O5847254   1.395   1.625   0.140 -0.0121  0.4363 -0.2630
  139MOL    C5947255   1.214   1.762   0.092 -0.2533  0.0914 -0.0485
  139MOL    C6047256   1.146   1.884   0.104 -0.2425  0.6267 -0.5273
  139MOL    C6147257   1.053   2.140   0.341  0.3827  0.3684 -0.3181
  139MOL    H6247258   1.053   2.118   0.130  0.4901 -2.1553  0.4072
  139MOL    H6347259   1.329   2.018   0.368 -1.0838 -1.3546  0.8882
  139MOL    H6447260   1.447   1.787   0.341 -0.5308 -2.3452 -0.9380
  139MOL    H6547261   1.472   1.625   0.196  0.3179  0.8339 -0.7135
  139MOL    H6647262   1.186   1.688   0.017  0.0460 -1.7583  1.6182
  139MOL    H6747263   1.064   1.922   0.045 -1.3650  2.3163  2.0041
  139MOL    H6847264   1.006   2.238   0.342  0.5309  0.5139 -2.9125
  139MOL    H6947265   1.133   2.135   0.416  0.0309 -1.9532 -0.0560
  139MOL    C7047266   0.932   2.048   0.367  0.2273  0.2290  0.1659
  139MOL    C7147267   0.822   2.048   0.262 -0.4477  0.1515  0.6614
  139MOL    C7247268   0.806   2.162   0.186  0.0067 -0.5421 -0.3531
  139MOL    C7347269   0.708   2.160   0.084  0.9940 -0.2677 -0.0523
  139MOL    C7447270   0.628   2.047   0.065  0.3686  0.0830 -0.4542
  139MOL    O7547271   0.554   2.037   7.990 -0.3501  0.4849 -0.3928
  139MOL    C7647272   0.645   1.932   0.146  0.1815  0.6504  0.1420
  139MOL    C7747273   0.746   1.930   0.246 -0.6124  0.6452 -0.1275
  139MOL    C7847274   0.876   2.079   0.509 -0.1610  0.0740 -0.0252
  139MOL    H7947275   0.965   1.944   0.365 -4.3970 -1.3509 -0.1034
  139MOL    H8047276   0.864   2.251   0.203  0.0192 -0.8349  1.2303
  139MOL    H8147277   0.693   2.244   0.018 -2.4843 -0.4265  0.4500
  139MOL    H8247278   0.508   1.955   7.979 -2.0011  1.1287  1.4851
  139MOL    H8347279   0.588   1.842   0.125  0.0324  0.9255 -0.6618
  139MOL    H8447280   0.778   1.846   0.306 -0.8458  1.7918  1.6644
  139MOL    H8547281   0.768   2.065   0.504 -0.0345 -0.7747 -0.5069
  139MOL    H8647282   0.897   2.182   0.538 -0.5246  0.3905 -0.8846
  139MOL    C8747283   0.920   1.984   0.627 -0.1711  0.3640  0.0172
  139MOL    C8847284   0.868   2.027   0.759 -0.3576 -0.0490 -0.2405
  139MOL    C8947285   0.802   1.932   0.846  0.3366  0.4241 -0.2118
  139MOL    C9047286   0.761   1.977   0.973  0.2560 -0.2611  0.2800
  139MOL    C9147287   0.777   2.110   1.014  0.4008  0.6775 -0.0583
  139MOL    O9247288   0.744   2.154   1.140  0.1824 -0.0249  0.5105
  139MOL    C9347289   0.829   2.207   0.923 -0.0184 -0.2462 -0.1196
  139MOL    C9447290   0.883   2.161   0.802  0.2063  0.3624 -0.4543
  139MOL    C9547291   1.075   1.962   0.635 -0.0787 -0.2099  0.4707
  139MOL    H9647292   0.874   1.888   0.606 -0.1620  0.1259  1.0565
  139MOL    H9747293   0.791   1.827   0.820  1.6018  0.0646  0.6813
  139MOL    H9847294   0.718   1.903   1.039  1.7415  0.3709  1.9930
  139MOL    H9947295   0.700   2.095   1.199 -0.0479 -1.9167 -1.4540
  139MOL   H10047296   0.839   2.309   0.958  2.2493 -0.9249  1.3543
  139MOL   H10147297   0.930   2.235   0.739 -0.2137  1.8094  0.8848
  139MOL   H10247298   1.131   1.957   0.541  0.4061 -3.1353  0.8428
  139MOL   H10347299   1.113   2.042   0.699  1.1156  0.0326 -0.5308
  139MOL   C10447300   1.119   1.824   0.688 -0.5129 -0.5574 -0.1359
  139MOL   C10547301   1.266   1.826   0.741  0.3986 -0.0097  0.7032
  139MOL   C10647302   1.290   1.797   0.875  0.4421 -0.5494 -0.4193
  139MOL   C10747303   1.421   1.802   0.925 -0.5519  0.4057 -0.6955
  139MOL   C10847304   1.526   1.831   0.835  0.5292 -0.0550  0.6534
  139MOL   O10947305   1.653   1.819   0.875  0.2086 -0.1173  0.1449
  139MOL   C11047306   1.507   1.851   0.698 -0.1826  0.3056  0.0471
  139MOL   C11147307   1.377   1.849   0.652 -0.5540 -0.4203 -0.4673
  139MOL   C11247308   1.084   1.717   0.584  0.0769  0.5202 -0.2292
  139MOL   H11347309   1.052   1.811   0.773 -0.2605 -0.1347  0.1338
  139MOL   H11447310   1.213   1.755   0.938 -0.3103 -1.6201 -2.0335
  139MOL   H11547311   1.441   1.776   1.028 -2.5748  1.0920 -0.0919
  139MOL   H11647312   1.718   1.831   0.808 -0.8552  3.0691 -0.3997
  139MOL   H11747313   1.587   1.856   0.625 -0.5935  0.7391 -0.3814
  139MOL   H11847314   1.354   1.869   0.549 -1.5639 -1.6365 -0.4946
  139MOL   H11947315   1.156   1.715   0.502 -1.3429  0.7080 -1.5038
  139MOL   H12047316   0.988   1.744   0.541  0.0284 -0.3861 -0.6975
  139MOL   C12147317   1.075   1.569   0.633 -0.3170  0.1272 -0.6982
  139MOL   C12247318   0.998   1.485   0.536 -0.1375  0.2588 -0.7291
  139MOL   C12347319   1.041   1.461   0.400 -0.3507  0.2762  0.0539
  139MOL   C12447320   0.969   1.375   0.312  0.7224 -0.9762 -0.6643
  139MOL   C12547321   0.862   1.296   0.368 -0.0121 -0.1771 -0.0234
  139MOL   O12647322   0.796   1.209   0.286 -0.4605  0.2894 -0.3907
  139MOL   C12747323   0.826   1.308   0.505  0.5018  0.2401 -0.4559
  139MOL   C12847324   0.889   1.412   0.582  0.1361  0.3568  0.9229
  139MOL   C12947325   1.220   1.508   0.639  0.3405  0.0758 -0.0188
  139MOL   H13047326   1.032   1.572   0.733 -0.2501  0.6716 -0.6809
  139MOL   H13147327   1.126   1.507   0.353 -0.6512 -0.2202 -0.9884
  139MOL   H13247328   0.984   1.377   0.205  0.2654  2.5726 -0.7341
  139MOL   H13347329   0.738   1.146   0.327  0.1591  0.2710  0.4863
  139MOL   H13447330   0.743   1.256   0.549  1.4044  0.4060  1.5017
  139MOL   H13547331   0.846   1.430   0.679 -1.7704  0.1433  0.1464
  139MOL   H13647332   1.292   1.582   0.672 -0.2373 -0.0027  1.4362
  139MOL   H13747333   1.268   1.494   0.542  0.1438 -0.0160 -0.1046
  139MOL   C13847334   1.239   1.376   0.728 -0.2589  0.7471 -0.6294
  139MOL   C13947335   1.183   1.388   0.870  0.3977 -0.3951 -0.0200
  139MOL   C14047336   1.076   1.314   0.920  0.2861 -0.0952  0.3711
  139MOL   C14147337   1.022   1.337   1.045 -0.3083  0.1190  0.1699
  139MOL   C14247338   1.070   1.444   1.123 -0.6417  0.2498  0.5209
  139MOL   O14347339   0.999   1.482   1.233  0.5157 -0.5961  0.6467
  139MOL   C14447340   1.183   1.516   1.080  0.4188  0.2045 -0.3659
  139MOL   C14547341   1.240   1.485   0.954 -0.0835  0.0346 -0.7118
  139MOL   C14647342   1.383   1.319   0.736  0.4651  0.1955 -0.6329
  139MOL   H14747343   1.168   1.307   0.682  0.4511 -0.1277 -0.4284
  139MOL   H14847344   1.027   1.243   0.855  0.9010  0.2563 -0.4856
  139MOL   H14947345   0.933   1.283   1.072 -1.3306  1.4943 -0.3493
  139MOL   H15047346   0.911   1.449   1.240  0.3366  0.2273  2.7927
  139MOL   H15147347   1.239   1.592   1.134 -0.8353  1.9103 -1.3957
  139MOL   H15247348   1.331   1.532   0.919  0.3342 -0.6797 -0.5709
  139MOL   H15347349   1.378   1.247   0.818  0.0132  1.2034  0.2313
  139MOL   H15447350   1.447   1.398   0.774  0.8006 -1.1544  1.7255
  139MOL   C15547351   1.419   1.245   0.602 -0.6146 -0.1482  0.2349
  139MOL   C15647352   1.321   1.128   0.576  0.0166  0.3767  0.1856
  139MOL   C15747353   1.219   1.148   0.477 -0.8404  0.2316 -0.0116
  139MOL   C15847354   1.124   1.052   0.452 -0.1104 -0.4055  0.2244
  139MOL   C15947355   1.120   0.933   0.526  0.0749  0.1066  0.2966
  139MOL   O16047356   1.014   0.848   0.513 -0.8535  0.1575 -0.5398
  139MOL   C16147357   1.216   0.910   0.630 -0.5899  0.0007 -0.0603
  139MOL   C16247358   1.314   1.011   0.654 -0.1954 -0.0009 -0.2152
  139MOL   C16347359   1.560   1.174   0.603 -0.3508 -0.3953  0.9665
  139MOL   H16447360   1.418   1.319   0.522 -0.7955  1.0239  1.3200
  139MOL   H16547361   1.214   1.239   0.420  3.2731 -0.3052 -1.3851
  139MOL   H16647362   1.057   1.063   0.368 -0.0712 -1.9479 -0.0169
  139MOL   H16747363   0.991   0.799   0.590  0.2260 -1.2962 -1.1391
  139MOL   H16847364   1.216   0.815   0.681  1.6188  0.4058  0.7408
  139MOL   H16947365   1.394   0.998   0.726 -1.1995  0.3266  0.9660
  139MOL   H17047366   1.582   1.108   0.520  2.1102  0.2034  1.1036
  139MOL   H17147367   1.572   1.121   0.698  1.1611  0.6027  1.3629
  139MOL   C17247368   1.676   1.274   0.618 -0.1799  0.6826  0.1045
  139MOL   C17347369   1.688   1.381   0.505  0.3424  0.3916 -0.2292
  139MOL   C17447370   1.696   1.337   0.372  0.8227 -1.1723  0.6617
  139MOL   C17547371   1.693   1.429   0.269  0.4588  0.2804  0.2090
  139MOL   C17647372   1.689   1.567   0.297  0.3550  0.4360  0.0560
  139MOL   O17747373   1.691   1.653   0.190 -0.2695  0.0478  0.8620
  139MOL   C17847374   1.681   1.613   0.429  0.3676 -0.1695 -0.1515
  139MOL   C17947375   1.676   1.519   0.536  0.0911  0.3475  0.0638
  139MOL   C18047376   1.814   1.203   0.637  0.9319  0.0504  0.3463
  139MOL   H18147377   1.667   1.318   0.717 -0.9853  0.8516 -0.0409
  139MOL   H18247378   1.695   1.230   0.359  0.4295 -1.1763  0.7146
  139MOL   H18347379   1.708   1.383   0.172  0.4673  0.7027  0.0078
  139MOL   H18447380   1.704   1.745   0.207 -1.6489 -0.1620  3.1857
  139MOL   H18547381   1.678   1.719   0.449 -0.0813 -0.0935 -0.6299
  139MOL   H18647382   1.660   1.552   0.638 -0.8668 -0.0110  0.0369
  139MOL   H18747383   1.888   1.275   0.601 -1.4682  3.1590  1.3418
  139MOL   H18847384   1.805   1.125   0.562 -0.9741 -0.1694  0.7777
  139MOL   C18947385   1.844   1.141   0.770 -0.1768  0.1663  0.1967
  139MOL   C19047386   1.910   1.003   0.768 -0.7574 -0.1621 -0.0176
  139MOL   C19147387   1.830   0.893   0.735 -0.8715  0.1072 -0.0649
  139MOL   C19247388   1.890   0.773   0.726  0.3006  0.0776  0.7981
  139MOL   C19347389   2.024   0.757   0.761 -0.5262  0.6189  0.1339
  139MOL   O19447390   2.081   0.631   0.766  0.7092  0.6056  0.1034
  139MOL   C19547391   2.109   0.864   0.784 -0.7550 -0.3668 -0.0623
  139MOL   C19647392   2.051   0.990   0.796  0.0969  0.4155 -0.0629
  139MOL   C19747393   1.895   1.248   0.867 -0.3808 -0.4017 -0.8011
  139MOL   H19847394   1.748   1.114   0.815  0.7754 -1.6395  1.1935
  139MOL   H19947395   1.724   0.897   0.716 -1.1287 -1.0790  1.1071
  139MOL   H20047396   1.824   0.694   0.692 -0.1982  0.2192  1.4324
  139MOL   H20147397   2.172   0.609   0.782  0.0348 -1.6189  1.0257
  139MOL   H20247398   2.217   0.858   0.793 -0.6911 -0.2612 -0.7388
  139MOL   H20347399   2.110   1.076   0.826 -0.4559  2.1021 -3.5682
  139MOL   H20447400   1.843   1.344   0.872 -0.2105 -0.3298 -0.4088
  139MOL   H20547401   2.003   1.259   0.853 -0.4509 -1.8639 -2.6793
  139MOL   C20647402   1.870   1.198   1.015 -0.4682  0.2744  0.6974
  139MOL   C20747403   1.723   1.184   1.039  0.4544 -0.7266 -0.5413
  139MOL   C20847404   1.644   1.299   1.062 -0.2403  0.8214 -0.6967
  139MOL   C20947405   1.502   1.282   1.081 -1.0580 -0.7558  0.7289
  139MOL   C21047406   1.448   1.153   1.087  0.0311  0.1506 -0.4004
  139MOL   O21147407   1.315   1.143   1.105 -0.2150  0.5209 -0.0840
  139MOL   C21247408   1.529   1.042   1.070 -0.0226 -0.4105 -0.0973
  139MOL   C21347409   1.666   1.055   1.043  0.3057  0.1423 -0.2075
  139MOL   C21447410   1.936   1.288   1.122  0.2113 -0.3851 -0.4817
  139MOL   H21547411   1.916   1.099   1.020 -0.2723  0.3708  0.8152
  139MOL   H21647412   1.688   1.398   1.066  0.3069  0.6126 -1.6389
  139MOL   H21747413   1.437   1.367   1.096  0.2715  0.2059  1.1536
  139MOL   H21847414   1.274   1.226   1.089  0.5355  0.9803  0.3602
  139MOL   H21947415   1.469   0.952   1.069  1.1503 -1.2101 -0.0566
  139MOL   H22047416   1.727   0.967   1.031  1.2275  0.9742 -1.7137
  139MOL   H22147417   1.893   1.251   1.215 -1.7629  0.8186 -0.8752
  139MOL   H22247418   1.890   1.384   1.099  0.0960 -0.4037 -0.3320
  139MOL   C22347419   2.085   1.293   1.139 -0.0230  0.4112 -0.1599
  139MOL   C22447420   2.146   1.155   1.124  0.4271  0.0962 -0.1942
  139MOL   C22547421   2.103   1.041   1.197  0.3132  0.0058  0.5347
  139MOL   C22647422   2.148   0.910   1.181 -0.4134  0.5728  0.7173
  139MOL   C22747423   2.250   0.894   1.088  0.1007 -0.0029 -0.1708
  139MOL   O22847424   2.296   0.769   1.063  0.0728 -0.6412 -0.5013
  139MOL   C22947425   2.304   1.008   1.014 -0.6498 -0.4350  0.1753
  139MOL   C23047426   2.257   1.137   1.038  0.1851  0.0932  0.0415
  139MOL   C23147427   2.128   1.352   1.269 -0.2498  0.1875 -0.3706
  139MOL   H23247428   2.130   1.355   1.062  3.0993 -0.6667  0.7106
  139MOL   H23347429   2.013   1.054   1.256 -0.6376 -0.4345 -0.8029
  139MOL   H23447430   2.104   0.830   1.239 -0.6602 -0.0169 -0.2687
  139MOL   H23547431   2.246   0.699   1.101 -0.7281 -0.4897 -1.2496
  139MOL   H23647432   2.371   0.998   0.930 -1.0108 -0.0622 -0.1587
  139MOL   H23747433   2.299   1.222   0.987  0.7082  0.4393  1.0286
  139MOL   H23847434   2.073   1.294   1.344 -0.6762 -0.1331 -0.9286
  139MOL   H23947435   2.233   1.331   1.286 -1.0956 -2.8995  1.5692
  139MOL   C24047436   2.112   1.500   1.294 -0.0591  0.3848  0.6365
  139MOL   C24147437   2.154   1.533   1.441 -0.7479  0.4423 -0.6089
  139MOL   C24247438   2.061   1.548   1.548  0.2909  0.8168 -0.0058
  139MOL   C24347439   2.096   1.592   1.673 -0.3693  0.4050 -0.3150
  139MOL   C24447440   2.227   1.594   1.710  0.2272 -0.9574  0.6086
  139MOL   O24547441   2.276   1.613   1.835 -0.8129  0.1809  0.5654
  139MOL   C24647442   2.326   1.572   1.613  0.2732  0.5494 -0.8550
  139MOL   C24747443   2.289   1.542   1.477  0.0116 -0.0206  0.9609
  139MOL   C24847444   2.183   1.594   1.187  0.4257  0.7815  0.7112
  139MOL   H24947445   2.008   1.529   1.283 -0.6640 -2.1455 -0.7593
  139MOL   H25047446   1.956   1.542   1.523 -0.3128 -2.2568  3.0558
  139MOL   H25147447   2.028   1.611   1.754 -1.1275 -0.3457 -0.7656
  139MOL   H25247448   2.364   1.580   1.837 -1.3870 -1.4818 -0.4261
  139MOL   H25347449   2.432   1.579   1.632 -0.1358  0.2790  1.8148
  139MOL   H25447450   2.363   1.513   1.404 -0.6316  0.0991  0.2451
  139MOL   H25547451   2.282   1.551   1.173 -0.9584 -2.2968 -0.1509
  139MOL   H25647452   2.138   1.579   1.089 -2.4395 -0.2907  2.1348
  139MOL   C25747453   2.197   1.747   1.222 -0.3411 -0.6467  0.9162
  139MOL   C25847454   2.305   1.808   1.133 -0.2075  0.1947  0.8479
  139MOL   C25947455   2.439   1.803   1.170  0.5003  0.3166 -0.4497
  139MOL   C26047456   2.540   1.861   1.087  0.4811  0.5750  0.4973
  139MOL   C26147457   2.502   1.901   0.957 -0.4626  0.1356  0.3541
  139MOL   O26247458   2.599   1.950   0.876 -0.3820  0.0632  0.1849
  139MOL   C26347459   2.372   1.894   0.910 -0.6451 -0.5522  0.4603
  139MOL   C26447460   2.273   1.852   0.999 -0.1779 -0.3536  0.1374
  139MOL   C26547461   2.066   1.831   1.211  0.2461  0.2541  0.0095
  139MOL   H26647462   2.240   1.747   1.322 -2.6245 -1.5153  1.9215
  139MOL   H26747463   2.460   1.767   1.269 -0.4076 -0.9290 -0.6979
  139MOL   H26847464   2.643   1.853   1.117  0.9954 -0.5401 -1.4539
  139MOL   H26947465   2.685   1.929   0.910  1.2653  1.8768 -2.7218
  139MOL   H27047466   2.355   1.932   0.810  0.5538 -1.1864  0.0107
  139MOL   H27147467   2.177   1.841   0.950 -0.1455 -1.1814  0.2468
  139MOL   H27247468   1.987   1.778   1.264 -0.8938  2.0728  0.1930
  139MOL   H27347469   2.033   1.841   1.107  1.5382  1.2811 -0.3172
  139MOL   C27447470   2.066   1.978   1.272  0.0961 -0.0243 -0.3202
  139MOL   C27547471   2.126   1.996   1.410  0.1443 -0.4094  0.8914
  139MOL   C27647472   2.241   2.075   1.429 -0.3338  0.0760  0.2888
  139MOL   C27747473   2.290   2.088   1.561  0.1625  0.2772 -0.0695
  139MOL   C27847474   2.224   2.019   1.666 -0.1834  0.2169 -0.1397
  139MOL   O27947475   2.288   2.016   1.784  0.6206 -0.2933 -0.5597
  139MOL   C28047476   2.113   1.933   1.640 -0.5673  0.0389  0.0669
  139MOL   C28147477   2.063   1.922   1.510 -0.4115  0.1310  0.2223
  139MOL   C28247478   1.928   2.043   1.268 -0.3321  0.5790  0.6617
  139MOL   H28347479   2.136   2.035   1.211  1.1727 -0.3638  0.5933
  139MOL   H28447480   2.281   2.123   1.341 -0.9299 -0.3045 -0.1978
  139MOL   H28547481   2.378   2.150   1.572 -0.5869  1.1179  1.5194
  139MOL   H28647482   2.232   1.991   1.857 -0.3233  0.7033 -0.9206
  139MOL   H28747483   2.069   1.880   1.724 -1.2173  0.0432 -0.2722
  139MOL   H28847484   1.974   1.864   1.489 -1.0782  0.9245  0.8330
  139MOL   H28947485   1.893   2.033   1.165 -2.1994 -1.2122  1.4277
  139MOL   H29047486   1.856   1.984   1.325  1.9287 -1.2661  1.6459
  139MOL   C29147487   1.919   2.195   1.315  0.4337 -0.4379 -0.5268
  139MOL   C29247488   1.782   2.263   1.340 -0.4540  0.2778  0.0607
  139MOL   C29347489   1.767   2.353   1.445  0.1751  0.5954 -0.5953
  139MOL   C29447490   1.645   2.412   1.464 -0.2959 -0.9039  0.0006
  139MOL   C29547491   1.537   2.389   1.379  0.6094  0.0710 -0.3206
  139MOL   O29647492   1.417   2.451   1.404  0.2860 -0.3509 -0.0765
  139MOL   C29747493   1.552   2.291   1.275  0.6805 -0.3337 -0.3127
  139MOL   C29847494   1.673   2.221   1.260 -0.5686  0.4585  0.1650
  139MOL   C29947495   2.001   2.299   1.222 -0.1452  0.7912  0.0691
  139MOL   H30047496   1.965   2.192   1.414 -1.2288 -0.4883  0.2505
  139MOL   H30147497   1.852   2.382   1.506  0.0401 -0.0095 -0.1196
  139MOL   H30247498   1.631   2.476   1.550 -0.4143  0.8287 -1.2713
  139MOL   H30347499   1.362   2.462   1.328 -0.6131 -0.3961  0.5637
  139MOL   H30447500   1.471   2.272   1.206  2.1513 -0.3661 -2.0791
  139MOL   H30547501   1.689   2.151   1.179 -0.9798  0.2168  0.2918
  139MOL   H30647502   2.104   2.267   1.203 -0.2061  0.3710  0.4447
  139MOL   H30747503   2.002   2.383   1.291  0.3197 -1.6977  3.1836
  139MOL   C30847504   1.935   2.336   1.092 -0.4213 -0.4153 -0.6503
  139MOL   C30947505   1.921   2.237   0.985 -0.5099 -0.4620  0.5374
  139MOL   C31047506   2.030   2.170   0.929 -0.5286 -0.0836 -0.0633
  139MOL   C31147507   2.011   2.069   0.828 -0.4133  0.0744  0.4302
  139MOL   C31247508   1.879   2.036   0.790  0.1269  0.9373 -0.7227
  139MOL   O31347509   1.859   1.933   0.708  0.5623  0.1081 -0.2794
  139MOL   C31447510   1.770   2.106   0.844  0.0210 -0.3645  0.4935
  139MOL   C31547511   1.790   2.206   0.935  0.5147 -0.9694  0.1315
  139MOL   C31647512   1.996   2.466   1.037 -0.3809 -0.7898  0.3910
  139MOL   H31747513   1.840   2.376   1.129  0.1515  2.2370 -1.9100
  139MOL   H31847514   2.121   2.213   0.966 -0.1805 -0.1979 -0.7840
  139MOL   H31947515   2.097   2.016   0.789 -0.3611  2.0564 -2.3241
  139MOL   H32047516   1.924   1.910   0.643  3.0722  0.3124  2.0744
  139MOL   H32147517   1.671   2.085   0.806 -0.3960  1.2917  0.6331
  139MOL   H32247518   1.703   2.269   0.948  0.3310 -0.6686 -2.2467
  139MOL   H32347519   1.933   2.513   0.962 -0.6801 -1.7511  0.0390
  139MOL   H32447520   2.092   2.447   0.989  0.0617 -1.4858  1.5283
  139MOL   C32547521   2.036   2.586   1.138 -0.4091 -0.5840 -0.8339
  139MOL   C32647522   1.934   2.638   1.242 -0.2947 -0.4827 -0.2090
  139MOL   C32747523   1.972   2.648   1.376  0.3435 -0.4306 -0.4001
  139MOL   C32847524   1.875   2.687   1.471 -1.0717  0.3874  0.0423
  139MOL   C32947525   1.746   2.730   1.426 -0.3955 -0.3138  0.7835
  139MOL   O33047526   1.653   2.784   1.515 -0.1998  0.1302 -0.1177
  139MOL   C33147527   1.714   2.720   1.288 -0.6169 -0.4503 -0.7532
  139MOL   C33247528   1.806   2.671   1.194  0.1287 -0.1017 -0.3523
  139MOL   C33347529   2.097   2.698   1.054  0.5039  0.3492 -0.7699
  139MOL   H33447530   2.112   2.543   1.202 -1.3819 -0.3228  0.5303
  139MOL   H33547531   2.067   2.619   1.418  0.6289 -0.2194 -0.9121
  139MOL   H33647532   1.906   2.703   1.573 -0.4367  0.5810 -0.1792
  139MOL   H33747533   1.690   2.786   1.603 -1.8484 -0.2883  0.5976
  139MOL   H33847534   1.622   2.765   1.254 -1.1024 -0.7369  0.1714
  139MOL   H33947535   1.781   2.663   1.090 -1.0705  0.8384 -0.1491
  139MOL   H34047536   2.031   2.759   0.992  1.5845  1.3165 -0.9873
  139MOL   H34147537   2.175   2.652   0.993 -1.6639 -0.7906 -2.7580
  139MOL   H34247538   2.150   2.767   1.119  1.5055 -0.9544 -0.1956
  140MOL     C147539   2.212   1.087   1.623 -0.3755  0.5453  0.0804
  140MOL     C247540   2.311   1.139   1.730  0.1553 -0.2938 -0.0515
  140MOL     C347541   2.447   1.101   1.730 -0.3961 -0.1773  0.8950
  140MOL     C447542   2.536   1.168   1.812 -0.7821  0.5256 -0.1975
  140MOL     C547543   2.487   1.283   1.880  0.6019  0.0648  0.2334
  140MOL     O647544   2.569   1.358   1.961  0.1278 -0.4193  0.6558
  140MOL     C747545   2.349   1.317   1.881 -0.3036 -0.2207 -0.9528
  140MOL     C847546   2.261   1.240   1.812 -0.2099 -0.4052 -0.2145
  140MOL     C947547   2.100   1.001   1.676 -0.1567  0.2479  0.7724
  140MOL    H1047548   2.167   1.173   1.575  0.5160  0.8777 -0.1826
  140MOL    H1147549   2.480   1.019   1.667  1.4373  0.3632  1.1269
  140MOL    H1247550   2.642   1.148   1.813 -0.7009  0.9116 -0.7760
  140MOL    H1347551   2.659   1.331   1.958 -0.1195 -1.1871 -0.3835
  140MOL    H1447552   2.318   1.404   1.938  1.3123  0.6996 -1.4436
  140MOL    H1547553   2.161   1.281   1.807  0.0051  0.1770  0.2220
  140MOL    H1647554   2.066   1.047   1.768 -0.1440  0.7352  0.5353
  140MOL    H1747555   2.141   0.902   1.697  0.0556 -0.6180 -3.2499
  140MOL    H1847556   2.275   1.043   1.545 -0.4370  0.0600  0.2981
  140MOL    C1947557   1.988   0.990   1.571 -0.0228  0.6513  0.6854
  140MOL    C2047558   1.895   1.112   1.570  0.1528  0.0272 -0.0404
  140MOL    C2147559   1.800   1.118   1.459 -0.5496 -0.2854  0.1430
  140MOL    C2247560   1.703   1.217   1.455  0.2616 -0.2684  0.7492
  140MOL    C2347561   1.698   1.315   1.557  0.4604  0.0426 -0.5908
  140MOL    O2447562   1.600   1.413   1.559 -0.1306  0.4109  0.3874
  140MOL    C2547563   1.798   1.315   1.659  0.8595  0.0625 -0.6796
  140MOL    C2647564   1.899   1.218   1.660 -0.1170  0.0845 -0.1647
  140MOL    C2747565   1.906   0.853   1.583 -0.1795  0.0479 -0.0051
  140MOL    H2847566   2.040   0.987   1.476 -1.9291  1.0461 -0.4046
  140MOL    H2947567   1.793   1.032   1.394  0.2280 -0.7187  0.6232
  140MOL    H3047568   1.631   1.216   1.374 -0.2726  0.1101  1.2177
  140MOL    H3147569   1.572   1.421   1.470  0.6789 -0.6011  0.0271
  140MOL    H3247570   1.820   1.398   1.724  0.1359  0.5109 -1.0038
  140MOL    H3347571   1.984   1.228   1.726 -0.9702 -1.8256  1.2853
  140MOL    H3447572   1.986   0.780   1.594 -0.5396 -0.1371  1.5828
  140MOL    H3547573   1.854   0.824   1.492 -1.3636 -0.4329  0.8109
  140MOL    C3647574   1.799   0.856   1.709  0.0892  0.3797  0.3398
  140MOL    C3747575   1.848   0.878   1.847 -0.3547  0.4972 -0.4851
  140MOL    C3847576   1.779   0.969   1.934 -0.1050  0.1056  0.5725
  140MOL    C3947577   1.815   0.987   2.068 -0.1554  0.7600  0.5356
  140MOL    C4047578   1.913   0.900   2.124 -0.1741  0.6437 -0.7282
  140MOL    O4147579   1.929   0.896   2.259 -0.4427  0.6837  0.0017
  140MOL    C4247580   1.984   0.815   2.042  0.2207  0.4098  0.0854
  140MOL    C4347581   1.954   0.806   1.902 -0.1230 -0.2129 -0.8562
  140MOL    C4447582   1.707   0.731   1.704  0.5951 -0.3467 -0.1556
  140MOL    H4547583   1.725   0.934   1.692 -0.3758 -0.4075 -1.3079
  140MOL    H4647584   1.693   1.031   1.910  0.5110  0.7187 -0.1027
  140MOL    H4747585   1.767   1.063   2.128 -0.6429  1.7515 -1.0915
  140MOL    H4847586   1.989   0.825   2.272  1.2006  1.8078 -1.3112
  140MOL    H4947587   2.049   0.739   2.083 -1.3332 -1.9450 -1.7075
  140MOL    H5047588   1.997   0.734   1.834  0.7604  1.2848 -1.8940
  140MOL    H5147589   1.700   0.696   1.601  1.9391  1.5901 -0.9353
  140MOL    H5247590   1.760   0.650   1.754 -0.3298  0.1535  1.6364
  140MOL    C5347591   1.561   0.742   1.744 -0.3820 -0.6526  0.5810
  140MOL    C5447592   1.493   0.847   1.658 -0.8157  0.4310 -0.0260
  140MOL    C5547593   1.451   0.804   1.538 -0.1201  0.1694  0.4003
  140MOL    C5647594   1.390   0.891   1.447  0.0917 -0.2790  0.1085
  140MOL    C5747595   1.368   1.025   1.483  0.3286 -0.5997  0.8384
  140MOL    O5847596   1.308   1.106   1.396  0.4813  0.7609 -0.1443
  140MOL    C5947597   1.398   1.071   1.614  0.8337 -0.1249  0.9006
  140MOL    C6047598   1.465   0.979   1.696 -0.0614  0.6330 -0.5417
  140MOL    C6147599   1.487   0.596   1.745 -0.3578 -0.0567 -0.9544
  140MOL    H6247600   1.546   0.789   1.841  0.8451  1.8006 -0.3913
  140MOL    H6347601   1.467   0.699   1.516  1.9954  0.0055  2.5762
  140MOL    H6447602   1.344   0.850   1.359  0.2504 -0.6513  0.1983
  140MOL    H6547603   1.313   1.071   1.308 -1.0827 -0.5057  0.2388
  140MOL    H6647604   1.377   1.174   1.640  0.1891 -0.0879  0.2583
  140MOL    H6747605   1.489   1.012   1.796  1.1156 -0.4767 -0.4314
  140MOL    H6847606   1.547   0.531   1.809 -1.5221 -1.5581 -1.3747
  140MOL    H6947607   1.495   0.545   1.649  0.1708 -3.2600  0.7466
  140MOL    C7047608   1.340   0.594   1.793 -0.4628  0.6520  0.0016
  140MOL    C7147609   1.318   0.652   1.935 -0.1820  0.3462  0.3359
  140MOL    C7247610   1.253   0.774   1.960 -0.4754 -0.0711 -0.0531
  140MOL    C7347611   1.243   0.829   2.089 -0.0733 -0.0181  0.5140
  140MOL    C7447612   1.297   0.752   2.188  0.1003  0.0732  0.6247
  140MOL    O7547613   1.289   0.794   2.322 -0.5639 -0.1675 -0.9504
  140MOL    C7647614   1.366   0.634   2.166  0.0011  0.3247  0.3579
  140MOL    C7747615   1.373   0.579   2.037  0.3269  0.3881 -0.3462
  140MOL    C7847616   1.290   0.441   1.777 -0.2077 -0.6076  0.4103
  140MOL    H7947617   1.284   0.651   1.718  0.0473  1.1414 -0.0132
  140MOL    H8047618   1.212   0.827   1.875  1.7507  0.2215 -0.9875
  140MOL    H8147619   1.180   0.910   2.123  0.2332 -0.4764  2.2203
  140MOL    H8247620   1.278   0.888   2.325  0.1560 -0.0090 -2.6356
  140MOL    H8347621   1.409   0.568   2.240  0.7241 -0.0498 -0.3910
  140MOL    H8447622   1.424   0.484   2.034 -0.3244 -0.0206  1.0836
  140MOL    H8547623   1.349   0.383   1.848 -1.7874 -3.6450 -0.7048
  140MOL    H8647624   1.313   0.403   1.678  2.0023 -2.8668  1.7409
  140MOL    C8747625   1.139   0.426   1.818 -0.6799 -0.5959 -0.0752
  140MOL    C8847626   1.116   0.282   1.860 -0.7790  0.0708  0.5307
  140MOL    C8947627   1.126   0.184   1.764  0.1270 -0.2233  0.1580
  140MOL    C9047628   1.107   0.052   1.801 -0.1851  1.0434  0.1350
  140MOL    C9147629   1.107   0.021   1.938  0.1151 -0.1890  0.4537
  140MOL    O9247630   1.080   7.927   1.986 -0.8817 -0.3835 -0.2551
  140MOL    C9347631   1.093   0.123   2.030 -0.0619  0.1152 -0.5969
  140MOL    C9447632   1.104   0.253   1.998 -0.5599  0.0625 -0.8926
  140MOL    C9547633   1.039   0.482   1.715 -0.3199 -0.6268 -0.4371
  140MOL    H9647634   1.116   0.493   1.901 -0.1602 -0.1138 -0.3145
  140MOL    H9747635   1.146   0.203   1.660  0.0373  0.9900  0.3570
  140MOL    H9847636   1.118   8.019   1.720 -1.2288  2.6638 -1.4660
  140MOL    H9947637   1.060   7.866   1.916 -0.2440  0.2751 -1.0219
  140MOL   H10047638   1.089   0.086   2.131  2.8534 -1.3880 -0.9756
  140MOL   H10147639   1.106   0.330   2.074 -1.6270  0.1306 -0.9175
  140MOL   H10247640   1.088   0.569   1.671  0.0508  0.0408  1.2557
  140MOL   H10347641   1.031   0.411   1.633 -0.1639  0.5567 -1.4970
  140MOL   C10447642   0.894   0.522   1.763 -0.0764 -0.8074 -0.5291
  140MOL   C10547643   0.887   0.629   1.865 -1.1670 -0.1015  0.3851
  140MOL   C10647644   0.887   0.760   1.816 -0.0198 -0.0699  0.9000
  140MOL   C10747645   0.891   0.873   1.895  0.3409  0.9665  0.4782
  140MOL   C10847646   0.898   0.859   2.035 -0.0441  0.2202  0.2170
  140MOL   O10947647   0.900   0.966   2.115 -0.1619 -0.2851 -0.4980
  140MOL   C11047648   0.906   0.729   2.091 -1.2040  0.3747  0.7746
  140MOL   C11147649   0.894   0.615   2.004  0.7788 -0.4205 -0.4953
  140MOL   C11247650   0.813   0.397   1.807  0.7005  0.3124  0.2784
  140MOL   H11347651   0.855   0.566   1.671  0.7863 -0.3819 -0.6974
  140MOL   H11447652   0.881   0.784   1.711  0.0792  1.3762  1.2091
  140MOL   H11547653   0.890   0.974   1.857 -0.9149  0.3380 -1.2332
  140MOL   H11647654   0.930   0.932   2.198  1.7943  0.5161 -0.8535
  140MOL   H11747655   0.919   0.721   2.198  2.7559 -0.0561  0.3129
  140MOL   H11847656   0.900   0.514   2.042  2.5972  0.2586  1.0853
  140MOL   H11947657   0.855   0.344   1.893 -1.7851 -2.6934 -0.2822
  140MOL   H12047658   0.828   0.320   1.731 -1.4629 -0.6901  0.8506
  140MOL   C12147659   0.658   0.410   1.817 -0.0827  0.5619 -0.0349
  140MOL   C12247660   0.592   0.287   1.749 -0.7332 -0.0676  0.2385
  140MOL   C12347661   0.512   0.303   1.636 -0.0032 -0.1863  0.1385
  140MOL   C12447662   0.468   0.186   1.559 -0.0611  1.1976 -0.0723
  140MOL   C12547663   0.500   0.056   1.608  0.2725 -0.9330  0.2974
  140MOL   O12647664   0.449   7.978   1.548 -0.1837  0.6640  0.1738
  140MOL   C12747665   0.570   0.040   1.731  0.3755  0.1347  0.0400
  140MOL   C12847666   0.616   0.156   1.797 -0.1297 -0.1227  0.5524
  140MOL   C12947667   0.611   0.422   1.961  0.2736  0.4011  0.0899
  140MOL   H13047668   0.628   0.497   1.758  2.2347  2.5077  1.5615
  140MOL   H13147669   0.497   0.406   1.608 -2.0501 -0.7166 -0.8803
  140MOL   H13247670   0.397   0.198   1.480 -0.9371 -0.9485  0.3606
  140MOL   H13347671   0.356   7.982   1.536 -0.2786  1.8734  1.1064
  140MOL   H13447672   0.596   7.979   1.767  1.3476  0.1060 -0.7186
  140MOL   H13547673   0.663   0.150   1.894  0.6414 -2.0936  0.0781
  140MOL   H13647674   0.678   0.497   2.004  0.3236  1.2605 -1.4402
  140MOL   H13747675   0.638   0.327   2.008  0.4579  0.8937  0.9998
  140MOL   C13847676   0.462   0.464   1.994 -0.3978 -0.0821  0.2925
  140MOL   C13947677   0.422   0.600   1.932  0.2372 -0.3431  0.0180
  140MOL   C14047678   0.492   0.716   1.976 -0.0654  0.8979  0.1532
  140MOL   C14147679   0.473   0.840   1.919 -0.5164  0.4903  0.2702
  140MOL   C14247680   0.362   0.849   1.833  0.3736 -0.0449  0.1979
  140MOL   O14347681   0.333   0.977   1.792 -0.0599  0.1768  0.2261
  140MOL   C14447682   0.283   0.741   1.792  0.4342  0.1600 -0.4036
  140MOL   C14547683   0.314   0.620   1.848  0.0310  0.4617  0.7536
  140MOL   C14647684   0.450   0.465   2.149 -0.4920 -0.6151 -0.4088
  140MOL   H14747685   0.404   0.395   1.934 -2.6499  0.4710  1.7811
  140MOL   H14847686   0.581   0.691   2.033  0.3982 -0.0011 -0.9380
  140MOL   H14947687   0.529   0.926   1.953  0.1666  0.1730 -0.0524
  140MOL   H15047688   0.380   1.041   1.843 -0.3089  1.5053 -1.1350
  140MOL   H15147689   0.193   0.743   1.732 -0.6937 -0.8918  1.2291
  140MOL   H15247690   0.252   0.535   1.824  1.4190 -0.2291 -0.4630
  140MOL   H15347691   0.379   0.544   2.171 -1.4584 -1.0228 -1.9999
  140MOL   H15447692   0.544   0.494   2.198 -0.4365 -1.6635  0.1372
  140MOL   C15547693   0.419   0.330   2.195 -0.4132 -0.2489 -0.4311
  140MOL   C15647694   0.282   0.280   2.144 -0.0905 -0.4414 -0.0341
  140MOL   C15747695   0.184   0.368   2.093 -0.1759  0.2802 -0.5431
  140MOL   C15847696   0.071   0.315   2.028  0.4148  0.3578  0.4654
  140MOL   C15947697   0.043   0.181   2.024  0.1226 -0.0315  0.2316
  140MOL   O16047698   7.966   0.139   1.971 -0.1815 -0.1337  0.3327
  140MOL   C16147699   0.138   0.093   2.073  0.1930  0.0561  0.1587
  140MOL   C16247700   0.255   0.140   2.133 -0.2720 -0.2899  0.5337
  140MOL   C16347701   0.457   0.299   2.345  0.1066  0.1429 -0.2428
  140MOL   H16447702   0.485   0.258   2.145  1.3199  1.4781 -0.6845
  140MOL   H16547703   0.205   0.472   2.075 -1.0693  0.3324 -1.2615
  140MOL   H16647704   0.000   0.388   1.992  0.8611 -0.4445 -2.1244
  140MOL   H16747705   7.927   0.053   1.976  0.4724 -0.3492  1.9559
  140MOL   H16847706   0.122   8.024   2.082 -0.1963 -0.1253 -2.4967
  140MOL   H16947707   0.325   0.073   2.180  1.8072  1.1349 -0.4533
  140MOL   H17047708   0.407   0.209   2.382  0.7427 -0.5912 -1.1102
  140MOL   H17147709   0.413   0.374   2.410  1.3143 -2.1334  3.3497
  140MOL   C17247710   0.607   0.275   2.366 -1.1807  0.2569 -0.1218
  140MOL   C17347711   0.645   0.142   2.302  0.2811  0.0161 -0.3875
  140MOL   C17447712   0.724   0.149   2.194 -0.1580  0.7068 -0.5166
  140MOL   C17547713   0.772   0.028   2.129 -0.2685  0.2889 -0.1593
  140MOL   C17647714   0.732   7.940   2.183  0.2289 -0.1259  0.2235
  140MOL   O17747715   0.773   7.828   2.119  0.1197  0.2064 -0.5331
  140MOL   C17847716   0.637   7.939   2.286 -0.6495 -0.3104  0.3136
  140MOL   C17947717   0.596   0.020   2.351 -0.5029  0.0514 -0.6004
  140MOL   C18047718   0.660   0.270   2.519 -0.4077 -0.1795  0.2927
  140MOL   H18147719   0.662   0.350   2.308  1.6043 -0.2695  1.7444
  140MOL   H18247720   0.765   0.242   2.158 -0.1141 -0.3324 -3.2365
  140MOL   H18347721   0.837   0.031   2.043 -1.9598 -1.2150 -1.5338
  140MOL   H18447722   0.835   7.854   2.053  0.5495  1.0806  0.2001
  140MOL   H18547723   0.608   7.849   2.338 -0.1755 -0.8647 -0.3707
  140MOL   H18647724   0.521   0.030   2.428 -0.0928 -0.9949 -0.0538
  140MOL   H18747725   0.604   0.188   2.564  2.2388 -0.8887  2.4565
  140MOL   H18847726   0.642   0.365   2.567  1.6240  0.3610  0.0343
  140MOL   C18947727   0.812   0.240   2.545 -0.1023  0.6387  0.4054
  140MOL   C19047728   0.890   0.367   2.539 -0.4746 -0.1533  0.6595
  140MOL   C19147729   0.899   0.460   2.646  0.3018 -0.1909 -0.1025
  140MOL   C19247730   0.946   0.593   2.629  0.6088  0.4139  0.3219
  140MOL   C19347731   1.017   0.617   2.506  0.6945  0.2519 -0.1850
  140MOL   O19447732   1.083   0.737   2.490  0.3217 -0.0236  0.1168
  140MOL   C19547733   1.014   0.529   2.399  0.1525  0.2675  0.4688
  140MOL   C19647734   0.950   0.406   2.411 -0.0421  0.9556 -0.1558
  140MOL   C19747735   0.831   0.153   2.672  0.4401 -0.1679  0.0653
  140MOL   H19847736   0.848   0.178   2.464 -0.9949  0.9290 -0.2299
  140MOL   H19947737   0.850   0.446   2.741 -0.4367  0.9720 -0.3049
  140MOL   H20047738   0.943   0.664   2.710 -2.9037  0.1333  0.5253
  140MOL   H20147739   1.162   0.736   2.439  0.7432  1.8068  0.6837
  140MOL   H20247740   1.068   0.548   2.308 -0.8353  0.2921 -0.1233
  140MOL   H20347741   0.936   0.337   2.329 -0.0960  1.2395 -0.3834
  140MOL   H20447742   0.765   0.067   2.663  1.1737 -0.4333 -3.2604
  140MOL   H20547743   0.802   0.196   2.768  0.4237 -0.2174  0.0829
  140MOL   C20647744   0.975   0.099   2.699 -0.5218  0.8317  0.5527
  140MOL   C20747745   1.039   0.027   2.587  0.4862 -0.5265 -1.1384
  140MOL   C20847746   1.170   0.048   2.561 -0.3352 -0.0028 -0.0455
  140MOL   C20947747   1.230   8.033   2.446  0.1811  0.1117  0.3899
  140MOL   C21047748   1.156   7.947   2.363 -0.3999  0.0373 -0.7074
  140MOL   O21147749   1.200   7.906   2.240 -0.0339 -0.4328 -0.2678
  140MOL   C21247750   1.023   7.915   2.400  1.3909  0.7840  0.3411
  140MOL   C21347751   0.969   7.977   2.512 -0.3513  0.1314  0.6716
  140MOL   C21447752   1.004   0.018   2.828  0.1199 -0.2936  0.3719
  140MOL   H21547753   1.032   0.188   2.724 -0.9423  1.5874 -1.0809
  140MOL   H21647754   1.230   0.109   2.628  0.3357 -0.0286 -0.6201
  140MOL   H21747755   1.335   0.008   2.422  0.3624 -2.8608 -0.6429
  140MOL   H21847756   1.152   7.930   2.162  0.8552  0.4651 -0.5382
  140MOL   H21947757   0.956   7.851   2.344  2.8792  1.1635 -1.9074
  140MOL   H22047758   0.865   7.962   2.533 -0.0585  1.0075  2.9001
  140MOL   H22147759   1.113   0.021   2.835  0.0958  0.0329  0.6251
  140MOL   H22247760   0.979   7.950   2.823  1.4092 -0.5876  0.0047
  140MOL   C22347761   0.950   0.070   2.962  0.4906 -0.7461 -0.1521
  140MOL   C22447762   0.963   0.218   2.992  0.1807 -0.7978  0.1289
  140MOL   C22547763   1.070   0.302   2.956  0.1535 -0.3696 -0.6922
  140MOL   C22647764   1.067   0.443   2.981  0.2442  0.2341 -0.5432
  140MOL   C22747765   0.950   0.497   3.040  0.0744  0.2620 -0.4993
  140MOL   O22847766   0.931   0.623   3.071  0.2249 -0.2939 -0.9523
  140MOL   C22947767   0.844   0.412   3.071  0.0686  0.4827 -0.3075
  140MOL   C23047768   0.851   0.275   3.046  0.2026 -0.1117  0.0670
  140MOL   C23147769   0.987   8.021   3.084 -1.0666 -0.3288  0.0128
  140MOL   H23247770   0.843   0.049   2.964  0.3743 -0.1881 -0.2682
  140MOL   H23347771   1.157   0.258   2.911 -1.5529 -2.7117 -1.8014
  140MOL   H23447772   1.156   0.503   2.971  0.6192 -0.0579  0.8706
  140MOL   H23547773   0.987   0.692   3.040 -1.8190  1.7943 -0.1826
  140MOL   H23647774   0.752   0.448   3.114  0.2974 -0.2635  0.8078
  140MOL   H23747775   0.765   0.212   3.063 -0.3659  0.8703  0.9403
  140MOL   H23847776   0.902   8.022   3.152 -1.4579 -1.4087 -0.4466
  140MOL   H23947777   0.979   7.915   3.059  0.5095 -0.5632  0.4605
  140MOL   C24047778   1.115   0.008   3.167  0.0660 -0.1315 -0.4108
  140MOL   C24147779   1.081   0.116   3.268  0.5673  0.5037  0.7074
  140MOL   C24247780   0.976   0.097   3.360 -0.1185 -0.1250 -0.0888
  140MOL   C24347781   0.937   0.205   3.440  0.3551  0.5763 -0.0317
  140MOL   C24447782   0.993   0.331   3.419  0.6876 -0.2302 -0.0426
  140MOL   O24547783   0.940   0.443   3.478 -0.1798  0.3126 -0.2599
  140MOL   C24647784   1.091   0.354   3.323  0.1407 -0.3885 -0.4046
  140MOL   C24747785   1.141   0.246   3.254  0.0199 -0.3808 -1.0934
  140MOL   C24847786   1.185   7.923   3.219 -0.0411 -0.2755 -0.3790
  140MOL   H24947787   1.182   0.045   3.089 -1.6553 -0.5749 -2.1379
  140MOL   H25047788   0.920   0.005   3.374 -0.6194  0.3283  0.9769
  140MOL   H25147789   0.858   0.200   3.513  1.9485 -3.1418  1.5580
  140MOL   H25247790   0.992   0.521   3.474 -1.6971  1.4548  1.2713
  140MOL   H25347791   1.122   0.455   3.300 -1.4912 -0.0532 -1.1753
  140MOL   H25447792   1.219   0.266   3.182  0.8302 -1.4715 -0.5174
  140MOL   H25547793   1.107   7.852   3.248  1.4756 -0.7718  2.6857
  140MOL   H25647794   1.248   7.895   3.135 -0.2197 -0.4671 -0.4499
  140MOL   C25747795   1.251   7.929   3.361 -0.3861 -0.1526 -0.2336
  140MOL   C25847796   1.304   7.792   3.402  0.6741  0.1936  0.7690
  140MOL   C25947797   1.414   7.740   3.332  0.5607 -0.1602  0.2431
  140MOL   C26047798   1.486   7.632   3.379  0.5076  0.6005  0.3631
  140MOL   C26147799   1.441   7.575   3.502  0.4146 -0.0817 -0.0788
  140MOL   O26247800   1.505   7.460   3.544  0.3643  0.2057  0.2362
  140MOL   C26347801   1.322   7.616   3.564  0.1826  0.4120  0.1513
  140MOL   C26447802   1.256   7.730   3.515  0.0504  0.0554  0.1043
  140MOL   C26547803   1.371   0.004   3.381  0.3973 -0.3889  0.4979
  140MOL   H26647804   1.175   7.954   3.435 -2.5157 -1.3020 -1.9774
  140MOL   H26747805   1.452   7.795   3.246  1.4989 -1.3511 -0.1188
  140MOL   H26847806   1.576   7.597   3.331 -0.7865 -0.6559 -1.1972
  140MOL   H26947807   1.453   7.383   3.563 -1.9495  1.7883  0.4387
  140MOL   H27047808   1.285   7.563   3.651 -2.7656 -0.7568 -1.7468
  140MOL   H27147809   1.180   7.777   3.575 -0.0689  0.1446 -0.1176
  140MOL   H27247810   1.338   0.100   3.341  0.4975 -1.2717 -1.8185
  140MOL   H27347811   1.446   8.011   3.307 -0.7285 -0.3043 -0.6995
  140MOL   C27447812   1.430   0.012   3.523  0.1783 -0.3061 -0.0272
  140MOL   C27547813   1.323   0.038   3.628  0.6037 -0.2980 -0.2355
  140MOL   C27647814   1.315   7.989   3.743 -0.1104 -0.5294 -0.3104
  140MOL   C27747815   1.232   8.022   3.851 -0.2449 -0.3192 -0.3730
  140MOL   C27847816   1.151   0.095   3.847 -1.0609 -0.3753  0.2272
  140MOL   O27947817   1.069   0.129   3.950 -0.2247 -0.6790 -0.4402
  140MOL   C28047818   1.146   0.177   3.729 -0.0130 -0.0317 -0.0296
  140MOL   C28147819   1.234   0.149   3.625  0.2517 -0.1125  0.3665
  140MOL   C28247820   1.550   0.113   3.534  0.0982  0.7391 -0.3505
  140MOL   H28347821   1.482   7.958   3.548  0.6469  0.3722  1.5155
  140MOL   H28447822   1.395   7.916   3.745  0.2355 -0.1182  3.1662
  140MOL   H28547823   1.219   7.962   3.940 -1.6193  1.0608  0.3865
  140MOL   H28647824   0.996   0.161   3.900 -0.1146 -0.7827 -0.6715
  140MOL   H28747825   1.082   0.264   3.720  0.3294  0.4129  1.7180
  140MOL   H28847826   1.242   0.216   3.541  0.7712  0.4142  0.8321
  140MOL   H28947827   1.613   0.101   3.446  0.8274 -2.0823  0.5339
  140MOL   H29047828   1.514   0.216   3.536  1.8766  1.3472  1.2186
  140MOL   C29147829   1.646   0.090   3.660 -0.0747  0.2744 -0.3988
  140MOL   C29247830   1.720   0.220   3.694  0.0353 -0.3718  0.3530
  140MOL   C29347831   1.724   0.273   3.825 -0.2018 -0.2560  0.2192
  140MOL   C29447832   1.800   0.388   3.854 -0.5968 -0.2010 -0.9914
  140MOL   C29547833   1.878   0.447   3.754 -0.2246  0.9634 -0.0076
  140MOL   O29647834   1.960   0.553   3.779 -0.2083  0.1504 -0.6468
  140MOL   C29747835   1.876   0.396   3.618 -0.3041 -0.6500 -0.8224
  140MOL   C29847836   1.796   0.284   3.593  0.0361  0.0380 -0.6511
  140MOL   C29947837   1.754   8.013   3.644 -0.5842  0.0213 -0.3387
  140MOL   H30047838   1.585   0.070   3.748  1.9432  0.3234  1.0517
  140MOL   H30147839   1.666   0.225   3.901  1.4578 -0.6819  1.2355
  140MOL   H30247840   1.802   0.434   3.952 -0.0398  2.0521 -2.0249
  140MOL   H30347841   1.967   0.572   3.871  2.8846 -1.4007 -0.5003
  140MOL   H30447842   1.927   0.439   3.534 -1.4548  0.5892 -0.9131
  140MOL   H30547843   1.793   0.239   3.494  1.0287 -2.3234  0.3636
  140MOL   H30647844   1.850   0.008   3.683  0.4283 -1.7764 -1.2613
  140MOL   H30747845   1.777   7.996   3.539  0.5934 -1.7615  0.1877
  140MOL   C30847846   1.729   7.870   3.717  0.1422 -0.5696 -0.0074
  140MOL   C30947847   1.685   7.884   3.863  0.0693 -0.4716 -0.1208
  140MOL   C31047848   1.574   7.820   3.913  1.0561  0.7752  0.1138
  140MOL   C31147849   1.544   7.813   4.055 -0.0833  0.0216  0.0388
  140MOL   C31247850   1.622   7.883   4.139  0.8184  0.4996 -0.8860
  140MOL   O31347851   1.594   7.889   4.275 -0.1563  0.1745  0.1857
  140MOL   C31447852   1.731   7.960   4.091  0.4108  0.6825 -0.6936
  140MOL   C31547853   1.767   7.955   3.957 -1.1037  0.4882  0.0209
  140MOL   C31647854   1.853   7.787   3.692  0.0067 -0.7490  0.3351
  140MOL   H31747855   1.646   7.832   3.657  1.2766  0.7936 -2.5189
  140MOL   H31847856   1.521   7.758   3.842 -0.8967  2.3452  0.1507
  140MOL   H31947857   1.452   7.764   4.083  1.3171 -0.7802  3.4380
  140MOL   H32047858   1.502   7.870   4.284  0.1810 -2.6171 -1.7630
  140MOL   H32147859   1.791   8.018   4.160 -0.7155  0.0882  0.8066
  140MOL   H32247860   1.856   8.008   3.924 -1.1441  0.9370  0.6175
  140MOL   H32347861   1.939   7.854   3.701 -3.4148  3.4468  4.2349
  140MOL   H32447862   1.854   7.753   3.588  1.4438 -0.1736  0.1442
  140MOL   C32547863   1.879   7.668   3.794  0.6832  0.0711 -0.4301
  140MOL   C32647864   2.021   7.628   3.807  0.0829  0.6725  0.3657
  140MOL   C32747865   2.089   7.689   3.908 -0.2982 -0.1702 -0.3200
  140MOL   C32847866   2.216   7.646   3.939 -0.0763  0.0084  0.2998
  140MOL   C32947867   2.283   7.549   3.860 -0.1066 -0.1095  0.2817
  140MOL   O33047868   2.411   7.523   3.890 -0.2409 -0.2665  0.1108
  140MOL   C33147869   2.209   7.485   3.758 -0.5595 -0.1700  0.1454
  140MOL   C33247870   2.083   7.524   3.730  0.2313  0.8860 -0.6617
  140MOL   C33347871   1.786   7.551   3.769  0.4989  0.2090 -0.6769
  140MOL   H33447872   1.843   7.693   3.894  0.1317  0.2618 -0.6687
  140MOL   H33547873   2.041   7.769   3.962  0.7082 -0.5425  1.1502
  140MOL   H33647874   2.266   7.690   4.025  0.8433 -3.1779  1.4414
  140MOL   H33747875   2.443   7.560   3.970 -0.9887  2.7351 -0.9104
  140MOL   H33847876   2.255   7.404   3.704  1.2994  1.2984 -0.5644
  140MOL   H33947877   2.028   7.469   3.655  0.2495  1.9366 -1.4659
  140MOL   H34047878   1.682   7.584   3.769  1.2153  2.5542 -2.2013
  140MOL   H34147879   1.785   7.472   3.845 -0.9716 -0.8487 -1.7792
  140MOL   H34247880   1.798   7.508   3.670  2.4170 -0.0562 -0.3500
  141MOL     C147881   2.049   5.795   7.224  0.3667  0.4175 -0.3359
  141MOL     C247882   2.013   5.721   7.100  0.3629  0.3650 -0.0534
  141MOL     C347883   1.913   5.621   7.104  0.2616 -0.1010  0.2897
  141MOL     C447884   1.880   5.540   6.992 -0.3887  0.4112  0.3094
  141MOL     C547885   1.947   5.568   6.874 -0.1243  0.5045 -0.0310
  141MOL     O647886   1.911   5.509   6.752 -0.2591  0.3902 -0.0704
  141MOL     C747887   2.045   5.668   6.865  0.4623 -0.0969 -0.2523
  141MOL     C847888   2.077   5.743   6.974 -0.0713  0.1809 -0.4780
  141MOL     C947889   2.179   5.755   7.293 -0.0759  0.4836  0.3091
  141MOL    H1047890   2.053   5.903   7.208 -1.3260  0.5176 -0.2022
  141MOL    H1147891   1.860   5.599   7.196  0.0837 -2.4506 -0.3504
  141MOL    H1247892   1.808   5.461   6.999 -0.2664 -0.0188 -2.6056
  141MOL    H1347893   1.818   5.493   6.756 -0.6014  1.4482 -2.5788
  141MOL    H1447894   2.104   5.693   6.778  2.0617 -2.3263  0.1710
  141MOL    H1547895   2.153   5.818   6.956  1.1591 -0.9282 -0.0145
  141MOL    H1647896   2.262   5.792   7.232  1.0066 -0.5900  1.1236
  141MOL    H1747897   2.200   5.648   7.294 -0.8968  0.2638 -1.9875
  141MOL    H1847898   1.965   5.780   7.291  0.2563  0.7467 -0.4023
  141MOL    C1947899   2.198   5.810   7.434 -0.8322  0.3899  0.5964
  141MOL    C2047900   2.339   5.774   7.480  0.0240  1.1630 -0.4459
  141MOL    C2147901   2.382   5.643   7.498 -1.1581  0.0197 -0.7593
  141MOL    C2247902   2.516   5.612   7.537  0.4628  0.5691 -0.1646
  141MOL    C2347903   2.603   5.714   7.574 -0.0177 -0.0393 -0.0950
  141MOL    O2447904   2.728   5.691   7.632 -0.0986 -0.1385  0.2082
  141MOL    C2547905   2.563   5.847   7.547 -0.4894  0.2417 -0.1046
  141MOL    C2647906   2.433   5.872   7.500  0.1050 -0.2765 -0.1923
  141MOL    C2747907   2.099   5.764   7.549 -0.0088 -0.1737 -0.2550
  141MOL    H2847908   2.190   5.918   7.422  0.0370  0.5032  1.0746
  141MOL    H2947909   2.317   5.557   7.498 -1.6215  0.2344  3.4223
  141MOL    H3047910   2.532   5.505   7.547  0.5777  0.7093  1.1685
  141MOL    H3147911   2.761   5.607   7.605  2.4109  0.5155  1.1068
  141MOL    H3247912   2.621   5.928   7.588  1.5394  0.4469 -3.1873
  141MOL    H3347913   2.402   5.976   7.493  1.8628  0.2638 -0.1752
  141MOL    H3447914   2.117   5.659   7.575  0.0920 -0.2675 -0.6989
  141MOL    H3547915   1.996   5.777   7.516  0.1909  0.9118 -0.4604
  141MOL    C3647916   2.114   5.851   7.675 -0.1032 -0.2215  0.1331
  141MOL    C3747917   2.072   5.769   7.797 -0.3484 -0.1976  0.3931
  141MOL    C3847918   1.935   5.731   7.803  0.1292  0.2304  0.4539
  141MOL    C3947919   1.890   5.651   7.909 -0.2514  0.6765  0.2504
  141MOL    C4047920   1.984   5.605   8.002 -0.3070 -0.2419  0.3677
  141MOL    O4147921   1.946   5.539   0.075 -0.0319 -0.0680  0.2215
  141MOL    C4247922   2.120   5.640   7.992 -0.3638  0.7146  0.1182
  141MOL    C4347923   2.162   5.728   7.894  0.2421 -0.5793  0.1991
  141MOL    C4447924   2.040   5.988   7.666  0.2894  0.5891  0.5513
  141MOL    H4547925   2.219   5.868   7.699 -0.4892 -0.5688  2.1037
  141MOL    H4647926   1.874   5.771   7.723 -2.2706  0.8247  2.5050
  141MOL    H4747927   1.789   5.614   7.910  0.2332 -0.8361 -2.2968
  141MOL    H4847928   1.994   5.552   0.154 -0.5602 -0.0220  0.5377
  141MOL    H4947929   2.192   5.617   0.033 -0.2243 -2.6311 -0.9089
  141MOL    H5047930   2.264   5.763   7.886 -1.0706  3.6690  0.8031
  141MOL    H5147931   2.053   6.022   7.564 -0.0553 -0.2918  0.2018
  141MOL    H5247932   1.932   5.972   7.673  0.1397 -0.0890 -2.5549
  141MOL    C5347933   2.095   6.095   7.768 -0.0424  0.2357 -0.1650
  141MOL    C5447934   2.244   6.133   7.733  0.8110  0.7421  1.0735
  141MOL    C5547935   2.272   6.197   7.605 -0.1044 -0.2320 -0.4982
  141MOL    C5647936   2.406   6.232   7.581 -0.2861 -0.2169 -0.0600
  141MOL    C5747937   2.513   6.202   7.667 -0.4087  0.0508 -0.8799
  141MOL    O5847938   2.637   6.235   7.630  0.1803 -0.3201  0.2586
  141MOL    C5947939   2.483   6.133   7.786  0.0928  0.3970  0.1024
  141MOL    C6047940   2.350   6.115   7.826 -0.0261 -0.0128  0.6116
  141MOL    C6147941   1.998   6.218   7.784  0.4884  0.5921  0.2667
  141MOL    H6247942   2.093   6.050   7.867 -1.6825  1.4050  0.3713
  141MOL    H6347943   2.195   6.215   7.532  1.4038  1.8084 -1.6179
  141MOL    H6447944   2.434   6.277   7.486  0.1708 -0.4659 -0.0432
  141MOL    H6547945   2.633   6.302   7.564 -1.3715  0.2935  0.9317
  141MOL    H6647946   2.556   6.102   7.859  1.8977 -0.3096 -1.9431
  141MOL    H6747947   2.323   6.081   7.925  2.4481  1.9803  2.0269
  141MOL    H6847948   1.898   6.187   7.812 -0.4302  2.3434 -0.9975
  141MOL    H6947949   1.985   6.261   7.685  0.8646 -0.3096 -0.1801
  141MOL    C7047950   2.051   6.313   7.896  0.3439 -0.6570 -1.3779
  141MOL    C7147951   2.089   6.255   8.029 -0.5375  0.1388 -0.5834
  141MOL    C7247952   2.212   6.295   0.056  1.3609 -0.3574 -1.0240
  141MOL    C7347953   2.233   6.246   0.188 -0.3169  0.7064  0.3460
  141MOL    C7447954   2.148   6.157   0.250 -0.1527  0.2974  0.0274
  141MOL    O7547955   2.172   6.117   0.376  0.3793  0.1228  0.2360
  141MOL    C7647956   2.032   6.101   0.183  0.5506  0.1539 -0.2999
  141MOL    C7747957   2.005   6.163   0.053 -0.1458 -0.5437 -0.3011
  141MOL    C7847958   1.962   6.433   7.919 -0.1234 -0.0529  0.6251
  141MOL    H7947959   2.148   6.348   7.861  0.6970  0.1546  0.3408
  141MOL    H8047960   2.287   6.360   0.012  1.7226 -0.8260 -1.1067
  141MOL    H8147961   2.319   6.272   0.249 -1.4230  1.8392  1.4494
  141MOL    H8247962   2.250   6.163   0.405 -1.1038  1.6489  1.9695
  141MOL    H8347963   1.957   6.035   0.224  0.6976 -0.0182 -0.3101
  141MOL    H8447964   1.920   6.133   8.032  0.4353 -2.5619 -0.1576
  141MOL    H8547965   2.004   6.478   8.009 -1.3537  2.7482 -0.1525
  141MOL    H8647966   1.862   6.394   7.941 -0.1608  1.0835  2.6239
  141MOL    C8747967   1.952   6.531   7.801  0.1261  1.2745  0.7378
  141MOL    C8847968   2.092   6.584   7.773  0.1402  0.3413 -0.1881
  141MOL    C8947969   2.157   6.683   7.852 -0.3996 -0.1039 -0.3118
  141MOL    C9047970   2.286   6.723   7.820  0.2247 -0.1579 -0.5053
  141MOL    C9147971   2.357   6.668   7.710  0.1540 -0.3331 -0.1510
  141MOL    O9247972   2.484   6.693   7.688 -0.0040 -0.0954 -0.6586
  141MOL    C9347973   2.295   6.573   7.632  0.1238 -0.2687  0.4601
  141MOL    C9447974   2.158   6.538   7.658  0.9078  0.9129  0.0154
  141MOL    C9547975   1.855   6.649   7.818  0.6162  0.4020  0.5775
  141MOL    H9647976   1.914   6.482   7.712  0.1778 -0.2019  1.5033
  141MOL    H9747977   2.107   6.716   7.942 -1.2927 -2.8780  0.2608
  141MOL    H9847978   2.329   6.805   7.875 -1.4778 -0.8259  1.9216
  141MOL    H9947979   2.519   6.675   7.602 -1.6308  1.3459 -1.6342
  141MOL   H10047980   2.339   6.520   7.549 -2.5639 -0.1955 -1.0835
  141MOL   H10147981   2.113   6.465   7.593  0.8899  0.9896 -0.0583
  141MOL   H10247982   1.874   6.697   7.914 -2.7418  1.5379  0.7380
  141MOL   H10347983   1.871   6.721   7.738 -3.1484 -0.7560 -1.3090
  141MOL   C10447984   1.700   6.631   7.806 -0.0618 -0.8038 -0.2160
  141MOL   C10547985   1.663   6.564   7.679  0.4265  0.6488  0.0776
  141MOL   C10647986   1.624   6.430   7.677 -0.0396  0.6280 -0.0002
  141MOL   C10747987   1.583   6.371   7.559  0.3903 -0.2503 -0.0832
  141MOL   C10847988   1.583   6.445   7.438 -0.7447 -0.6225 -0.2360
  141MOL   O10947989   1.543   6.379   7.323 -0.3095  0.0273  0.9516
  141MOL   C11047990   1.633   6.575   7.436 -0.9048  0.8485 -0.1503
  141MOL   C11147991   1.668   6.636   7.551 -0.2892  0.4561  0.3316
  141MOL   C11247992   1.628   6.767   7.821 -0.3992  0.1611 -0.0641
  141MOL   H11347993   1.663   6.572   7.889  0.7394  0.3532  0.9981
  141MOL   H11447994   1.623   6.366   7.764  0.0856  1.3632  0.5479
  141MOL   H11547995   1.550   6.268   7.567  1.1198 -0.4312  0.7437
  141MOL   H11647996   1.533   6.288   7.347 -0.0946 -0.7245 -1.6859
  141MOL   H11747997   1.628   6.635   7.346 -2.0341  1.5522  0.3651
  141MOL   H11847998   1.709   6.734   7.534 -0.3977  0.2722 -1.0100
  141MOL   H11947999   1.675   6.827   7.742 -0.0292  1.2445  0.9677
  141MOL   H12048000   1.662   6.810   7.915 -0.0653 -0.9270  0.3115
  141MOL   C12148001   1.478   6.765   7.795  0.1464 -0.0423 -0.0458
  141MOL   C12248002   1.395   6.686   7.888  0.8194 -0.2277 -0.0934
  141MOL   C12348003   1.399   6.715   8.027  0.1462 -0.1746  0.5566
  141MOL   C12448004   1.310   6.652   0.073  0.0777 -0.7163  0.5753
  141MOL   C12548005   1.217   6.556   0.022 -0.7109 -0.2919 -0.5444
  141MOL   O12648006   1.125   6.488   0.104 -0.8269 -0.2188  0.2230
  141MOL   C12748007   1.221   6.531   7.922 -0.1714  0.8875  0.5127
  141MOL   C12848008   1.321   6.580   7.834  0.0476  0.7955  0.7325
  141MOL   C12948009   1.430   6.907   7.794  0.0486  0.8170 -0.1052
  141MOL   H13048010   1.459   6.737   7.691 -0.8394  0.9469 -0.1383
  141MOL   H13148011   1.465   6.790   0.029 -0.1185 -0.2767  1.2002
  141MOL   H13248012   1.321   6.673   0.178  0.5127  2.1217  0.0201
  141MOL   H13348013   1.153   6.507   0.193 -0.9816  1.6882 -0.0964
  141MOL   H13448014   1.144   6.465   7.886 -0.5812  1.6702 -0.0578
  141MOL   H13548015   1.324   6.545   7.731 -0.8413  2.2737  0.1893
  141MOL   H13648016   1.477   6.963   7.713  0.5788 -1.4499 -1.3907
  141MOL   H13748017   1.480   6.954   7.879  0.1287  0.7334 -0.1070
  141MOL   C13848018   1.271   6.931   7.795  0.1543  0.1112 -1.1811
  141MOL   C13948019   1.212   6.881   7.666 -0.7178  0.0177 -0.2932
  141MOL   C14048020   1.115   6.778   7.670 -0.3345 -1.0939  0.1602
  141MOL   C14148021   1.057   6.742   7.545 -0.7139 -0.0708  0.1496
  141MOL   C14248022   1.098   6.801   7.425  0.3430 -0.0992  0.8706
  141MOL   O14348023   1.031   6.776   7.303  0.3391 -0.4199  0.4327
  141MOL   C14448024   1.205   6.896   7.419 -0.2998  0.2974  0.0223
  141MOL   C14548025   1.254   6.930   7.544 -0.1127 -0.4521  0.2063
  141MOL   C14648026   1.224   7.075   7.823  0.2521 -0.0685  0.0509
  141MOL   H14748027   1.236   6.867   7.876  2.5451  1.4389  0.9875
  141MOL   H14848028   1.092   6.729   7.764  0.8349 -3.3472 -0.6923
  141MOL   H14948029   0.976   6.671   7.536 -0.6398 -0.1000 -0.3263
  141MOL   H15048030   1.094   6.802   7.238 -0.9970  0.1845 -0.6232
  141MOL   H15148031   1.233   6.941   7.325 -1.5583  0.6092 -0.2147
  141MOL   H15248032   1.333   7.004   7.550 -0.0126 -0.4269 -1.2180
  141MOL   H15348033   1.116   7.071   7.832  0.1912  0.5267 -0.3716
  141MOL   H15448034   1.252   7.148   7.747  0.7887 -0.8622 -0.5334
  141MOL   C15548035   1.280   7.144   7.957  0.2651 -0.1884  0.3753
  141MOL   C15648036   1.295   7.048   0.035  0.1214  0.4457  0.0340
  141MOL   C15748037   1.421   7.023   0.093  0.5008  0.3011 -0.1154
  141MOL   C15848038   1.436   6.959   0.214 -0.3830 -0.1734 -0.6732
  141MOL   C15948039   1.329   6.907   0.279  0.2336 -0.1639  0.2221
  141MOL   O16048040   1.348   6.856   0.401 -0.5967 -0.2542  0.7580
  141MOL   C16148041   1.204   6.905   0.218 -0.3832  0.3582  0.0826
  141MOL   C16248042   1.185   6.973   0.099  0.5670 -0.3465 -0.7810
  141MOL   C16348043   1.212   7.278   7.999 -0.3763 -0.4632 -0.2986
  141MOL   H16448044   1.379   7.175   7.922  0.4629  0.0801  1.1617
  141MOL   H16548045   1.507   7.070   0.048 -0.6710  0.6723 -2.0487
  141MOL   H16648046   1.535   6.964   0.259 -0.8422  3.5288  0.1526
  141MOL   H16748047   1.393   6.916   0.459 -0.8988 -0.8411  1.6155
  141MOL   H16848048   1.114   6.862   0.258 -1.0936  0.2845 -1.5625
  141MOL   H16948049   1.086   6.982   0.057  0.1894  1.1394  0.4004
  141MOL   H17048050   1.149   7.261   0.048 -0.2824 -0.8354 -0.3043
  141MOL   H17148051   1.143   7.314   7.922  2.1161 -0.1139 -2.4569
  141MOL   C17248052   1.308   7.392   8.037  0.3579 -0.4415  0.3544
  141MOL   C17348053   1.386   7.361   0.126  0.1678 -0.3776  0.5116
  141MOL   C17448054   1.321   7.363   0.245 -0.2908 -0.4124 -0.3892
  141MOL   C17548055   1.393   7.347   0.362 -0.1099 -0.6591 -0.0594
  141MOL   C17648056   1.534   7.331   0.358  0.3414 -0.0708  0.6454
  141MOL   O17748057   1.608   7.294   0.466 -0.2646  0.2066 -0.1589
  141MOL   C17848058   1.597   7.325   0.233 -0.0266  0.0460 -0.1417
  141MOL   C17948059   1.520   7.335   0.115  0.8463 -1.0781 -0.2849
  141MOL   C18048060   1.241   7.529   8.036  0.6619 -0.9670 -0.5157
  141MOL   H18148061   1.378   7.387   7.954  0.7748  2.6471  0.4818
  141MOL   H18248062   1.214   7.375   0.253 -0.2508 -0.2991 -0.0088
  141MOL   H18348063   1.351   7.331   0.460 -1.3292  0.2950 -0.4207
  141MOL   H18448064   1.697   7.286   0.435 -0.8177 -2.6944 -1.0589
  141MOL   H18548065   1.702   7.304   0.214  0.7810  1.7090  2.2841
  141MOL   H18648066   1.574   7.332   0.022  3.5654 -0.9582  1.2452
  141MOL   H18748067   1.183   7.524   0.091 -0.9233 -1.8984 -1.5392
  141MOL   H18848068   1.164   7.540   7.960  1.4431 -0.6025 -1.2549
  141MOL   C18948069   1.334   7.642   0.001 -0.2832  1.0156 -0.4605
  141MOL   C19048070   1.400   7.672   7.908  0.2590  0.0048  0.2402
  141MOL   C19148071   1.337   7.745   7.802  0.2259 -0.0253  0.6186
  141MOL   C19248072   1.418   7.793   7.690  0.2401 -0.3629 -0.0392
  141MOL   C19348073   1.553   7.751   7.672  0.1835 -0.2436  1.2522
  141MOL   O19448074   1.628   7.812   7.576  0.3875 -0.7380  0.2506
  141MOL   C19548075   1.612   7.674   7.777 -0.4848 -0.9964  0.4188
  141MOL   C19648076   1.533   7.632   7.889 -0.5199 -0.6130  0.0726
  141MOL   C19748077   1.270   7.766   0.073  0.0060  0.3367 -0.0012
  141MOL   H19848078   1.419   7.606   0.060 -1.0601 -0.2296 -0.0838
  141MOL   H19948079   1.240   7.790   7.817 -0.0269 -0.7600  1.1980
  141MOL   H20048080   1.386   7.869   7.621  0.4595  1.1539  1.4808
  141MOL   H20148081   1.583   7.841   7.498  0.0311 -0.1962  0.6576
  141MOL   H20248082   1.716   7.646   7.782 -0.4173 -0.8817 -0.2434
  141MOL   H20348083   1.577   7.567   7.964  0.7466  0.2590  0.1028
  141MOL   H20448084   1.247   7.726   0.172 -0.8910  1.5930  0.3061
  141MOL   H20548085   1.185   7.806   0.019  0.4100  2.7424  1.0667
  141MOL   C20648086   1.364   7.882   0.098  0.2568 -1.0640 -0.3722
  141MOL   C20748087   1.504   7.852   0.149 -0.0055  0.0051 -0.3494
  141MOL   C20848088   1.527   7.795   0.275  0.6413  0.6283  0.4183
  141MOL   C20948089   1.650   7.742   0.314 -0.5812  0.1587  0.1145
  141MOL   C21048090   1.758   7.745   0.228 -0.1128 -0.5536  0.1556
  141MOL   O21148091   1.874   7.682   0.259 -0.0047 -0.0917 -0.2793
  141MOL   C21248092   1.741   7.808   0.101  0.1913 -0.4410 -0.7983
  141MOL   C21348093   1.613   7.856   0.060  0.1585 -0.6757  0.3460
  141MOL   C21448094   1.294   7.988   0.185  0.0098  0.2515 -0.4761
  141MOL   H21548095   1.387   7.932   0.004  0.4145 -1.7815 -0.7178
  141MOL   H21648096   1.450   7.776   0.348 -0.5321  1.8509 -0.4857
  141MOL   H21748097   1.653   7.703   0.415 -0.8119  2.1252  0.9096
  141MOL   H21848098   1.888   7.644   0.344 -0.3550  0.0602 -0.1549
  141MOL   H21948099   1.825   7.803   0.033  0.9234  1.4692 -0.0703
  141MOL   H22048100   1.595   7.902   8.001 -2.5644 -1.5045  0.4035
  141MOL   H22148101   1.372   0.024   0.205  1.7487 -1.2828 -1.4568
  141MOL   H22248102   1.270   7.928   0.273  3.5067  0.3592  0.6117
  141MOL   C22348103   1.160   0.020   0.123 -0.0627 -0.4267  0.4229
  141MOL   C22448104   1.170   0.078   8.018 -0.4043 -0.1117 -0.1463
  141MOL   C22548105   1.105   0.018   7.909  0.4650  0.2125  0.3763
  141MOL   C22648106   1.144   0.049   7.774  0.4264 -0.1908 -0.1430
  141MOL   C22748107   1.245   0.147   7.751  0.1653  0.1713 -0.6433
  141MOL   O22848108   1.280   0.174   7.626 -0.4095 -0.6556  0.3180
  141MOL   C22948109   1.301   0.213   7.864  0.2020 -0.2260 -0.2984
  141MOL   C23048110   1.271   0.176   7.997  0.1967 -0.2251 -0.0196
  141MOL   C23148111   1.113   0.127   0.227 -0.2551  0.0736  0.1074
  141MOL   H23248112   1.079   7.986   0.119 -1.2147  0.8438  0.6901
  141MOL   H23348113   1.032   7.978   7.926  0.0558  0.9153  1.9426
  141MOL   H23448114   1.096   8.036   7.691 -0.0244  2.3031 -1.4458
  141MOL   H23548115   1.345   0.241   7.616  1.2927 -2.6519 -2.6817
  141MOL   H23648116   1.372   0.289   7.837 -2.3285  1.5752 -2.0202
  141MOL   H23748117   1.322   0.216   0.046 -1.4540 -0.8384  1.2722
  141MOL   H23848118   1.109   0.079   0.324  0.2672 -0.4525 -0.1267
  141MOL   H23948119   1.188   0.204   0.243  0.1548 -0.2487 -0.2605
  141MOL   C24048120   0.974   0.210   0.199  0.2042  0.3630 -0.8856
  141MOL   C24148121   0.857   0.117   0.168  0.8459 -0.2920  0.3408
  141MOL   C24248122   0.779   0.135   0.055 -0.0553 -0.3754 -0.1589
  141MOL   C24348123   0.666   0.056   0.028 -0.3994  0.1952 -0.7368
  141MOL   C24448124   0.628   7.994   0.121  0.2134  0.0375  0.3363
  141MOL   O24548125   0.524   7.912   0.080 -0.1365  0.2036 -0.6135
  141MOL   C24648126   0.698   7.973   0.244  0.4372  0.1207  0.0935
  141MOL   C24748127   0.815   0.015   0.259 -0.4018  0.3729  0.0531
  141MOL   C24848128   0.945   0.289   0.321 -0.5280  0.1682 -0.1157
  141MOL   H24948129   0.987   0.282   0.118  0.1728  0.0630 -1.1578
  141MOL   H25048130   0.803   0.217   8.027  0.0540  0.7252  1.2267
  141MOL   H25148131   0.611   0.070   7.974 -4.2275 -0.5097  1.2958
  141MOL   H25248132   0.460   7.951   0.023  0.0681 -0.3988 -1.2552
  141MOL   H25348133   0.675   7.899   0.319 -1.5228 -0.4786 -1.0493
  141MOL   H25448134   0.870   8.035   0.350  0.3700 -1.4826 -0.7301
  141MOL   H25548135   0.948   0.220   0.406  1.3772  0.3415 -0.0221
  141MOL   H25648136   1.023   0.362   0.342 -0.6606  0.3004 -0.0805
  141MOL   C25748137   0.802   0.364   0.315 -0.5658 -0.0440  0.4521
  141MOL   C25848138   0.764   0.424   0.451  0.4358  0.2985  0.1048
  141MOL   C25948139   0.826   0.542   0.493 -0.1488 -0.0066  0.0667
  141MOL   C26048140   0.793   0.592   0.621  0.2012 -0.5280 -0.3306
  141MOL   C26148141   0.694   0.538   0.698  0.0724  0.2409 -0.7462
  141MOL   O26248142   0.666   0.597   0.821  0.3180  0.1027  0.0622
  141MOL   C26348143   0.639   0.417   0.662 -0.8584 -0.0601 -0.0890
  141MOL   C26448144   0.676   0.362   0.536  0.1111 -0.2716  0.7436
  141MOL   C26548145   0.810   0.477   0.200 -0.0366  0.4182  0.0681
  141MOL   H26648146   0.723   0.291   0.293 -0.7905  0.2860  0.1524
  141MOL   H26748147   0.905   0.588   0.436 -0.7480  0.0972 -0.6972
  141MOL   H26848148   0.853   0.671   0.663  0.4300 -0.0449 -1.5529
  141MOL   H26948149   0.659   0.534   0.891  1.3562  0.2704  0.3277
  141MOL   H27048150   0.577   0.362   0.730 -0.6959  0.5577  0.5619
  141MOL   H27148151   0.629   0.271   0.503 -0.9521 -0.0516  1.6087
  141MOL   H27248152   0.830   0.423   0.108  1.7077  2.1794 -0.6142
  141MOL   H27348153   0.904   0.531   0.209 -0.8562  1.8483  0.1131
  141MOL   C27448154   0.677   0.564   0.187 -0.3281  0.5866 -0.4239
  141MOL   C27548155   0.558   0.482   0.145  0.8139  0.4775  0.2273
  141MOL   C27648156   0.550   0.429   0.018 -0.0718  0.2507 -0.2609
  141MOL   C27748157   0.433   0.364   8.006  0.4199 -0.2843  0.0327
  141MOL   C27848158   0.333   0.335   0.060 -0.3096  0.1296 -0.4398
  141MOL   O27948159   0.225   0.269   0.009 -0.6806 -0.0951  0.0943
  141MOL   C28048160   0.345   0.379   0.195  0.2640  0.0831  0.5060
  141MOL   C28148161   0.459   0.454   0.243 -0.2930 -0.0595  0.2025
  141MOL   C28248162   0.700   0.687   0.106  0.3209 -0.2827  0.1644
  141MOL   H28348163   0.652   0.597   0.288  0.1859 -1.6748  0.4780
  141MOL   H28448164   0.625   0.451   7.981  0.3471  1.8786  0.6136
  141MOL   H28548165   0.422   0.330   7.904  0.2189 -3.1054  0.9636
  141MOL   H28648166   0.177   0.204   0.057  0.3715 -0.2404  0.9737
  141MOL   H28748167   0.270   0.355   0.269 -0.1534 -0.9817 -0.2582
  141MOL   H28848168   0.471   0.491   0.344 -0.4796  1.8841 -0.4565
  141MOL   H28948169   0.769   0.663   0.026  0.3495  0.6401 -0.0964
  141MOL   H29048170   0.608   0.720   0.057  0.3390  1.7613  1.4568
  141MOL   C29148171   0.763   0.796   0.185 -0.2809 -0.5457  0.3025
  141MOL   C29248172   0.663   0.871   0.266  0.0955 -0.5085  0.0358
  141MOL   C29348173   0.677   0.893   0.405 -0.1794  0.0630  0.6155
  141MOL   C29448174   0.583   0.960   0.478 -0.4381  0.1116 -0.3015
  141MOL   C29548175   0.475   1.020   0.414 -0.6333 -0.2042  0.5059
  141MOL   O29648176   0.383   1.099   0.485 -0.4857 -0.2951  0.2420
  141MOL   C29748177   0.461   1.006   0.281 -0.5079  0.3046  0.2405
  141MOL   C29848178   0.552   0.936   0.205  0.3567  0.0515  1.0561
  141MOL   C29948179   0.845   0.911   0.110  0.3677  0.0458 -0.1588
  141MOL   H30048180   0.828   0.748   0.257  0.4710  0.2685  0.1734
  141MOL   H30148181   0.758   0.849   0.463 -1.9133 -1.0639  2.2576
  141MOL   H30248182   0.607   0.983   0.581 -0.3952 -0.8116 -0.1017
  141MOL   H30348183   0.313   1.103   0.422  0.4683 -0.6004 -0.8617
  141MOL   H30448184   0.373   1.046   0.232 -1.0892 -0.8178  0.3636
  141MOL   H30548185   0.530   0.917   0.101  0.5729 -0.4001  1.0913
  141MOL   H30648186   0.883   0.981   0.184 -0.9774  0.6584 -0.0414
  141MOL   H30748187   0.775   0.972   0.052  0.5291  0.4686  0.0904
  141MOL   C30848188   0.959   0.880   0.011 -0.0239 -0.0150  0.3949
  141MOL   C30948189   1.038   0.762   0.047 -0.2821  0.8917 -0.0674
  141MOL   C31048190   1.074   0.668   7.984  0.4361 -0.2936  0.6460
  141MOL   C31148191   1.153   0.559   8.019 -0.0739 -0.0589 -0.3225
  141MOL   C31248192   1.217   0.556   0.106  0.0761 -0.1428 -0.1221
  141MOL   O31348193   1.305   0.460   0.137 -0.4308  0.3990  0.5983
  141MOL   C31448194   1.183   0.646   0.208  0.8232 -0.3353  1.0323
  141MOL   C31548195   1.095   0.748   0.179 -0.2335  0.0345  0.5483
  141MOL   C31648196   1.061   0.994   8.030  0.8194  0.4934 -0.4941
  141MOL   H31748197   0.919   0.857   7.950  0.9942  1.1955 -0.3169
  141MOL   H31848198   1.045   0.676   7.880  1.4713  1.2090  0.4442
  141MOL   H31948199   1.171   0.488   7.940 -0.3035 -0.0879 -0.3504
  141MOL   H32048200   1.339   0.467   0.225  1.2163  0.5269 -0.0351
  141MOL   H32148201   1.213   0.627   0.310  0.2183 -0.8172  1.1234
  141MOL   H32248202   1.066   0.830   0.242 -2.8979  2.0248 -3.0719
  141MOL   H32348203   1.159   0.969   7.990  0.8130  1.4687 -1.1309
  141MOL   H32448204   1.081   1.018   0.097 -0.0789 -2.6843  0.4764
  141MOL   C32548205   1.012   1.120   7.946  0.2443 -0.0769 -0.1141
  141MOL   C32648206   0.986   1.099   7.795  0.7970 -0.6313 -0.7222
  141MOL   C32748207   1.092   1.077   7.707  0.5735  0.1628 -0.1685
  141MOL   C32848208   1.068   1.068   7.570  0.4473  0.2147 -0.1116
  141MOL   C32948209   0.943   1.082   7.513  0.2110  0.4602 -1.3565
  141MOL   O33048210   0.917   1.081   7.381  0.0768  0.6974 -0.0188
  141MOL   C33148211   0.839   1.120   7.607  0.2221  0.5755 -0.3914
  141MOL   C33248212   0.857   1.114   7.746 -0.2143 -0.0403  0.3177
  141MOL   C33348213   1.122   1.228   7.954 -0.5662 -0.5204 -0.1763
  141MOL   H33448214   0.924   1.173   7.983 -0.2879 -0.5227 -0.7319
  141MOL   H33548215   1.191   1.066   7.749  0.3351 -1.9454 -0.1330
  141MOL   H33648216   1.153   1.058   7.505 -0.0115 -0.1488 -0.6648
  141MOL   H33748217   0.829   1.106   7.356 -0.9417 -1.5534  1.2521
  141MOL   H33848218   0.739   1.139   7.571  0.0132 -0.3068 -0.2706
  141MOL   H33948219   0.770   1.138   7.805  0.7340  0.6069  1.4748
  141MOL   H34048220   1.113   1.260   0.020  1.9334  0.1761 -0.1452
  141MOL   H34148221   1.111   1.319   7.895 -1.3681  0.5071  1.5373
  141MOL   H34248222   1.219   1.189   7.923 -0.6205 -0.3154 -0.6118
  142MOL     C148223   1.275   3.158   7.434  0.1245  0.0543  0.2265
  142MOL     C248224   1.395   3.216   7.511 -0.1361  0.3583  0.3868
  142MOL     C348225   1.509   3.134   7.539  0.5354 -0.0002  0.6278
  142MOL     C448226   1.624   3.184   7.607  0.0627  0.8016 -0.4118
  142MOL     C548227   1.628   3.323   7.630 -0.0176  0.3509 -0.0241
  142MOL     O648228   1.748   3.389   7.676  0.2362 -0.1306 -0.3739
  142MOL     C748229   1.510   3.405   7.610 -0.2575 -0.4277  0.3980
  142MOL     C848230   1.398   3.350   7.555  0.3057 -1.1341  0.2004
  142MOL     C948231   1.196   3.251   7.342 -0.5464 -0.1599 -0.2822
  142MOL    H1048232   1.308   3.072   7.375 -0.6971 -0.1716  0.0837
  142MOL    H1148233   1.502   3.031   7.507  0.1214 -0.4185  1.9873
  142MOL    H1248234   1.714   3.124   7.613 -0.0145  0.8413  1.8071
  142MOL    H1348235   1.731   3.481   7.688 -0.6728 -0.3977  0.4216
  142MOL    H1448236   1.520   3.512   7.624  0.8631 -0.5404  0.5301
  142MOL    H1548237   1.321   3.421   7.532  0.9312 -0.4768  0.1232
  142MOL    H1648238   1.212   3.210   7.243  0.1463  0.5993 -0.4968
  142MOL    H1748239   1.236   3.352   7.335 -1.6281  0.4816  2.1349
  142MOL    H1848240   1.211   3.099   7.499 -2.3581  0.0188 -2.1603
  142MOL    C1948241   1.048   3.274   7.376  0.6049 -0.1051  0.2235
  142MOL    C2048242   0.968   3.319   7.254  0.4966 -0.6814  0.0103
  142MOL    C2148243   1.016   3.417   7.170  0.2269 -0.4128  1.1056
  142MOL    C2248244   0.945   3.452   7.052  0.1310 -0.1850 -0.6055
  142MOL    C2348245   0.816   3.405   7.035 -0.3778  0.1615 -0.4512
  142MOL    O2448246   0.755   3.433   6.913  0.2284  0.4267  0.5102
  142MOL    C2548247   0.755   3.318   7.129  0.0796  0.2256  0.1115
  142MOL    C2648248   0.833   3.276   7.242 -0.1813 -0.3472 -0.2238
  142MOL    C2748249   1.022   3.378   7.493  0.2731  0.4400  0.2511
  142MOL    H2848250   1.007   3.177   7.405 -0.4771  0.4913  0.7284
  142MOL    H2948251   1.114   3.459   7.182  0.4761  0.0188 -1.9840
  142MOL    H3048252   0.999   3.503   6.974  0.9114  0.0589  0.0942
  142MOL    H3148253   0.780   3.511   6.867 -0.4471 -1.1425 -2.6331
  142MOL    H3248254   0.656   3.278   7.112  0.7613 -0.8192 -1.4446
  142MOL    H3348255   0.799   3.205   7.316  1.0096  0.7464  1.3714
  142MOL    H3448256   0.926   3.429   7.485  0.2957  0.6196  1.1168
  142MOL    H3548257   1.088   3.464   7.485 -0.8642  1.3369  0.3934
  142MOL    C3648258   1.024   3.305   7.632 -0.3551 -0.3595  0.9758
  142MOL    C3748259   0.903   3.221   7.659  0.6537  0.2757  0.2145
  142MOL    C3848260   0.776   3.285   7.666  0.1641 -0.7283  0.0686
  142MOL    C3948261   0.664   3.203   7.696  0.3098 -0.0211 -0.5869
  142MOL    C4048262   0.678   3.064   7.700 -0.7637 -0.4639 -0.3186
  142MOL    O4148263   0.573   2.985   7.734  0.3898 -0.0375  0.3768
  142MOL    C4248264   0.800   3.000   7.683  0.1791 -0.4214 -0.4003
  142MOL    C4348265   0.916   3.078   7.671  0.9422 -0.3474  0.1926
  142MOL    C4448266   1.036   3.411   7.749 -1.1372 -0.0445  0.0761
  142MOL    H4548267   1.109   3.237   7.632  0.9087  1.1850  1.7435
  142MOL    H4648268   0.766   3.393   7.667 -0.3573 -0.7787  0.7178
  142MOL    H4748269   0.570   3.252   7.715 -0.3353 -1.7853  0.9041
  142MOL    H4848270   0.590   2.894   7.714  2.8732  0.4369  0.1186
  142MOL    H4948271   0.811   2.893   7.682 -0.2549 -0.4645 -0.9956
  142MOL    H5048272   1.005   3.021   7.648  0.5984 -0.5638 -0.6409
  142MOL    H5148273   1.117   3.482   7.732  0.6592 -1.6906  1.4745
  142MOL    H5248274   0.948   3.474   7.760 -0.8233  0.2563  0.9721
  142MOL    C5348275   1.059   3.342   7.891 -0.1227 -0.0730  0.2326
  142MOL    C5448276   1.208   3.310   7.913  0.2691 -0.0745 -0.1063
  142MOL    C5548277   1.295   3.408   7.959  0.1500  0.0903 -0.2798
  142MOL    C5648278   1.434   3.386   7.964 -0.2289 -0.0062  0.5174
  142MOL    C5748279   1.481   3.255   7.931  0.5034 -0.1109  0.0660
  142MOL    O5848280   1.613   3.227   7.940  0.4109  0.6718 -0.1969
  142MOL    C5948281   1.390   3.157   7.891 -0.4966 -0.4087  0.0368
  142MOL    C6048282   1.254   3.183   7.880  0.3498  0.3985  0.2415
  142MOL    C6148283   1.008   3.436   8.004  0.6108  0.5679  0.3186
  142MOL    H6248284   1.001   3.250   7.899  0.9825 -0.7539  0.5677
  142MOL    H6348285   1.257   3.507   7.981 -1.0300 -0.1735 -1.0753
  142MOL    H6448286   1.505   3.463   7.991  0.2944 -0.3494  0.1128
  142MOL    H6548287   1.629   3.136   7.921 -0.5207  0.9117 -2.2340
  142MOL    H6648288   1.421   3.059   7.860 -1.1743 -0.1912 -1.3582
  142MOL    H6748289   1.201   3.099   7.837  3.4341 -0.4583 -2.1003
  142MOL    H6848290   1.026   3.541   7.978 -0.8570  0.9232  0.7351
  142MOL    H6948291   1.059   3.417   0.060 -3.0580  0.8387  2.4539
  142MOL    C7048292   0.859   3.399   8.028  0.4705  0.3795  0.1899
  142MOL    C7148293   0.785   3.526   0.032 -0.4121  0.0263  0.2473
  142MOL    C7248294   0.693   3.590   7.979 -0.2811 -0.3992 -0.0977
  142MOL    C7348295   0.614   3.698   8.020 -0.9144 -0.8572  0.1445
  142MOL    C7448296   0.634   3.756   0.107 -0.4595 -0.0339  0.2392
  142MOL    O7548297   0.555   3.854   0.145  0.6010  0.3967 -0.8450
  142MOL    C7648298   0.728   3.695   0.195  0.7814 -0.0376  0.1081
  142MOL    C7748299   0.808   3.585   0.159  0.1092 -0.0635 -0.0581
  142MOL    C7848300   0.840   3.285   0.087 -0.2774  1.5711 -0.4144
  142MOL    H7948301   0.814   3.359   7.937  0.0677  0.4412  0.3603
  142MOL    H8048302   0.687   3.558   7.876  2.7814  1.3197 -0.8633
  142MOL    H8148303   0.550   3.743   7.945 -0.2747 -1.5514 -0.8333
  142MOL    H8248304   0.482   3.858   0.084 -0.4175 -1.5225  0.1907
  142MOL    H8348305   0.746   3.741   0.291 -0.3396 -0.5939  0.5925
  142MOL    H8448306   0.883   3.557   0.231 -0.3863 -0.7005  0.2163
  142MOL    H8548307   0.885   3.308   0.183  1.7165  1.1350 -1.2167
  142MOL    H8648308   0.899   3.207   0.038 -0.1544  0.6031  1.2351
  142MOL    C8748309   0.693   3.228   0.092  0.3241 -0.6646  0.3919
  142MOL    C8848310   0.643   3.255   0.231 -0.3968  0.8093 -0.2450
  142MOL    C8948311   0.570   3.368   0.258  0.1586 -0.2693 -0.0917
  142MOL    C9048312   0.535   3.415   0.383  0.4065  0.3822 -0.1333
  142MOL    C9148313   0.561   3.332   0.494 -0.9314 -0.3798 -0.4867
  142MOL    O9248314   0.498   3.359   0.612 -0.0782 -0.1735 -0.0205
  142MOL    C9348315   0.632   3.209   0.476 -0.2533  0.8720  0.0433
  142MOL    C9448316   0.683   3.180   0.343  0.7056  0.2797 -0.5330
  142MOL    C9548317   0.669   3.085   0.047 -0.5875 -0.4106  0.0227
  142MOL    H9648318   0.634   3.294   0.029  0.2794 -0.3828  0.7298
  142MOL    H9748319   0.532   3.433   0.182  0.7751 -0.0180 -0.1818
  142MOL    H9848320   0.477   3.505   0.399  0.8813  0.9224 -1.3903
  142MOL    H9948321   0.517   3.292   0.677  0.4765 -1.6679 -1.6827
  142MOL   H10048322   0.653   3.142   0.558  1.7450 -0.1200 -1.2363
  142MOL   H10148323   0.740   3.089   0.330  0.4998 -0.3948  2.7976
  142MOL   H10248324   0.679   3.098   7.977  1.2505  1.9563  0.4446
  142MOL   H10348325   0.745   3.024   0.098  0.4962  1.3892  0.5874
  142MOL   C10448326   0.537   3.026   0.085  0.1936  0.1812  0.4306
  142MOL   C10548327   0.539   2.876   0.058  0.0617 -0.3420  0.2656
  142MOL   C10648328   0.462   2.822   7.992 -0.8181 -0.3057  0.1889
  142MOL   C10748329   0.451   2.681   7.981 -0.0524 -0.2641 -0.3055
  142MOL   C10848330   0.532   2.602   0.030  0.2635 -0.1635 -0.0973
  142MOL   O10948331   0.521   2.467   0.015 -0.6811  0.1081 -0.4882
  142MOL   C11048332   0.619   2.659   0.124 -0.2074 -0.1044  0.1282
  142MOL   C11148333   0.621   2.795   0.136  0.3067 -0.2345 -0.6206
  142MOL   C11248334   0.418   3.104   0.016 -0.2076  0.2551 -0.0379
  142MOL   H11348335   0.520   3.027   0.193  0.5665 -1.1397  0.5119
  142MOL   H11448336   0.405   2.885   7.926 -1.5421 -1.4493 -0.3054
  142MOL   H11548337   0.389   2.633   7.907  0.7980 -0.4393 -0.9120
  142MOL   H11648338   0.454   2.438   7.993 -1.2423  2.8764 -1.2813
  142MOL   H11748339   0.673   2.598   0.195  1.6729  1.5971  0.1909
  142MOL   H11848340   0.669   2.843   0.220  1.5008  1.3782 -2.2023
  142MOL   H11948341   0.415   3.099   7.945  1.7402  0.9966 -0.1571
  142MOL   H12048342   0.430   3.211   0.031  0.3012  0.5215 -2.1547
  142MOL   C12148343   0.278   3.056   0.089  0.3973  0.1811  0.8629
  142MOL   C12248344   0.248   3.144   0.205 -0.2606  0.7708  0.5263
  142MOL   C12348345   0.265   3.090   0.337  0.0235  0.0037  0.0401
  142MOL   C12448346   0.246   3.182   0.440  0.0834  0.4149 -0.4433
  142MOL   C12548347   0.218   3.316   0.420 -0.4959  0.5234 -0.2606
  142MOL   O12648348   0.223   3.403   0.528  0.1363  0.7784 -0.2825
  142MOL   C12748349   0.196   3.364   0.297 -0.1028  0.2408  0.4160
  142MOL   C12848350   0.208   3.279   0.186  0.3542 -0.3350  0.5064
  142MOL   C12948351   0.166   3.040   8.023 -0.1581  0.5313 -0.0941
  142MOL   H13048352   0.302   2.958   0.131  1.1703  0.0038  0.0328
  142MOL   H13148353   0.301   2.990   0.350  1.1388  0.4709  0.5466
  142MOL   H13248354   0.273   3.145   0.537 -2.1587  2.1606  0.9040
  142MOL   H13348355   0.301   3.379   0.576 -0.7251  0.5606  1.0254
  142MOL   H13448356   0.170   3.468   0.281  0.0380  0.1120 -0.7359
  142MOL   H13548357   0.178   3.322   0.092 -1.1165  1.1008  1.6184
  142MOL   H13648358   0.203   2.971   7.947  1.0517  0.4155  0.5728
  142MOL   H13748359   0.156   3.139   7.978  1.5733  0.6463 -0.2608
  142MOL   C13848360   0.027   2.992   0.031  0.3308  0.1677  0.5495
  142MOL   C13948361   0.020   2.852   0.085 -0.2224  0.2612 -0.3216
  142MOL   C14048362   7.949   2.812   0.170 -0.1712 -0.1282  0.2869
  142MOL   C14148363   7.935   2.684   0.220  0.2698 -0.4766 -0.7582
  142MOL   C14248364   8.029   2.585   0.197 -0.1028 -0.3253  0.2407
  142MOL   O14348365   8.011   2.456   0.254 -0.4324  0.6073  0.7807
  142MOL   C14448366   0.096   2.616   0.110 -1.2427  0.1231  0.2420
  142MOL   C14548367   0.112   2.746   0.054  0.3292  1.1206 -0.9862
  142MOL   C14648368   7.954   3.011   7.964  0.4199 -0.7719 -0.0417
  142MOL   H14748369   0.000   3.052   0.118 -1.0235  4.7096 -2.8010
  142MOL   H14848370   7.867   2.881   0.183  0.8659  1.4748 -1.4694
  142MOL   H14948371   7.846   2.657   0.275  2.4531 -2.0085  2.1550
  142MOL   H15048372   0.056   2.412   0.267 -2.5417 -3.6068  0.8136
  142MOL   H15148373   0.164   2.537   0.084 -1.4776  0.3626 -1.1400
  142MOL   H15248374   0.179   2.758   8.008 -1.4605 -1.5869 -2.9064
  142MOL   H15348375   7.857   2.969   7.992 -0.8828  1.2147 -1.4132
  142MOL   H15448376   7.984   2.951   7.879 -1.7071 -0.0456 -1.3562
  142MOL   C15548377   7.923   3.158   7.918 -0.6605  0.1693  0.5172
  142MOL   C15648378   7.867   3.232   8.035  0.5204  0.3390  0.2105
  142MOL   C15748379   7.951   3.342   0.043  0.2335 -0.6490 -0.3880
  142MOL   C15848380   7.907   3.420   0.153  0.2323  0.5548 -0.0158
  142MOL   C15948381   7.783   3.397   0.218 -0.2995 -0.0828 -0.1898
  142MOL   O16048382   7.762   3.477   0.335  0.5453  0.3668  0.1320
  142MOL   C16148383   7.701   3.295   0.167  0.2594 -0.3967  0.5892
  142MOL   C16248384   7.740   3.207   0.060  0.4301 -0.0741 -0.3860
  142MOL   C16348385   7.824   3.169   7.802  0.1192  0.3152  0.4360
  142MOL   H16448386   8.019   3.196   7.882  0.2333 -0.2370  2.4092
  142MOL   H16548387   0.010   3.352   8.032 -0.5664  1.0394 -1.6612
  142MOL   H16648388   7.973   3.498   0.188 -0.4068  0.8769  0.4729
  142MOL   H16748389   7.847   3.515   0.353  0.2044  0.9124  0.5868
  142MOL   H16848390   7.609   3.273   0.220 -0.1620 -1.7576 -0.6973
  142MOL   H16948391   7.690   3.114   0.038 -1.0261  0.3292  1.1977
  142MOL   H17048392   7.801   3.275   7.791  1.4596  0.6021  0.3080
  142MOL   H17148393   7.733   3.117   7.833 -0.7570  2.2587  1.1802
  142MOL   C17248394   7.864   3.116   7.667 -0.0365 -0.6171 -0.0454
  142MOL   C17348395   8.007   3.146   7.634  0.3138  0.0943  0.6647
  142MOL   C17448396   0.010   3.274   7.586 -0.5451 -0.7305  0.2391
  142MOL   C17548397   0.140   3.294   7.546 -0.7436  0.3489  0.5601
  142MOL   C17648398   0.234   3.189   7.559 -0.2410  0.0076 -0.8005
  142MOL   O17748399   0.368   3.194   7.523  0.0293  0.1007  0.1977
  142MOL   C17848400   0.188   3.057   7.602 -0.4562 -0.2647 -0.0584
  142MOL   C17948401   0.059   3.041   7.643  0.3833  0.1319  0.1494
  142MOL   C18048402   7.761   3.145   7.556  0.0481  0.7014 -0.1087
  142MOL   H18148403   7.851   3.009   7.678 -0.8789 -0.7731 -2.1845
  142MOL   H18248404   7.979   3.357   7.573  0.5062  0.2219  0.6811
  142MOL   H18348405   0.173   3.392   7.515  0.6704 -0.3693 -0.2651
  142MOL   H18448406   0.413   3.131   7.578  0.1912  1.7119  1.9937
  142MOL   H18548407   0.264   2.980   7.595  2.3063  2.4431 -1.1160
  142MOL   H18648408   0.028   2.949   7.690 -1.3309  0.3560 -0.4902
  142MOL   H18748409   7.757   3.252   7.537  0.5167  0.9054  0.9229
  142MOL   H18848410   7.663   3.129   7.602  0.4447 -3.2128 -0.4755
  142MOL   C18948411   7.776   3.063   7.424  0.1468 -0.5710  0.1534
  142MOL   C19048412   7.655   3.089   7.331 -0.2440  0.0300  0.3815
  142MOL   C19148413   7.606   3.217   7.297 -0.5727 -0.2620  0.0304
  142MOL   C19248414   7.490   3.236   7.216  0.8235  0.1870  0.4008
  142MOL   C19348415   7.425   3.118   7.163  0.1354  0.0375  0.2387
  142MOL   O19448416   7.316   3.129   7.078 -0.1069  0.4746 -0.5836
  142MOL   C19548417   7.475   2.989   7.193  0.7706 -0.3101 -0.2298
  142MOL   C19648418   7.582   2.975   7.285  0.7737  0.3937  0.1426
  142MOL   C19748419   7.907   3.093   7.345 -0.2692  0.7064 -0.8600
  142MOL   H19848420   7.784   2.956   7.441 -1.5880 -1.1170 -2.3177
  142MOL   H19948421   7.660   3.303   7.333  3.6865 -4.1819  3.5894
  142MOL   H20048422   7.461   3.335   7.186  0.5359  0.1434  0.5340
  142MOL   H20148423   7.273   3.211   7.095 -1.2256 -0.1978 -0.0961
  142MOL   H20248424   7.420   2.904   7.157  0.2238  0.1228 -0.4415
  142MOL   H20348425   7.603   2.874   7.318 -1.4412 -0.0659  0.2059
  142MOL   H20448426   7.996   3.079   7.406 -1.5592 -1.2681  0.5864
  142MOL   H20548427   7.905   3.199   7.320 -1.1047  0.3864 -2.1894
  142MOL   C20648428   7.935   3.009   7.226  0.2099 -0.2913  0.4501
  142MOL   C20748429   7.950   2.862   7.262  0.8870  0.1598  0.2911
  142MOL   C20848430   0.034   2.815   7.314 -0.1049 -0.2274 -0.5559
  142MOL   C20948431   0.049   2.682   7.345 -0.5965  0.5679 -0.5244
  142MOL   C21048432   7.991   2.584   7.303 -0.2034  0.3872  0.2596
  142MOL   O21148433   8.006   2.449   7.326  0.3793  0.3741  0.3225
  142MOL   C21248434   7.868   2.626   7.253 -0.6927 -0.1433 -0.0442
  142MOL   C21348435   7.852   2.769   7.229 -0.4626  0.6609 -0.2354
  142MOL   C21448436   0.009   3.062   7.132  0.3521  0.1415  0.2986
  142MOL   H21548437   7.839   3.021   7.175  0.2301 -0.0241  0.4790
  142MOL   H21648438   0.112   2.888   7.328  1.1383 -1.4274 -1.1817
  142MOL   H21748439   0.144   2.662   7.391 -0.8099 -0.7798 -0.6609
  142MOL   H21848440   7.960   2.404   7.395 -1.3459  1.7722  0.1358
  142MOL   H21948441   7.789   2.557   7.228 -1.3151  0.0139  1.4251
  142MOL   H22048442   7.773   2.806   7.165  0.0156  2.5664  0.2378
  142MOL   H22148443   0.004   3.001   7.042  2.3157 -1.5277  1.2747
  142MOL   H22248444   0.111   3.044   7.167  0.0577 -3.0956 -0.3490
  142MOL   C22348445   8.033   3.207   7.072 -0.3549  0.1669 -0.6352
  142MOL   C22448446   0.054   3.221   6.928 -0.2753 -0.7371 -0.6969
  142MOL   C22548447   8.010   3.237   6.812 -0.1339 -0.4784 -0.5471
  142MOL   C22648448   0.023   3.220   6.688 -0.1844  0.0762  0.0372
  142MOL   C22748449   0.162   3.185   6.670  0.1310 -0.0978  0.4200
  142MOL   O22848450   0.213   3.157   6.548 -0.5260  0.0195  0.0680
  142MOL   C22948451   0.243   3.175   6.786 -0.0967 -0.3466  0.4930
  142MOL   C23048452   0.190   3.198   6.910 -0.2487 -0.2586 -0.0855
  142MOL   C23148453   0.072   3.304   7.173 -0.0458  0.1411  0.3413
  142MOL   H23248454   7.927   3.232   7.068 -0.4846 -0.5230 -1.9571
  142MOL   H23348455   7.902   3.250   6.818 -0.1297 -0.7839  0.2478
  142MOL   H23448456   7.989   3.239   6.608 -1.4371  0.8555  1.3076
  142MOL   H23548457   0.152   3.140   6.478  0.2071  2.8065 -1.2966
  142MOL   H23648458   0.346   3.145   6.774  0.1286  0.6707 -0.1770
  142MOL   H23748459   0.255   3.170   6.991 -0.0004 -1.2932 -0.6266
  142MOL   H23848460   0.026   3.320   7.271 -0.4637 -0.7443  0.2931
  142MOL   H23948461   0.171   3.267   7.196 -0.0971  1.4124  2.7251
  142MOL   C24048462   0.088   3.452   7.126  0.4348 -0.2156  0.8210
  142MOL   C24148463   8.008   3.509   7.050 -0.3545  0.4664 -0.1233
  142MOL   C24248464   8.024   3.576   6.929 -0.0258 -0.1555 -0.2664
  142MOL   C24348465   7.912   3.627   6.857 -0.0994  0.0021 -0.5526
  142MOL   C24448466   7.779   3.610   6.910 -0.6138 -0.6113 -0.3269
  142MOL   O24548467   7.675   3.657   6.831 -0.4605 -0.1413 -0.0328
  142MOL   C24648468   7.763   3.533   7.025  0.2589 -0.6852  0.0628
  142MOL   C24748469   7.879   3.492   7.095  0.4859 -0.8555 -0.5401
  142MOL   C24848470   0.122   3.539   7.241  0.6239  0.2999  0.2939
  142MOL   H24948471   0.178   3.452   7.063 -0.6979 -2.3352 -0.8419
  142MOL   H25048472   0.086   3.593   6.891  0.3879 -3.1979 -0.5953
  142MOL   H25148473   7.935   3.677   6.764 -1.2690  3.1563  0.8213
  142MOL   H25248474   7.714   3.723   6.776 -0.4911  1.3509  1.7192
  142MOL   H25348475   7.665   3.504   7.057 -0.1693  0.4325 -0.1967
  142MOL   H25448476   7.861   3.432   7.183  1.4924 -0.4896 -0.0751
  142MOL   H25548477   0.031   3.560   7.297 -0.5333 -1.0517 -1.0465
  142MOL   H25648478   0.196   3.484   7.300  0.0847 -2.3232 -1.3994
  142MOL   C25748479   0.189   3.675   7.192  0.2661  0.2863 -0.0909
  142MOL   C25848480   0.177   3.778   7.311 -0.5851 -0.4432  0.4040
  142MOL   C25948481   0.240   3.756   7.436 -0.0179  0.4870  0.0989
  142MOL   C26048482   0.229   3.858   7.531 -0.2628 -0.2577  0.0529
  142MOL   C26148483   0.158   3.983   7.508 -0.2759  0.1570 -0.7983
  142MOL   O26248484   0.159   4.081   7.603 -0.8048 -0.3168  0.2505
  142MOL   C26348485   0.102   3.996   7.383 -0.1929  0.6531  0.3503
  142MOL   C26448486   0.105   3.895   7.285  0.7512 -0.4771 -0.0398
  142MOL   C26548487   0.339   3.648   7.153 -0.0562 -0.1888  0.0228
  142MOL   H26648488   0.131   3.724   7.113  0.7030  2.0478  0.6483
  142MOL   H26748489   0.275   3.658   7.464  0.1626  0.8102  0.9953
  142MOL   H26848490   0.263   3.840   7.632  0.2883  1.1376  0.1252
  142MOL   H26948491   0.101   4.152   7.584  0.0740 -0.2514 -2.3951
  142MOL   H27048492   0.054   4.092   7.369 -1.6328  0.0938  1.4048
  142MOL   H27148493   0.044   3.907   7.196 -0.2069 -0.1018  0.6619
  142MOL   H27248494   0.353   3.580   7.069  1.6764 -0.3305  0.4010
  142MOL   H27348495   0.385   3.606   7.242 -0.5856  0.1935  0.4758
  142MOL   C27448496   0.404   3.779   7.104  0.4380  0.0441 -0.2328
  142MOL   C27548497   0.387   3.789   6.954  0.0965 -0.7687  0.0410
  142MOL   C27648498   0.310   3.897   6.899 -0.1260  0.5902  0.2298
  142MOL   C27748499   0.310   3.913   6.760 -0.1438 -0.1209 -0.0176
  142MOL   C27848500   0.371   3.815   6.676  0.3376 -0.9237  0.6950
  142MOL   O27948501   0.365   3.827   6.541  0.2161 -0.3622  0.1376
  142MOL   C28048502   0.448   3.708   6.736 -0.4101  0.5062  0.1353
  142MOL   C28148503   0.462   3.700   6.875  0.6511  0.7311 -0.0229
  142MOL   C28248504   0.555   3.797   7.150  0.0633  0.8183  0.4718
  142MOL   H28348505   0.350   3.863   7.148 -0.2764  0.7478 -2.3899
  142MOL   H28448506   0.256   3.965   6.964 -2.5596  0.5834 -1.7056
  142MOL   H28548507   0.256   3.997   6.719  0.7407  0.0071 -0.9362
  142MOL   H28648508   0.309   3.887   6.495  0.3323 -1.0202 -0.8833
  142MOL   H28748509   0.504   3.638   6.676  1.5782  3.4818 -1.6300
  142MOL   H28848510   0.529   3.625   6.914 -1.2530 -0.6737  0.6527
  142MOL   H28948511   0.598   3.698   7.162  0.4983  0.9430 -0.0756
  142MOL   H29048512   0.609   3.842   7.067  0.1119  2.6388  1.4677
  142MOL   C29148513   0.585   3.873   7.278  0.1629 -0.0573 -0.2966
  142MOL   C29248514   0.528   4.019   7.283 -0.1410 -0.6769 -0.0950
  142MOL   C29348515   0.492   4.069   7.406  0.1279  0.1573 -0.6843
  142MOL   C29448516   0.450   4.203   7.427 -0.2049  0.6088 -0.0831
  142MOL   C29548517   0.421   4.278   7.316  0.3710 -0.6912 -0.3485
  142MOL   O29648518   0.369   4.409   7.335 -0.1955  0.6261  0.3031
  142MOL   C29748519   0.438   4.225   7.185  0.1348 -0.0920 -0.7123
  142MOL   C29848520   0.496   4.101   7.172  0.3339  0.8351 -0.0373
  142MOL   C29948521   0.732   3.883   7.323  0.0761  0.8360 -0.2132
  142MOL   H30048522   0.522   3.822   7.351 -1.2320  0.8501 -0.8526
  142MOL   H30148523   0.509   4.007   7.493 -2.0791  0.8228  0.2814
  142MOL   H30248524   0.444   4.235   7.529 -1.2299  0.2847 -0.0419
  142MOL   H30348525   0.395   4.441   7.420  0.2656 -0.1749  0.4714
  142MOL   H30448526   0.404   4.287   7.103 -3.0072 -1.2255 -0.3250
  142MOL   H30548527   0.512   4.062   7.072  1.7468  1.3775 -0.0360
  142MOL   H30648528   0.756   3.951   7.405  1.1033 -0.4903  0.6113
  142MOL   H30748529   0.787   3.929   7.241  0.8454  1.5835  0.7052
  142MOL   C30848530   0.805   3.748   7.352 -0.0527 -0.0506 -0.5856
  142MOL   C30948531   0.711   3.656   7.438  0.0342 -0.6535 -0.4378
  142MOL   C31048532   0.667   3.533   7.385  0.3589  0.0724 -0.2885
  142MOL   C31148533   0.566   3.458   7.451  0.1145  0.4757 -0.1781
  142MOL   C31248534   0.520   3.501   7.577  1.0748  0.3231 -0.6039
  142MOL   O31348535   0.415   3.436   7.636 -0.1152 -0.7913 -0.0631
  142MOL   C31448536   0.568   3.618   7.636  0.3468 -0.5208  0.4508
  142MOL   C31548537   0.666   3.696   7.566  0.1643 -0.8471  0.0312
  142MOL   C31648538   0.950   3.747   7.423  0.5415  0.7485 -0.3153
  142MOL   H31748539   0.816   3.695   7.258 -0.1609 -0.2735 -0.4741
  142MOL   H31848540   0.704   3.505   7.288 -0.2190 -0.2372 -0.4180
  142MOL   H31948541   0.526   3.366   7.412  1.8031 -0.2977 -0.1403
  142MOL   H32048542   0.382   3.354   7.603  0.3215 -0.8592 -0.3391
  142MOL   H32148543   0.518   3.662   7.722 -2.3165  0.1732 -1.3708
  142MOL   H32248544   0.699   3.795   7.597 -0.7727  0.4984 -3.0691
  142MOL   H32348545   0.992   3.647   7.433  0.0113  0.7228  1.9908
  142MOL   H32448546   0.942   3.792   7.522  2.5335  1.6393 -0.5423
  142MOL   C32548547   1.051   3.822   7.332 -0.2418  0.4809  0.4216
  142MOL   C32648548   1.189   3.756   7.344  0.4966  0.6262  0.2596
  142MOL   C32748549   1.258   3.747   7.469  0.7632 -0.1400  0.8061
  142MOL   C32848550   1.385   3.698   7.459 -0.0691  0.0800 -0.1927
  142MOL   C32948551   1.451   3.653   7.347 -0.3054  0.1605  0.2955
  142MOL   O33048552   1.579   3.602   7.365 -0.4730 -0.1697  0.3662
  142MOL   C33148553   1.375   3.642   7.231 -0.1610 -0.1023 -0.1817
  142MOL   C33248554   1.246   3.699   7.227 -0.1769 -0.1415  0.2767
  142MOL   C33348555   1.061   3.969   7.378  0.3643 -0.4838 -0.3325
  142MOL   H33448556   1.015   3.831   7.229 -1.8796  0.4570  0.9805
  142MOL   H33548557   1.217   3.782   7.563 -0.4545 -2.4221  1.1585
  142MOL   H33648558   1.440   3.692   7.551 -1.0244  0.8588  0.4286
  142MOL   H33748559   1.626   3.640   7.437  0.3919 -2.5124  1.0709
  142MOL   H33848560   1.414   3.598   7.140 -0.6373 -2.7451  0.8449
  142MOL   H33948561   1.194   3.692   7.132  1.1937 -3.5780 -0.3057
  142MOL   H34048562   1.153   4.014   7.341 -0.3783  0.4043 -1.1180
  142MOL   H34148563   1.071   3.979   7.487  0.6443  0.1595 -0.4123
  142MOL   H34248564   0.971   4.020   7.344  0.3314  0.2654  0.8496
  143MOL     C148565   4.436   3.846   2.174 -0.4489 -0.1599  0.2127
  143MOL     C248566   4.451   3.952   2.066  0.4472  0.2809  0.0768
  143MOL     C348567   4.558   4.044   2.061  0.5485  0.3058  0.3141
  143MOL     C448568   4.553   4.146   1.963  0.2018 -0.3791  0.5180
  143MOL     C548569   4.453   4.145   1.859  0.9740  0.4039 -0.4465
  143MOL     O648570   4.468   4.219   1.748  0.2460 -0.3995  0.2465
  143MOL     C748571   4.349   4.051   1.871  0.3040  0.3709 -0.2323
  143MOL     C848572   4.347   3.959   1.969  0.2766  0.1761 -0.0830
  143MOL     C948573   4.481   3.902   2.313 -0.8433 -0.9518  1.4910
  143MOL    H1048574   4.332   3.817   2.185 -0.7795  0.4248 -1.2657
  143MOL    H1148575   4.638   4.031   2.133  0.9006 -0.2666 -0.1782
  143MOL    H1248576   4.644   4.205   1.962  1.3583 -2.1230 -1.4426
  143MOL    H1348577   4.404   4.203   1.680 -0.8427 -1.8414  1.5884
  143MOL    H1448578   4.273   4.040   1.794 -0.6587 -0.0098  0.7612
  143MOL    H1548579   4.269   3.884   1.971  0.7296 -0.3312 -0.9310
  143MOL    H1648580   4.589   3.913   2.313 -1.0552  1.4093  2.2276
  143MOL    H1748581   4.473   3.812   2.375  0.6197 -0.3162  2.6234
  143MOL    H1848582   4.501   3.764   2.145  0.3025  0.3978  0.2788
  143MOL    C1948583   4.404   4.029   2.365 -0.5145  0.3919 -0.5865
  143MOL    C2048584   4.492   4.110   2.454  0.2295  0.4590 -0.4411
  143MOL    C2148585   4.491   4.251   2.443 -0.1794  0.0948  0.7586
  143MOL    C2248586   4.560   4.331   2.535  0.2411 -0.3514  0.1300
  143MOL    C2348587   4.636   4.275   2.635  0.1359 -0.5724 -0.2027
  143MOL    O2448588   4.705   4.356   2.720  0.1988  0.1397  0.1894
  143MOL    C2548589   4.642   4.136   2.649 -0.0150  0.5347 -0.0679
  143MOL    C2648590   4.573   4.054   2.562  0.3479 -0.1102  0.2442
  143MOL    C2748591   4.265   3.999   2.423  0.1456  0.1556 -0.5367
  143MOL    H2848592   4.383   4.088   2.275  1.7007  0.0216 -1.3832
  143MOL    H2948593   4.431   4.299   2.366  0.1717 -0.1334  0.3438
  143MOL    H3048594   4.547   4.438   2.526  0.4687 -0.3101  0.3039
  143MOL    H3148595   4.771   4.305   2.766  0.8046 -1.1687 -2.0473
  143MOL    H3248596   4.696   4.088   2.730  0.1348  1.7187  0.5518
  143MOL    H3348597   4.597   3.949   2.572  3.7156  0.4002 -1.8752
  143MOL    H3448598   4.275   3.985   2.531 -2.3080 -0.3032 -0.3471
  143MOL    H3548599   4.239   3.905   2.375  0.6300  0.6847 -1.8365
  143MOL    C3648600   4.140   4.097   2.400  0.1807 -0.2967  0.1266
  143MOL    C3748601   4.118   4.134   2.250 -0.5692  0.7284  0.1013
  143MOL    C3848602   4.179   4.244   2.190  0.3932  0.1564 -0.2752
  143MOL    C3948603   4.162   4.268   2.054  0.1446 -0.1738  0.6533
  143MOL    C4048604   4.080   4.182   1.982 -0.0967  0.0896 -0.7801
  143MOL    O4148605   4.068   4.194   1.847 -0.1864  0.6061 -0.3009
  143MOL    C4248606   4.012   4.075   2.038 -0.0239 -0.5136  0.2032
  143MOL    C4348607   4.035   4.048   2.173 -0.1333 -0.0720  0.2771
  143MOL    C4448608   4.130   4.223   2.490  0.1579  0.3424  0.1313
  143MOL    H4548609   4.053   4.040   2.435 -1.4961  2.2909  0.2834
  143MOL    H4648610   4.231   4.309   2.259  2.6105  0.5225 -2.2047
  143MOL    H4748611   4.225   4.340   2.003  0.0700 -0.2769  0.4161
  143MOL    H4848612   4.146   4.227   1.805  0.1625 -0.3400 -0.3881
  143MOL    H4948613   3.946   4.013   1.980 -0.5590 -0.1197  0.3858
  143MOL    H5048614   3.989   3.964   2.222 -0.9112 -0.1193 -0.5297
  143MOL    H5148615   4.138   4.186   2.593 -0.5067 -2.6600 -0.8280
  143MOL    H5248616   4.219   4.284   2.477  1.2219 -1.4052 -1.0510
  143MOL    C5348617   4.007   4.306   2.473 -0.3352 -0.7023  0.4696
  143MOL    C5448618   3.877   4.234   2.499  0.5666 -0.1251 -0.2764
  143MOL    C5548619   3.845   4.201   2.634  0.8117  0.3720 -1.0377
  143MOL    C5648620   3.725   4.133   2.659 -0.5125  0.5433 -0.4911
  143MOL    C5748621   3.646   4.082   2.555 -0.1329  0.0146  0.6457
  143MOL    O5848622   3.519   4.039   2.584 -0.5979 -0.1785  0.4550
  143MOL    C5948623   3.674   4.123   2.424  0.7926  0.4332  0.1669
  143MOL    C6048624   3.783   4.197   2.395 -0.4292 -0.1942 -0.1309
  143MOL    C6148625   4.031   4.426   2.568 -0.6689 -0.2192 -0.1676
  143MOL    H6248626   4.004   4.333   2.367 -0.6225 -1.9017  0.1635
  143MOL    H6348627   3.903   4.250   2.710 -0.7655  0.6346  0.0180
  143MOL    H6448628   3.688   4.117   2.759 -1.8950  2.4832 -0.6531
  143MOL    H6548629   3.502   3.957   2.541 -0.3538  0.7595 -1.4798
  143MOL    H6648630   3.607   4.103   2.342  0.8685  0.9615 -0.0237
  143MOL    H6748631   3.803   4.233   2.295  0.0840  0.3614  0.1691
  143MOL    H6848632   4.129   4.470   2.545 -0.7339 -0.9821 -2.0532
  143MOL    H6948633   4.039   4.396   2.672 -0.0721 -2.0420 -0.7282
  143MOL    C7048634   3.919   4.531   2.563  0.6948 -0.2990  0.3490
  143MOL    C7148635   3.894   4.590   2.422 -0.3905  0.3920  0.2452
  143MOL    C7248636   4.001   4.638   2.346 -0.4896  1.0123  0.1239
  143MOL    C7348637   3.979   4.681   2.217 -0.6939  0.0052  0.6403
  143MOL    C7448638   3.850   4.671   2.155  0.2378 -0.5811  0.4361
  143MOL    O7548639   3.838   4.717   2.023 -0.1771 -0.0756 -0.3736
  143MOL    C7648640   3.740   4.625   2.230  0.1160 -0.3934  0.3041
  143MOL    C7748641   3.764   4.585   2.360 -0.2730 -0.3797  0.3698
  143MOL    C7848642   3.952   4.638   2.669  0.1786  0.6073  0.4536
  143MOL    H7948643   3.823   4.487   2.591  1.6437 -1.2955  2.1084
  143MOL    H8048644   4.098   4.636   2.393 -0.6627  2.4450  0.5609
  143MOL    H8148645   4.068   4.711   2.163 -0.4622  0.7990  1.4654
  143MOL    H8248646   3.756   4.701   1.978 -0.1103 -2.7517  0.3549
  143MOL    H8348647   3.645   4.622   2.179  0.6992 -2.7096 -0.6981
  143MOL    H8448648   3.688   4.545   2.426 -0.2917  0.9219  1.1489
  143MOL    H8548649   4.053   4.672   2.647  1.1001 -0.7912  2.2775
  143MOL    H8648650   3.957   4.590   2.767  1.4037 -1.3762 -0.5457
  143MOL    C8748651   3.858   4.759   2.678 -0.5378 -0.3553  0.1003
  143MOL    C8848652   3.936   4.884   2.727  0.0468  0.0424  0.0664
  143MOL    C8948653   3.989   4.961   2.628 -0.4446  0.1822  0.7594
  143MOL    C9048654   4.075   5.069   2.660 -0.5035 -0.0833 -0.9766
  143MOL    C9148655   4.090   5.101   2.796 -0.6525  0.1715  0.3383
  143MOL    O9248656   4.144   5.226   2.824  0.3581 -0.0249  0.0847
  143MOL    C9348657   4.035   5.021   2.898 -0.0765 -0.4591 -0.5153
  143MOL    C9448658   3.954   4.913   2.861  0.3145 -0.7131 -0.4267
  143MOL    C9548659   3.728   4.731   2.760  0.0512 -0.4838  0.1936
  143MOL    H9648660   3.830   4.776   2.574 -0.5324 -1.5340 -0.0952
  143MOL    H9748661   3.964   4.936   2.526  0.0391  0.9794  0.4401
  143MOL    H9848662   4.133   5.126   2.588  1.4595 -2.8325 -1.6414
  143MOL    H9948663   4.146   5.285   2.750 -1.8459 -1.1092 -0.8808
  143MOL   H10048664   4.037   5.043   3.003  1.5058 -3.5589  0.1877
  143MOL   H10148665   3.919   4.857   2.946  1.6351 -0.4912  0.2818
  143MOL   H10248666   3.668   4.657   2.707 -0.7813 -0.3982  1.0012
  143MOL   H10348667   3.761   4.697   2.858  0.0404 -1.1363 -0.0314
  143MOL   C10448668   3.633   4.862   2.767 -0.1622  0.5284  0.6754
  143MOL   C10548669   3.515   4.829   2.856  0.0792 -0.4472 -0.8421
  143MOL   C10648670   3.497   4.898   2.977  0.7838  0.0259 -0.3652
  143MOL   C10748671   3.400   4.857   3.072 -0.7134  0.0899  0.3683
  143MOL   C10848672   3.317   4.747   3.035  0.2178  0.3483 -0.1019
  143MOL   O10948673   3.226   4.705   3.122  0.2822  0.4867  0.4543
  143MOL   C11048674   3.327   4.681   2.913  0.2001 -0.0716 -0.7059
  143MOL   C11148675   3.427   4.725   2.827 -0.3009 -0.0253  0.9010
  143MOL   C11248676   3.590   4.907   2.626  0.6116 -0.5632 -0.7871
  143MOL   H11348677   3.686   4.942   2.817  2.7175 -1.4865  0.9620
  143MOL   H11448678   3.552   4.990   2.993  1.4615 -0.0653 -2.1364
  143MOL   H11548679   3.390   4.906   3.167 -0.7012 -2.1070  1.5442
  143MOL   H11648680   3.160   4.646   3.088  0.6385  0.6672 -0.5648
  143MOL   H11748681   3.275   4.586   2.909 -1.7161  0.9272 -0.4141
  143MOL   H11848682   3.438   4.669   2.735  0.9614 -0.0359  1.0405
  143MOL   H11948683   3.543   4.827   2.569 -1.1011  0.4118 -0.7626
  143MOL   H12048684   3.681   4.936   2.573  1.1176  1.4968  1.1007
  143MOL   C12148685   3.496   5.031   2.621  0.0868  0.2448  0.1167
  143MOL   C12248686   3.522   5.131   2.735  0.2876 -0.0334  0.8854
  143MOL   C12348687   3.426   5.179   2.820  0.0276  0.5399 -0.2498
  143MOL   C12448688   3.464   5.270   2.923  0.0448  0.8442  0.0540
  143MOL   C12548689   3.598   5.314   2.940 -0.5892  0.2809 -0.3067
  143MOL   O12648690   3.635   5.404   3.038 -0.3341  0.2034  0.5387
  143MOL   C12748691   3.685   5.271   2.839 -0.3673  0.4278 -0.2863
  143MOL   C12848692   3.652   5.182   2.739  0.5306 -0.3412  0.7161
  143MOL   C12948693   3.508   5.104   2.488  0.3354 -0.0704  0.1316
  143MOL   H13048694   3.391   5.005   2.629 -0.1659  1.4644  0.8202
  143MOL   H13148695   3.328   5.135   2.838 -0.1051  1.2461  0.8040
  143MOL   H13248696   3.388   5.313   2.987  2.0734  1.6910  1.9220
  143MOL   H13348697   3.553   5.438   3.069 -0.4695 -0.0406  0.4496
  143MOL   H13448698   3.789   5.301   2.847 -0.3217  0.6531 -1.6594
  143MOL   H13548699   3.721   5.167   2.657 -0.8006 -0.1221 -0.4569
  143MOL   H13648700   3.600   5.162   2.490  0.4714 -0.2371 -0.9480
  143MOL   H13748701   3.426   5.176   2.496  1.7617  1.6220 -0.2581
  143MOL   C13848702   3.499   5.027   2.356 -0.3256 -0.0119 -0.2427
  143MOL   C13948703   3.603   5.085   2.264 -0.3159  0.0097  0.3552
  143MOL   C14048704   3.605   5.221   2.221  0.8551 -0.1896  0.6171
  143MOL   C14148705   3.706   5.261   2.128 -0.0005  0.0711 -0.0679
  143MOL   C14248706   3.811   5.175   2.088 -0.2904 -0.4503  0.1057
  143MOL   O14348707   3.906   5.213   1.998  0.0483 -0.3002  0.1110
  143MOL   C14448708   3.809   5.040   2.129  0.0104 -0.2413  0.3313
  143MOL   C14548709   3.705   4.999   2.220 -0.0909  0.5771  0.6576
  143MOL   C14648710   3.357   5.037   2.295  0.4046  0.2513 -0.3777
  143MOL   H14748711   3.522   4.922   2.377  0.1725 -0.1050 -1.2655
  143MOL   H14848712   3.529   5.288   2.258 -1.1198 -1.6652 -0.6533
  143MOL   H14948713   3.728   5.358   2.088 -0.0194  0.3691  0.6374
  143MOL   H15048714   3.874   5.268   1.928  0.1167 -2.0795 -1.3682
  143MOL   H15148715   3.881   4.973   2.086 -1.7093 -0.3801 -2.4772
  143MOL   H15248716   3.689   4.900   2.261 -1.4678  0.2168 -0.7203
  143MOL   H15348717   3.359   5.025   2.187 -1.2677  2.1326 -0.6613
  143MOL   H15448718   3.300   5.130   2.308 -0.1135  0.0966 -1.4928
  143MOL   C15548719   3.261   4.926   2.345  0.0729  0.7191  0.1980
  143MOL   C15648720   3.298   4.790   2.274 -0.3594 -0.3727  0.4131
  143MOL   C15748721   3.361   4.691   2.346  0.4850 -0.4614  0.5869
  143MOL   C15848722   3.408   4.575   2.285  0.2906 -0.3770 -0.3390
  143MOL   C15948723   3.389   4.555   2.148  0.1082 -0.6448 -0.0395
  143MOL   O16048724   3.436   4.442   2.090 -0.0667 -0.0346 -0.2580
  143MOL   C16148725   3.320   4.652   2.072 -0.3063  0.7745  0.1220
  143MOL   C16248726   3.272   4.768   2.135  0.0504 -0.4077 -0.4955
  143MOL   C16348727   3.111   4.963   2.317 -0.4961 -0.2300  0.3358
  143MOL   H16448728   3.275   4.911   2.452 -0.6292  1.2797  0.3706
  143MOL   H16548729   3.384   4.704   2.451  0.3771  3.8347  0.1728
  143MOL   H16648730   3.464   4.508   2.348  1.2409 -0.4125 -1.2242
  143MOL   H16748731   3.433   4.432   1.996 -0.5872 -3.2030  0.0333
  143MOL   H16848732   3.312   4.629   1.967 -0.8948  0.8574  0.1490
  143MOL   H16948733   3.231   4.844   2.071 -0.9243  0.1238  0.7474
  143MOL   H17048734   3.064   4.865   2.309  0.0907 -0.5613  0.8621
  143MOL   H17148735   3.108   5.016   2.223  0.6257 -0.8947 -0.0832
  143MOL   C17248736   3.042   5.061   2.415 -1.0603  0.2962  0.4072
  143MOL   C17348737   3.035   4.998   2.563 -0.1393  0.2170 -0.0768
  143MOL   C17448738   2.985   4.863   2.582 -0.1219  0.2616  0.1770
  143MOL   C17548739   2.970   4.812   2.710  0.0998 -0.1478 -0.3408
  143MOL   C17648740   3.024   4.882   2.819  0.1668  0.5276  0.2500
  143MOL   O17748741   3.016   4.825   2.948  0.2473  0.1137  0.5853
  143MOL   C17848742   3.083   5.006   2.795 -0.0236  0.0465  0.5120
  143MOL   C17948743   3.092   5.067   2.670  0.1269 -0.1205 -0.4044
  143MOL   C18048744   2.902   5.088   2.352  0.6066 -0.2520  0.1531
  143MOL   H18148745   3.103   5.152   2.416 -0.4485 -0.1149  1.2819
  143MOL   H18248746   2.942   4.810   2.498 -1.4310  0.7139  0.5513
  143MOL   H18348747   2.915   4.722   2.732 -0.8619  0.6986  0.7467
  143MOL   H18448748   3.009   4.896   3.010  2.4576  1.8955 -1.0944
  143MOL   H18548749   3.118   5.056   2.884 -1.0822  1.5277  0.1055
  143MOL   H18648750   3.134   5.165   2.658 -1.2760  0.8242  1.9400
  143MOL   H18748751   2.855   4.992   2.331  2.2468 -0.9505 -0.4313
  143MOL   H18848752   2.902   5.132   2.253  4.0652  1.0516  0.6357
  143MOL   C18948753   2.798   5.158   2.446 -0.3313 -0.2033 -0.1097
  143MOL   C19048754   2.864   5.295   2.484  0.2374  0.5298  0.2447
  143MOL   C19148755   2.910   5.327   2.616 -0.4815 -0.1042 -0.7674
  143MOL   C19248756   2.963   5.452   2.651 -1.0210  0.5944  0.2577
  143MOL   C19348757   2.976   5.545   2.549  0.0461 -0.2776  0.0915
  143MOL   O19448758   3.038   5.662   2.570 -0.4625 -0.0856  0.5752
  143MOL   C19548759   2.939   5.521   2.414  0.7030  0.2878 -0.0116
  143MOL   C19648760   2.894   5.392   2.381 -0.1660 -0.1330 -0.6151
  143MOL   C19748761   2.657   5.176   2.382  0.2082  0.0689  0.0540
  143MOL   H19848762   2.778   5.099   2.535  0.1660 -1.6333 -0.9218
  143MOL   H19948763   2.886   5.253   2.692  1.0893 -0.5842 -0.7302
  143MOL   H20048764   2.993   5.478   2.751  0.4097 -0.1391  0.0196
  143MOL   H20148765   3.093   5.669   2.646  0.0898  1.4182  0.0593
  143MOL   H20248766   2.932   5.600   2.341  0.5666 -1.4774 -1.9803
  143MOL   H20348767   2.861   5.362   2.283 -0.4982  0.2112 -0.6126
  143MOL   H20448768   2.657   5.231   2.288 -3.8286 -1.0591 -0.7093
  143MOL   H20548769   2.612   5.248   2.451 -1.3028  1.5765 -2.4169
  143MOL   C20648770   2.559   5.061   2.383  0.0688 -0.0837  0.4159
  143MOL   C20748771   2.552   4.985   2.518 -0.0766 -0.2945  0.1371
  143MOL   C20848772   2.481   5.037   2.624 -0.1987 -0.1439 -0.2324
  143MOL   C20948773   2.467   4.974   2.746  0.2366 -0.2658 -0.2995
  143MOL   C21048774   2.538   4.851   2.766  1.2541  0.6737  0.3548
  143MOL   O21148775   2.534   4.785   2.884 -0.2915  0.0050 -0.7080
  143MOL   C21248776   2.616   4.800   2.662  0.3103  0.2772  0.9860
  143MOL   C21348777   2.627   4.872   2.541 -0.2141  0.3314  0.0422
  143MOL   C21448778   2.553   4.977   2.258  0.1960 -0.6820  0.0250
  143MOL   H21548779   2.472   5.126   2.380  0.8934  0.9690 -1.6351
  143MOL   H21648780   2.436   5.134   2.607 -0.1933 -0.3621 -1.5677
  143MOL   H21748781   2.402   5.012   2.823 -0.0700 -0.3926 -0.4952
  143MOL   H21848782   2.445   4.780   2.916 -0.5436 -1.7807 -1.5753
  143MOL   H21948783   2.671   4.707   2.669 -0.8581 -0.6823 -1.7238
  143MOL   H22048784   2.679   4.830   2.456  0.2990  0.0686  0.4818
  143MOL   H22148785   2.645   4.923   2.237 -0.4846 -1.6194 -0.6453
  143MOL   H22248786   2.558   5.052   2.179  2.4709  0.6510  1.3978
  143MOL   C22348787   2.427   4.891   2.250  0.0407  0.6653 -0.9464
  143MOL   C22448788   2.434   4.798   2.124  0.4727  0.8491  0.5768
  143MOL   C22548789   2.454   4.860   1.997  0.4036  0.0187 -0.1155
  143MOL   C22648790   2.460   4.783   1.878 -1.2262  0.0650 -0.1034
  143MOL   C22748791   2.439   4.643   1.886  0.5777  0.2389  0.3687
  143MOL   O22848792   2.430   4.565   1.778  0.2504  0.2392 -0.2195
  143MOL   C22948793   2.426   4.584   2.010 -0.1454  0.2727  0.2581
  143MOL   C23048794   2.414   4.659   2.127  0.2631 -0.1395 -0.1647
  143MOL   C23148795   2.297   4.975   2.231 -0.4379 -0.2044 -0.5882
  143MOL   H23248796   2.416   4.825   2.336 -1.5738 -0.3580 -1.9083
  143MOL   H23348797   2.473   4.967   1.997  1.7359 -0.2161  0.3379
  143MOL   H23448798   2.464   4.827   1.779 -2.3473  1.0878  0.2908
  143MOL   H23548799   2.453   4.615   1.701  0.8758 -0.1444 -0.2886
  143MOL   H23648800   2.408   4.478   2.011  0.5342  0.1617  0.3920
  143MOL   H23748801   2.384   4.614   2.220 -0.7934 -1.0001 -0.8924
  143MOL   H23848802   2.292   5.060   2.300  0.6490 -0.3246 -0.3497
  143MOL   H23948803   2.308   5.035   2.141 -0.6374 -1.4573 -1.4471
  143MOL   C24048804   2.162   4.894   2.235 -0.0200  0.0840  0.4612
  143MOL   C24148805   2.125   4.860   2.380 -0.1622  0.2710  0.4585
  143MOL   C24248806   2.130   4.727   2.417  0.0111  0.3113 -0.4041
  143MOL   C24348807   2.093   4.676   2.543  0.4235 -0.0753  0.7755
  143MOL   C24448808   2.055   4.774   2.634 -0.8568  0.1867  0.6808
  143MOL   O24548809   2.018   4.730   2.763 -0.4269  0.0448  0.9809
  143MOL   C24648810   2.062   4.908   2.607 -0.6357 -0.4174  0.8019
  143MOL   C24748811   2.091   4.954   2.477 -0.3407  0.3673  0.3621
  143MOL   C24848812   2.045   4.972   2.169 -0.2215  0.1290 -0.0455
  143MOL   H24948813   2.168   4.802   2.178  2.0021  0.0451  0.6928
  143MOL   H25048814   2.149   4.650   2.344 -1.8615 -0.8376  0.3035
  143MOL   H25148815   2.078   4.570   2.557  0.4201 -0.2584 -0.5713
  143MOL   H25248816   2.002   4.638   2.775 -3.1329  0.6526  2.1999
  143MOL   H25348817   2.038   4.982   2.683 -0.6817  0.4206 -0.0224
  143MOL   H25448818   2.097   5.061   2.461  1.0000  0.2738  0.1542
  143MOL   H25548819   1.974   5.003   2.246  0.4777  2.1938 -0.2127
  143MOL   H25648820   2.095   5.065   2.143 -0.3284  0.3474  0.5130
  143MOL   C25748821   1.976   4.911   2.051 -0.0887 -0.0807  0.0310
  143MOL   C25848822   1.850   4.991   2.005 -0.1076 -0.2554  0.4196
  143MOL   C25948823   1.858   5.118   1.947  0.3486 -0.3584  0.1756
  143MOL   C26048824   1.751   5.207   1.927 -0.6621  0.4832  0.1369
  143MOL   C26148825   1.623   5.165   1.964  0.3792 -0.2519 -0.7107
  143MOL   O26248826   1.508   5.236   1.941  0.2716 -0.0584  0.5275
  143MOL   C26348827   1.608   5.030   2.023  0.5482 -0.7728  0.1931
  143MOL   C26448828   1.721   4.952   2.038 -0.1999 -0.5817  0.2049
  143MOL   C26548829   2.062   4.878   1.924  0.6393 -1.0565 -0.1380
  143MOL   H26648830   1.932   4.816   2.084  0.8139  0.3374  2.5662
  143MOL   H26748831   1.955   5.164   1.937  0.0449  0.3935  0.6562
  143MOL   H26848832   1.777   5.304   1.886  0.8917 -0.0427 -0.1933
  143MOL   H26948833   1.522   5.319   1.899  2.5861  0.4027  2.0927
  143MOL   H27048834   1.513   4.988   2.052 -0.4852  1.6017  0.4237
  143MOL   H27148835   1.699   4.856   2.083 -2.7765  0.1117  0.5164
  143MOL   H27248836   2.150   4.825   1.959  1.4721 -0.9284 -1.9871
  143MOL   H27348837   2.101   4.965   1.872  0.4968 -0.3421  0.9291
  143MOL   C27448838   1.998   4.794   1.805 -0.2994 -0.2741 -0.0330
  143MOL   C27548839   1.948   4.654   1.843  0.0897  0.3152  0.4108
  143MOL   C27648840   2.033   4.555   1.895  0.1810 -0.1161 -0.4529
  143MOL   C27748841   1.983   4.424   1.926 -0.0121 -0.1297  0.4841
  143MOL   C27848842   1.844   4.395   1.913 -0.3653 -0.6921 -0.4469
  143MOL   O27948843   1.788   4.271   1.952 -0.3926 -0.1076 -0.2520
  143MOL   C28048844   1.765   4.495   1.863  0.5036  0.3805 -0.0406
  143MOL   C28148845   1.813   4.620   1.833 -0.0639  0.3012  0.2817
  143MOL   C28248846   2.090   4.786   1.684 -0.5996  0.3687 -0.3268
  143MOL   H28348847   1.903   4.842   1.779  0.7186  2.0485  0.4082
  143MOL   H28448848   2.140   4.571   1.896 -0.0350  1.4620 -0.4422
  143MOL   H28548849   2.051   4.346   1.956  0.7469  0.6561  0.8488
  143MOL   H28648850   1.724   4.238   1.890 -0.2395 -0.2361 -0.3439
  143MOL   H28748851   1.661   4.465   1.852  0.2181  0.8117  1.3348
  143MOL   H28848852   1.741   4.686   1.787  1.1125  0.8795 -0.7444
  143MOL   H28948853   2.116   4.886   1.651  0.4997 -0.5038 -2.1848
  143MOL   H29048854   2.190   4.756   1.714  0.0906  2.3034 -0.6492
  143MOL   C29148855   2.047   4.707   1.550 -0.1494  0.0227  0.1317
  143MOL   C29248856   1.904   4.735   1.509  0.3878 -0.0035  0.2179
  143MOL   C29348857   1.814   4.631   1.477  0.1851  0.2389 -0.1993
  143MOL   C29448858   1.687   4.654   1.434  0.4362 -0.0763  0.5324
  143MOL   C29548859   1.643   4.791   1.423  0.4933 -0.1117 -0.0527
  143MOL   O29648860   1.515   4.822   1.378 -0.1040 -0.9607 -0.0801
  143MOL   C29748861   1.726   4.899   1.456  0.2781  0.5644  0.9191
  143MOL   C29848862   1.851   4.872   1.500  0.6667  0.1820 -0.2947
  143MOL   C29948863   2.077   4.553   1.567 -0.6290  0.4459 -0.0751
  143MOL   H30048864   2.121   4.745   1.480 -1.2719 -0.0733 -1.1341
  143MOL   H30148865   1.843   4.527   1.475 -0.4726  0.0541 -0.3147
  143MOL   H30248866   1.636   4.562   1.409 -0.2551 -0.0219  1.6887
  143MOL   H30348867   1.459   4.751   1.351 -1.4938 -0.3691  1.1996
  143MOL   H30448868   1.685   4.999   1.459  0.7538  0.8323 -1.2238
  143MOL   H30548869   1.909   4.960   1.523  1.1089 -0.1221 -0.2483
  143MOL   H30648870   1.997   4.511   1.628 -0.4726  0.8634  0.4204
  143MOL   H30748871   2.169   4.550   1.625 -0.8893  0.2280  0.3266
  143MOL   C30848872   2.095   4.475   1.438 -0.5201 -0.3077  0.2963
  143MOL   C30948873   2.036   4.330   1.451  0.1782 -0.0544 -0.7412
  143MOL   C31048874   1.937   4.286   1.362 -0.7326  0.1167  0.8181
  143MOL   C31148875   1.887   4.154   1.376  0.1332 -0.3274  0.2936
  143MOL   C31248876   1.933   4.067   1.480  0.6848 -0.8043  0.5742
  143MOL   O31348877   1.880   3.937   1.495 -0.0225 -0.6277 -0.4151
  143MOL   C31448878   2.026   4.120   1.570  0.1688 -0.4621 -0.0832
  143MOL   C31548879   2.085   4.245   1.552 -0.1047 -0.2490 -0.5751
  143MOL   C31648880   2.243   4.458   1.397 -0.6526  0.4354  0.0732
  143MOL   H31748881   2.042   4.533   1.362 -0.5041 -0.3526  0.2503
  143MOL   H31848882   1.904   4.357   1.288 -0.0863  2.1799  2.4801
  143MOL   H31948883   1.810   4.124   1.306  1.7495  0.5940 -1.9417
  143MOL   H32048884   1.947   3.879   1.528 -0.5247 -0.5322  0.8180
  143MOL   H32148885   2.069   4.063   1.651  0.4257 -1.0962 -0.6724
  143MOL   H32248886   2.156   4.282   1.625 -0.6731  1.3696 -0.8149
  143MOL   H32348887   2.287   4.393   1.473 -0.6581  0.4100  0.0548
  143MOL   H32448888   2.304   4.547   1.410 -0.4578  0.3773 -0.4578
  143MOL   C32548889   2.264   4.406   1.254 -0.3023 -0.3583  0.6047
  143MOL   C32648890   2.403   4.339   1.246 -0.0438 -1.3108 -0.0253
  143MOL   C32748891   2.519   4.412   1.221  0.0749 -0.2629  0.4984
  143MOL   C32848892   2.644   4.348   1.215  0.0231 -0.4985 -0.1049
  143MOL   C32948893   2.657   4.207   1.212  0.8982  0.6718  0.1201
  143MOL   O33048894   2.785   4.158   1.199 -0.0788  0.3751  0.0244
  143MOL   C33148895   2.541   4.135   1.223 -0.2114 -0.0516  0.0504
  143MOL   C33248896   2.414   4.201   1.230  0.4644 -0.2371 -0.2772
  143MOL   C33348897   2.239   4.517   1.152  0.9200 -0.7123  0.0718
  143MOL   H33448898   2.196   4.326   1.226 -0.7918  1.2042 -3.0289
  143MOL   H33548899   2.507   4.516   1.197  0.8109 -0.2511  0.1921
  143MOL   H33648900   2.729   4.406   1.181  0.0820  0.5094  1.6691
  143MOL   H33748901   2.849   4.219   1.164 -0.7488  1.5052  0.7205
  143MOL   H33848902   2.545   4.027   1.217  0.6888 -0.0244  0.1494
  143MOL   H33948903   2.322   4.144   1.240  0.7214 -0.5238  0.5101
  143MOL   H34048904   2.137   4.553   1.143  1.2665  0.3858  0.3929
  143MOL   H34148905   2.268   4.480   1.054  0.2977  0.1716 -0.4537
  143MOL   H34248906   2.300   4.605   1.176  1.5224 -0.8365 -0.9993
  144MOL     C148907   0.910   7.231   5.065 -0.3770  0.5810  0.6600
  144MOL     C248908   0.951   7.162   5.195  0.1557  0.4782  0.3060
  144MOL     C348909   1.088   7.162   5.236  0.0606 -0.3416  0.2297
  144MOL     C448910   1.121   7.070   5.340  0.2553 -0.0570 -0.3777
  144MOL     C548911   1.027   6.993   5.410 -0.2410 -0.3956 -0.7167
  144MOL     O648912   1.051   6.915   5.520  0.5402  0.4479  0.3689
  144MOL     C748913   0.891   7.002   5.367 -0.4650 -0.6082 -0.1533
  144MOL     C848914   0.853   7.086   5.262  0.3494  0.4730 -0.0286
  144MOL     C948915   0.788   7.319   5.070  0.7183  0.4438  0.4439
  144MOL    H1048916   0.997   7.281   5.021  0.7756 -1.9667 -0.0887
  144MOL    H1148917   1.163   7.215   5.179 -1.1828 -0.5472 -1.6367
  144MOL    H1248918   1.226   7.054   5.358  0.1438 -1.3557 -0.7963
  144MOL    H1348919   1.144   6.901   5.532  0.6978  1.0692 -0.0976
  144MOL    H1448920   0.814   6.935   5.401  0.1159 -1.3087 -0.1898
  144MOL    H1548921   0.752   7.082   5.226 -0.2934  1.8846  1.5290
  144MOL    H1648922   0.804   7.388   5.152  0.2944  2.2552 -0.9500
  144MOL    H1748923   0.706   7.256   5.105  1.3090  0.5609  2.0559
  144MOL    H1848924   0.900   7.149   4.993  1.1440  1.7590 -0.9480
  144MOL    C1948925   0.745   7.391   4.940 -0.4702  0.3348  0.2399
  144MOL    C2048926   0.633   7.491   4.961 -0.0409 -0.9994 -0.2341
  144MOL    C2148927   0.501   7.447   4.997 -1.1068 -0.0525  0.0215
  144MOL    C2248928   0.397   7.538   5.006 -0.2677 -0.4352 -0.4470
  144MOL    C2348929   0.418   7.677   4.971 -0.7784  0.1928 -0.3722
  144MOL    O2448930   0.308   7.762   4.967  0.0415  0.2254 -0.4156
  144MOL    C2548931   0.553   7.722   4.955  0.1931  0.7478 -0.4248
  144MOL    C2648932   0.658   7.629   4.947  0.7768 -0.5553  0.1539
  144MOL    C2748933   0.722   7.287   4.823  0.5951 -0.7857  0.0679
  144MOL    H2848934   0.828   7.459   4.924  1.1108 -2.1293 -2.5902
  144MOL    H2948935   0.479   7.344   5.018 -0.0161 -0.4434 -0.7357
  144MOL    H3048936   0.300   7.498   5.030  0.3790 -1.0214  1.2982
  144MOL    H3148937   0.336   7.852   4.973  3.3897 -0.8550  1.7750
  144MOL    H3248938   0.585   7.825   4.956 -0.5950  0.9933  0.6195
  144MOL    H3348939   0.763   7.651   4.939  1.3114 -2.0878  2.4198
  144MOL    H3448940   0.671   7.200   4.864  1.0323  0.6157  3.7494
  144MOL    H3548941   0.818   7.246   4.791  0.0908 -1.3798 -0.6826
  144MOL    C3648942   0.653   7.344   4.691  0.2002  0.0369  0.1645
  144MOL    C3748943   0.591   7.231   4.616 -0.0579  1.1703 -0.2785
  144MOL    C3848944   0.474   7.242   4.534  0.1449  0.6349 -0.4072
  144MOL    C3948945   0.422   7.133   4.462 -0.3507  0.2701 -0.8056
  144MOL    C4048946   0.492   7.011   4.468 -0.2894 -0.2265 -0.5730
  144MOL    O4148947   0.436   6.896   4.410 -0.4711  0.0733  0.0705
  144MOL    C4248948   0.602   6.994   4.547 -0.4525 -0.1013  0.6532
  144MOL    C4348949   0.653   7.103   4.619 -0.0715 -0.2002  0.9810
  144MOL    C4448950   0.744   7.434   4.605  0.6647  0.4428 -0.2201
  144MOL    H4548951   0.569   7.402   4.728  1.6477  1.3296  1.5279
  144MOL    H4648952   0.417   7.333   4.537  0.3847  0.8291 -1.4443
  144MOL    H4748953   0.329   7.148   4.409  0.1524  0.1203 -1.7466
  144MOL    H4848954   0.350   6.910   4.373 -0.2329  2.0096  0.1993
  144MOL    H4948955   0.655   6.900   4.556  1.3988  0.8620  0.1658
  144MOL    H5048956   0.729   7.073   4.689 -1.0280 -1.5795  1.4679
  144MOL    H5148957   0.784   7.513   4.668  0.8415  2.0192 -2.2557
  144MOL    H5248958   0.830   7.370   4.585 -0.5415 -0.8330 -1.4784
  144MOL    C5348959   0.686   7.494   4.471 -0.4333 -0.1486  0.2987
  144MOL    C5448960   0.545   7.548   4.495  1.0574 -0.4860  0.0714
  144MOL    C5548961   0.451   7.546   4.386  0.2497 -0.1176 -0.2833
  144MOL    C5648962   0.323   7.593   4.398 -0.2524 -0.6632 -0.6492
  144MOL    C5748963   0.281   7.647   4.517 -1.3132  0.1616 -0.0343
  144MOL    O5848964   0.156   7.675   4.537 -0.2002 -0.2765 -0.0891
  144MOL    C5948965   0.374   7.660   4.621 -0.0836 -0.3531  0.7075
  144MOL    C6048966   0.507   7.613   4.613 -0.1867 -0.5652 -0.3561
  144MOL    C6148967   0.770   7.607   4.404  0.6377 -0.0622 -0.3496
  144MOL    H6248968   0.677   7.402   4.413  1.5112 -0.6154  0.7074
  144MOL    H6348969   0.484   7.493   4.299  3.8352  0.3585  0.7262
  144MOL    H6448970   0.261   7.564   4.314 -2.8911 -0.0520  1.0389
  144MOL    H6548971   0.136   7.691   4.628 -3.2565  1.0239 -0.9379
  144MOL    H6648972   0.348   7.703   4.716  0.0857 -0.2090  0.6895
  144MOL    H6748973   0.573   7.631   4.696  1.0162  0.4455 -1.5286
  144MOL    H6848974   0.792   7.685   4.476  0.4355 -0.9302  0.6656
  144MOL    H6948975   0.713   7.657   4.326 -0.7094  2.8666  2.3874
  144MOL    C7048976   0.905   7.551   4.342 -0.4781  0.1153 -0.1966
  144MOL    C7148977   1.016   7.660   4.331  0.4088  0.7755 -0.0590
  144MOL    C7248978   1.142   7.648   4.402 -0.4792  0.1060  0.0673
  144MOL    C7348979   1.244   7.743   4.377 -0.6104 -0.3141 -0.0200
  144MOL    C7448980   1.213   7.853   4.293  0.5964 -0.5960 -0.6049
  144MOL    O7548981   1.318   7.939   4.278 -0.2446 -0.4078  0.6587
  144MOL    C7648982   1.085   7.879   4.243 -0.2716 -0.7322 -0.0134
  144MOL    C7748983   0.991   7.777   4.257 -0.1217  0.0865 -0.1331
  144MOL    C7848984   0.879   7.481   4.206  0.1035  0.6655  0.6116
  144MOL    H7948985   0.944   7.474   4.408 -1.8942 -0.7160 -0.2983
  144MOL    H8048986   1.166   7.551   4.444 -2.0624 -0.1900  0.3208
  144MOL    H8148987   1.342   7.729   4.419 -0.9521 -1.2111  0.4941
  144MOL    H8248988   1.298   8.018   4.230 -1.0220 -1.5415 -0.9311
  144MOL    H8348989   1.061   7.966   4.184  0.5522  0.7087  1.7359
  144MOL    H8448990   0.894   7.795   4.212 -0.3996 -1.3129 -0.1220
  144MOL    H8548991   0.918   7.548   4.130 -2.4113  2.6577  1.0414
  144MOL    H8648992   0.771   7.476   4.195  0.1871  0.5750 -0.1653
  144MOL    C8748993   0.928   7.336   4.193 -0.4157 -0.7969 -0.6062
  144MOL    C8848994   1.078   7.335   4.220 -0.0100  0.1938  0.2208
  144MOL    C8948995   1.117   7.271   4.340 -0.6089 -0.3719  0.0780
  144MOL    C9048996   1.246   7.260   4.382 -0.3042  0.0541  0.4426
  144MOL    C9148997   1.348   7.327   4.310 -1.0095  0.4658  0.6343
  144MOL    O9248998   1.476   7.344   4.365  0.5636 -0.6021 -0.9389
  144MOL    C9348999   1.316   7.385   4.182 -0.0226  0.3942  0.7758
  144MOL    C9449000   1.179   7.384   4.136  0.0086  0.6185 -0.0915
  144MOL    C9549001   0.887   7.278   4.056 -0.6019  0.0089  0.9602
  144MOL    H9649002   0.883   7.279   4.274  0.1675  0.9211  0.9525
  144MOL    H9749003   1.042   7.231   4.406 -0.2726  0.2026  0.8104
  144MOL    H9849004   1.267   7.218   4.480  1.0540 -0.9405 -0.2514
  144MOL    H9949005   1.528   7.389   4.300 -0.1543  1.2540 -0.2370
  144MOL   H10049006   1.383   7.442   4.119  0.4888 -1.3761 -0.3093
  144MOL   H10149007   1.157   7.433   4.042  0.9187 -0.3472 -0.8351
  144MOL   H10249008   0.781   7.301   4.040 -0.5002  0.3978  0.8236
  144MOL   H10349009   0.945   7.333   3.981 -0.8215 -1.2282 -0.1449
  144MOL   C10449010   0.932   7.129   4.043  0.2689  0.1991  0.2225
  144MOL   C10549011   0.982   7.107   3.900 -0.0028  0.0535  0.3523
  144MOL   C10649012   0.911   7.149   3.784 -0.1990  0.1522  0.1403
  144MOL   C10749013   0.972   7.134   3.660  0.1361 -0.2368 -0.0144
  144MOL   C10849014   1.096   7.065   3.650  0.2225 -0.8788 -0.7350
  144MOL   O10949015   1.171   7.074   3.536  0.4581  0.1517 -0.3339
  144MOL   C11049016   1.167   7.027   3.768  0.0803 -0.0506 -0.1832
  144MOL   C11149017   1.106   7.045   3.891  0.7795 -0.0883  0.0654
  144MOL   C11249018   0.806   7.044   4.071  0.0898  0.2012  0.2895
  144MOL   H11349019   1.005   7.118   4.123  0.7022  0.3552 -0.1480
  144MOL   H11449020   0.810   7.188   3.791  0.4635  1.8421  0.7285
  144MOL   H11549021   0.917   7.166   3.573  1.3213  0.1453 -0.6272
  144MOL   H11649022   1.111   7.106   3.470  1.2837 -1.6029 -1.9686
  144MOL   H11749023   1.263   6.980   3.752 -0.1546 -0.4109 -0.5646
  144MOL   H11849024   1.159   7.002   3.974  2.4227 -3.3516 -2.5373
  144MOL   H11949025   0.739   7.039   3.986  1.1761  0.3722 -0.5889
  144MOL   H12049026   0.745   7.093   4.147 -0.7755 -1.2425  0.5514
  144MOL   C12149027   0.823   6.901   4.122  0.6265  0.0207 -0.3000
  144MOL   C12249028   0.913   6.897   4.245  0.5841 -0.2112  0.6253
  144MOL   C12349029   1.028   6.814   4.248 -0.0198  0.2665 -0.5469
  144MOL   C12449030   1.115   6.810   4.359  0.1442  0.5936  0.7006
  144MOL   C12549031   1.083   6.878   4.476 -0.2692 -0.9035  0.0805
  144MOL   O12649032   1.146   6.863   4.597  0.2812  0.0557  0.2506
  144MOL   C12749033   0.971   6.958   4.476  0.4589  0.3149 -0.2666
  144MOL   C12849034   0.881   6.964   4.364 -0.5141 -0.4468  0.9690
  144MOL   C12949035   0.682   6.837   4.151  0.4217 -0.0969  0.2616
  144MOL   H13049036   0.872   6.841   4.045 -0.6818 -0.1531 -1.0172
  144MOL   H13149037   1.058   6.756   4.161 -0.6582  1.8807 -1.8725
  144MOL   H13249038   1.206   6.752   4.355  0.7549  1.5318  0.7432
  144MOL   H13349039   1.213   6.796   4.597  1.0414  0.7971 -0.0874
  144MOL   H13449040   0.948   7.010   4.567 -0.6408 -0.8365  0.1334
  144MOL   H13549041   0.795   7.029   4.362  1.1616  1.9128  2.0336
  144MOL   H13649042   0.624   6.842   4.059  1.5394  4.3033 -0.3124
  144MOL   H13749043   0.630   6.916   4.205  1.8690  1.7072 -0.9251
  144MOL   C13849044   0.653   6.698   4.214 -0.1668 -0.1468 -0.3625
  144MOL   C13949045   0.765   6.597   4.179 -0.3389  1.1774  0.1475
  144MOL   C14049046   0.822   6.520   4.286 -0.1990 -0.3486  0.1505
  144MOL   C14149047   0.929   6.433   4.261  0.0640  0.4297 -0.1495
  144MOL   C14249048   0.994   6.453   4.139  0.0605  0.9455  0.4948
  144MOL   O14349049   1.118   6.404   4.124  0.1223  0.2265 -0.0117
  144MOL   C14449050   0.938   6.529   4.029 -0.0202 -0.1359  0.1524
  144MOL   C14549051   0.816   6.592   4.046  0.3008 -0.1161  0.4470
  144MOL   C14649052   0.510   6.654   4.163  0.4902 -0.3785  0.4034
  144MOL   H14749053   0.656   6.721   4.320  0.7567  2.3555 -0.8918
  144MOL   H14849054   0.777   6.511   4.384 -0.0833 -0.4414  0.1951
  144MOL   H14949055   0.965   6.368   4.339 -2.3987 -1.4148 -0.4936
  144MOL   H15049056   1.168   6.440   4.052  0.9915 -0.3633  0.2818
  144MOL   H15149057   0.976   6.527   3.928  1.2604  0.0647  0.6283
  144MOL   H15249058   0.759   6.638   3.967  0.4303  0.8052  0.8777
  144MOL   H15349059   0.518   6.648   4.054  0.4628  0.1264  0.3728
  144MOL   H15449060   0.447   6.742   4.178  2.4614  1.0312  0.5595
  144MOL   C15549061   0.444   6.532   4.232  0.5113  0.3914  0.3256
  144MOL   C15649062   0.321   6.487   4.150 -0.0842 -0.5706 -0.7604
  144MOL   C15749063   0.335   6.384   4.054  0.5513  0.5724  0.2896
  144MOL   C15849064   0.226   6.343   3.968  0.5563 -0.3026 -0.1909
  144MOL   C15949065   0.103   6.413   3.980 -0.4884 -0.5443 -0.4475
  144MOL   O16049066   8.036   6.391   3.889  0.3802 -0.5274 -0.3778
  144MOL   C16149067   0.088   6.520   4.071  0.3989  0.0385 -0.3547
  144MOL   C16249068   0.201   6.552   4.161  0.9300 -0.3156  0.2119
  144MOL   C16349069   0.417   6.546   4.385  0.0326 -1.0906 -0.1840
  144MOL   H16449070   0.518   6.453   4.224  0.3458  0.2776 -0.1088
  144MOL   H16549071   0.425   6.325   4.047  1.0073  1.4832 -1.9015
  144MOL   H16649072   0.238   6.261   3.899 -2.0215 -0.9115  0.0406
  144MOL   H16749073   0.025   6.343   3.812  2.4127 -1.0169  0.5725
  144MOL   H16849074   0.002   6.586   4.066  0.9667  0.8672  0.6583
  144MOL   H16949075   0.204   6.644   4.218 -2.1235 -0.5620  0.8691
  144MOL   H17049076   0.361   6.639   4.396  2.2657  0.0633  2.1212
  144MOL   H17149077   0.501   6.568   4.452  0.1884  0.7423 -0.9645
  144MOL   C17249078   0.326   6.444   4.453  0.2519 -0.4810  0.1120
  144MOL   C17349079   0.272   6.494   4.585  0.2931  0.3312 -0.4884
  144MOL   C17449080   0.359   6.517   4.696  0.4492  0.2764  0.0083
  144MOL   C17549081   0.299   6.536   4.821  0.9667  0.5636  0.3853
  144MOL   C17649082   0.153   6.517   4.837 -0.5930 -0.6386 -0.4181
  144MOL   O17749083   0.089   6.515   4.955  0.3996  0.1540 -0.6698
  144MOL   C17849084   0.069   6.505   4.726 -0.1033 -0.1460 -0.1872
  144MOL   C17949085   0.134   6.489   4.606  0.0582  0.3636 -0.2455
  144MOL   C18049086   0.369   6.297   4.460 -0.0085 -0.5892  0.4279
  144MOL   H18149087   0.229   6.442   4.403 -0.0322  0.7298  0.5888
  144MOL   H18249088   0.465   6.507   4.680  0.5470  1.2943 -0.0312
  144MOL   H18349089   0.362   6.551   4.908  0.0497 -1.8301  1.5038
  144MOL   H18449090   8.036   6.494   4.938  0.6960  0.7110 -3.1529
  144MOL   H18549091   8.000   6.504   4.744 -0.0056 -0.1157  0.4103
  144MOL   H18649092   0.068   6.462   4.524 -1.2725 -0.3994  1.0479
  144MOL   H18749093   0.456   6.279   4.523  0.4619  0.5167  0.1088
  144MOL   H18849094   0.401   6.265   4.360 -0.0897  2.2718 -0.5529
  144MOL   C18949095   0.262   6.197   4.508  0.5505  0.5053  0.0816
  144MOL   C19049096   0.142   6.180   4.408  0.2025 -0.6739  0.3338
  144MOL   C19149097   0.161   6.149   4.270 -0.1306 -0.1313 -0.6070
  144MOL   C19249098   0.056   6.163   4.176 -0.4804  0.0554  0.2257
  144MOL   C19349099   7.969   6.215   4.217 -0.2507  0.6628  0.2336
  144MOL   O19449100   7.870   6.235   4.123  0.0317 -0.7425 -0.2624
  144MOL   C19549101   7.948   6.235   4.355 -0.1448 -0.4401 -0.3333
  144MOL   C19649102   0.014   6.224   4.448  1.1623 -0.1483 -0.0505
  144MOL   C19749103   0.324   6.054   4.541  0.6396 -0.3772 -0.2713
  144MOL   H19849104   0.235   6.234   4.607  0.8980  2.4438 -0.5339
  144MOL   H19949105   0.258   6.113   4.237 -0.5825  0.0505 -2.1580
  144MOL   H20049106   0.090   6.139   4.076 -0.1433 -0.6118  0.4943
  144MOL   H20149107   7.909   6.287   4.054  1.7266 -0.3973  0.9197
  144MOL   H20249108   7.854   6.279   4.385  0.6090  3.5242 -3.2395
  144MOL   H20349109   8.028   6.254   4.549 -0.8459 -0.9238 -0.2593
  144MOL   H20449110   0.417   6.076   4.594 -0.1680  0.2702  0.9009
  144MOL   H20549111   0.348   6.003   4.448 -0.9158 -0.1147 -0.8388
  144MOL   C20649112   0.237   5.952   4.626  0.1055 -0.1264 -0.8448
  144MOL   C20749113   0.160   6.005   4.753 -0.1135 -0.2510  0.2534
  144MOL   C20849114   0.029   5.954   4.788 -0.3996  0.9966 -0.4325
  144MOL   C20949115   8.010   5.989   4.915 -0.6388 -0.1598  0.6437
  144MOL   C21049116   0.038   6.085   4.990 -0.1738  0.2535  0.1024
  144MOL   O21149117   8.008   6.131   5.102 -0.1679  0.2135  0.1105
  144MOL   C21249118   0.158   6.145   4.955  0.1812  0.1028  0.1246
  144MOL   C21349119   0.226   6.096   4.839 -0.2161  0.1848 -0.3286
  144MOL   C21449120   0.327   5.834   4.676  0.2568 -0.5938  0.4111
  144MOL   H21549121   0.160   5.913   4.559  0.6767 -2.7167 -0.0381
  144MOL   H21649122   8.004   5.889   4.729  0.9083 -1.0603  0.4259
  144MOL   H21749123   7.914   5.952   4.948 -0.9654  1.3952  1.5004
  144MOL   H21849124   0.026   6.174   5.165 -0.4492  1.4536 -0.4923
  144MOL   H21949125   0.214   6.222   5.005  1.6657 -0.9765  0.1696
  144MOL   H22049126   0.318   6.149   4.817 -0.7281  0.8602 -0.8908
  144MOL   H22149127   0.394   5.870   4.754 -2.7340  2.3895  1.7184
  144MOL   H22249128   0.401   5.807   4.601  0.9370  2.2865 -0.0026
  144MOL   C22349129   0.257   5.703   4.714  0.5965  0.5759  0.2617
  144MOL   C22449130   0.336   5.641   4.834  0.0238  0.3603 -0.7403
  144MOL   C22549131   0.294   5.675   4.964  0.1341 -0.1369  0.0665
  144MOL   C22649132   0.364   5.629   5.078  0.6159 -0.2228  0.2526
  144MOL   C22749133   0.483   5.551   5.067 -0.1146  0.4105 -1.3474
  144MOL   O22849134   0.564   5.509   5.170 -0.4356  0.4064  0.6949
  144MOL   C22949135   0.523   5.523   4.931  0.2526 -1.1149  0.2122
  144MOL   C23049136   0.452   5.568   4.818  0.0064 -0.0008  0.7887
  144MOL   C23149137   0.248   5.607   4.594 -0.0992 -0.8996  0.3948
  144MOL   H23249138   0.155   5.720   4.745  0.0827  0.9709 -1.5670
  144MOL   H23349139   0.198   5.723   4.974 -0.0249 -0.3148 -0.5922
  144MOL   H23449140   0.325   5.650   5.177 -1.1671 -2.4517  0.0687
  144MOL   H23549141   0.537   5.525   5.260 -0.5150 -2.6800  1.2702
  144MOL   H23649142   0.606   5.462   4.901 -0.5565 -2.1019 -0.0548
  144MOL   H23749143   0.493   5.551   4.720  1.1176 -0.3077  1.3058
  144MOL   H23849144   0.187   5.648   4.514 -0.0525  0.0330  0.8290
  144MOL   H23949145   0.342   5.588   4.543  0.2924 -0.7993  1.0665
  144MOL   C24049146   0.194   5.463   4.621  0.4622 -0.0953 -0.6816
  144MOL   C24149147   0.053   5.482   4.684  0.4428  0.5790  0.5616
  144MOL   C24249148   7.985   5.534   4.608  0.8317  0.0859  0.0556
  144MOL   C24349149   7.856   5.550   4.665  0.2665 -0.7324 -0.2372
  144MOL   C24449150   7.829   5.494   4.792  0.5252 -0.0017  0.2821
  144MOL   O24549151   7.704   5.491   4.841 -0.0543 -0.5336 -0.0939
  144MOL   C24649152   7.938   5.446   4.871  0.4044 -1.1087 -0.1201
  144MOL   C24749153   0.033   5.443   4.817  0.2104  0.8559 -0.1258
  144MOL   C24849154   0.196   5.371   4.493 -0.1513  0.1621 -0.9596
  144MOL   H24949155   0.263   5.420   4.694 -0.0930 -0.3694 -0.3156
  144MOL   H25049156   8.003   5.567   4.506 -0.0621 -1.5198 -0.6343
  144MOL   H25149157   7.772   5.599   4.618  0.6065  0.4364  0.3594
  144MOL   H25249158   7.642   5.493   4.769 -1.0559 -1.4057  0.7340
  144MOL   H25349159   7.923   5.416   4.973  2.9290 -1.0321  0.3109
  144MOL   H25449160   0.122   5.404   4.863  0.6308  1.5839 -0.3192
  144MOL   H25549161   0.155   5.272   4.516  0.2229  0.0417 -0.8000
  144MOL   H25649162   0.111   5.397   4.431 -2.0682 -2.1696  0.6049
  144MOL   C25749163   0.332   5.334   4.422  0.3243  0.3882  0.3310
  144MOL   C25849164   0.420   5.246   4.499  0.1919 -0.0580  0.7495
  144MOL   C25949165   0.386   5.117   4.536  0.9448 -0.1407 -0.3223
  144MOL   C26049166   0.473   5.039   4.620  0.0247 -0.0431  0.3255
  144MOL   C26149167   0.597   5.090   4.656 -0.7149 -0.2518 -0.0829
  144MOL   O26249168   0.690   5.022   4.732 -0.0155 -0.2704 -0.2225
  144MOL   C26349169   0.639   5.221   4.616  0.0533  0.8044  0.0579
  144MOL   C26449170   0.543   5.303   4.557 -0.1134  0.7764 -0.4471
  144MOL   C26549171   0.305   5.282   4.279  0.1912  0.0468 -0.1590
  144MOL   H26649172   0.389   5.426   4.413 -0.6875  1.0266  0.4860
  144MOL   H26749173   0.300   5.061   4.502  0.2435  0.3399  0.6461
  144MOL   H26849174   0.442   4.942   4.658 -1.3189  1.1056  2.2182
  144MOL   H26949175   0.751   5.081   4.775 -0.8675  1.2755 -1.1028
  144MOL   H27049176   0.736   5.261   4.643  0.6324 -1.9400  2.2475
  144MOL   H27149177   0.559   5.409   4.544  1.7131  0.6943  0.9188
  144MOL   H27249178   0.217   5.218   4.288 -0.8520  1.6175  1.0836
  144MOL   H27349179   0.380   5.205   4.260  0.8868  0.1383  2.0687
  144MOL   C27449180   0.288   5.395   4.170  0.5815  0.3263  0.5998
  144MOL   C27549181   0.158   5.469   4.179  0.9161  0.4416 -0.6216
  144MOL   C27649182   0.165   5.605   4.236 -0.4259  0.1357 -0.1990
  144MOL   C27749183   0.047   5.681   4.250  0.4808  0.6404  0.3595
  144MOL   C27849184   7.961   5.621   4.212 -0.7050 -1.1215  0.6596
  144MOL   O27949185   7.852   5.700   4.224 -0.0546 -0.1630 -0.3009
  144MOL   C28049186   7.954   5.487   4.170 -0.0928 -0.3807  0.4405
  144MOL   C28149187   0.033   5.413   4.151 -0.6432  0.3955  0.3668
  144MOL   C28249188   0.311   5.342   4.026  0.3673 -0.0250  0.6677
  144MOL   H28349189   0.370   5.466   4.181  0.4503  1.1573 -2.9141
  144MOL   H28449190   0.262   5.643   4.265 -1.1678  0.2223  2.2321
  144MOL   H28549191   0.051   5.781   4.289 -0.9020  0.9409 -0.2666
  144MOL   H28649192   7.853   5.780   4.273  0.2552  0.2834 -1.0184
  144MOL   H28749193   7.855   5.452   4.144 -0.3469  0.8804 -0.3620
  144MOL   H28849194   0.019   5.311   4.117 -0.8590 -0.0563  1.7651
  144MOL   H28949195   0.228   5.278   3.995  0.2154 -0.1493  1.3433
  144MOL   H29049196   0.294   5.427   3.960  2.0830 -0.5211 -0.4773
  144MOL   C29149197   0.442   5.277   3.986  0.4776  0.4808 -0.4120
  144MOL   C29249198   0.565   5.351   4.040 -0.2823  0.3405 -0.6061
  144MOL   C29349199   0.644   5.289   4.135 -0.7948  0.5654 -0.7887
  144MOL   C29449200   0.766   5.339   4.171 -0.7869 -0.5658  0.1810
  144MOL   C29549201   0.799   5.469   4.135 -0.5023 -0.3054  0.4895
  144MOL   O29649202   0.912   5.522   4.178  0.3190 -0.3366 -0.6164
  144MOL   C29749203   0.718   5.540   4.046 -0.1299 -0.5393 -0.1961
  144MOL   C29849204   0.605   5.479   3.989 -0.4490 -0.3523 -0.5654
  144MOL   C29949205   0.454   5.265   3.825 -0.6564  0.0215  0.0008
  144MOL   H30049206   0.446   5.177   4.030 -2.0940  0.3067 -0.4809
  144MOL   H30149207   0.613   5.192   4.172 -0.8084  0.7780 -0.2341
  144MOL   H30249208   0.830   5.280   4.236 -0.7022 -2.0238 -1.1979
  144MOL   H30349209   0.957   5.466   4.239 -1.2475 -0.5422  0.3843
  144MOL   H30449210   0.733   5.641   4.013  0.7624  0.0358  1.8981
  144MOL   H30549211   0.546   5.534   3.917 -1.0853 -0.3416 -0.0324
  144MOL   H30649212   0.555   5.247   3.787 -1.6231 -2.2822 -1.5774
  144MOL   H30749213   0.420   5.361   3.786  3.2245  0.9630 -1.3782
  144MOL   C30849214   0.365   5.142   3.772 -0.3094  0.1372 -0.4496
  144MOL   C30949215   0.426   5.001   3.784  0.0926  0.1120  1.0191
  144MOL   C31049216   0.342   4.892   3.805  0.0895  0.1716  0.4485
  144MOL   C31149217   0.391   4.762   3.797 -0.0051 -0.7453 -0.1640
  144MOL   C31249218   0.527   4.743   3.775 -0.0347 -0.3031  0.4734
  144MOL   O31349219   0.569   4.616   3.766 -0.6644 -0.6567  0.4362
  144MOL   C31449220   0.609   4.849   3.749  0.0080 -0.2568  0.7654
  144MOL   C31549221   0.559   4.981   3.757  0.0026 -0.1707 -0.5447
  144MOL   C31649222   0.321   5.155   3.624 -0.2705  0.7762 -0.3655
  144MOL   H31749223   0.275   5.134   3.833 -1.0732 -1.5045 -1.7351
  144MOL   H31849224   0.239   4.896   3.837 -0.0092 -2.0523  0.5358
  144MOL   H31949225   0.328   4.677   3.820 -0.2482 -0.6379 -0.4340
  144MOL   H32049226   0.500   4.551   3.767 -3.2604  2.0079  1.8261
  144MOL   H32149227   0.714   4.831   3.730 -0.0219  0.8050 -0.5222
  144MOL   H32249228   0.631   5.058   3.737 -2.3965  1.9718 -1.2171
  144MOL   H32349229   0.262   5.066   3.603  0.6733  0.1050 -0.1815
  144MOL   H32449230   0.406   5.147   3.557  0.8552 -1.5104  1.2922
  144MOL   C32549231   0.240   5.282   3.575 -0.3876 -0.0076 -0.4832
  144MOL   C32649232   0.121   5.314   3.657 -0.1049  0.4474 -0.2384
  144MOL   C32749233   0.116   5.439   3.713 -0.2210 -0.2100  0.2483
  144MOL   C32849234   8.036   5.487   3.778 -0.0332  0.6107 -0.3399
  144MOL   C32949235   7.924   5.401   3.789  0.7504 -0.7209 -1.1113
  144MOL   O33049236   7.818   5.439   3.857  0.1560  0.3082 -0.4168
  144MOL   C33149237   7.931   5.275   3.738 -0.2760  0.4650 -0.0560
  144MOL   C33249238   0.007   5.225   3.669 -0.4225 -0.5083 -0.4725
  144MOL   C33349239   0.201   5.252   3.432 -0.3716  0.2989 -0.0863
  144MOL   H33449240   0.318   5.358   3.573 -1.0920  0.7340 -0.0823
  144MOL   H33549241   0.202   5.504   3.705 -1.5192  1.5124 -0.1912
  144MOL   H33649242   8.021   5.584   3.824  1.5790 -0.0700  1.6644
  144MOL   H33749243   7.759   5.383   3.906  2.2738 -0.7949  0.9525
  144MOL   H33849244   7.843   5.212   3.744  1.9701 -2.8697 -0.7641
  144MOL   H33949245   0.009   5.130   3.618 -0.5695 -1.0269  0.4760
  144MOL   H34049246   0.153   5.155   3.420 -0.4737  0.0590  2.0864
  144MOL   H34149247   0.286   5.249   3.364 -0.9087  2.2143 -0.8798
  144MOL   H34249248   0.131   5.327   3.394 -0.0940  0.3512 -0.4936
  145MOL     C149249   6.614   7.251   2.401  0.5768  0.0273 -0.2933
  145MOL     C249250   6.535   7.139   2.338  0.0907 -0.0527 -0.4733
  145MOL     C349251   6.597   7.024   2.300 -0.5203 -0.3511  0.3128
  145MOL     C449252   6.523   6.910   2.254 -0.1626 -0.3937  0.2046
  145MOL     C549253   6.387   6.918   2.248  0.9648  0.5481 -0.5229
  145MOL     O649254   6.311   6.817   2.193  0.0788 -0.4589 -0.1804
  145MOL     C749255   6.320   7.034   2.303  0.7159 -0.2457 -0.2635
  145MOL     C849256   6.395   7.149   2.344 -0.3074 -0.0263 -0.1039
  145MOL     C949257   6.680   7.213   2.533 -0.4909  0.1466 -0.3000
  145MOL    H1049258   6.691   7.288   2.334  0.5742 -0.8354 -0.7780
  145MOL    H1149259   6.703   7.008   2.316 -0.7055 -0.1585  1.7901
  145MOL    H1249260   6.578   6.830   2.206 -1.8319 -0.7308 -1.2184
  145MOL    H1349261   6.220   6.840   2.202  0.7310  0.9616  3.8249
  145MOL    H1449262   6.213   7.044   2.302  0.8382  1.2648 -0.6012
  145MOL    H1549263   6.341   7.239   2.369  3.0176  1.5550  1.6874
  145MOL    H1649264   6.775   7.163   2.511 -1.1108 -1.2752  0.2117
  145MOL    H1749265   6.622   7.137   2.584 -0.4342 -0.6200 -1.3689
  145MOL    H1849266   6.545   7.335   2.412  0.5426  0.2544 -2.0521
  145MOL    C1949267   6.706   7.324   2.635  0.1292 -0.1416  0.6054
  145MOL    C2049268   6.824   7.293   2.725  0.4403  0.3020  0.4339
  145MOL    C2149269   6.921   7.389   2.759 -0.4935 -0.3618 -0.5266
  145MOL    C2249270   7.027   7.358   2.848  0.7463  0.2433 -1.0706
  145MOL    C2349271   7.039   7.227   2.895  0.4880  0.1753  0.7834
  145MOL    O2449272   7.154   7.181   2.952 -0.6570 -0.3900 -0.3230
  145MOL    C2549273   6.950   7.128   2.858  0.2922 -0.2308  0.4430
  145MOL    C2649274   6.835   7.161   2.783 -0.4746  0.1392  0.0898
  145MOL    C2749275   6.578   7.371   2.711  0.6710 -0.3702  0.5006
  145MOL    H2849276   6.744   7.409   2.577  0.2370 -0.2459  0.5230
  145MOL    H2949277   6.912   7.491   2.724 -2.1292  0.6330  2.5840
  145MOL    H3049278   7.100   7.432   2.875 -1.2811  1.4415  1.3664
  145MOL    H3149279   7.211   7.257   2.959  0.1418 -1.0116  0.0068
  145MOL    H3249280   6.950   7.023   2.886 -0.9177 -0.5083 -0.5207
  145MOL    H3349281   6.768   7.082   2.751  0.8275 -0.3314 -1.5478
  145MOL    H3449282   6.581   7.313   2.804  4.1836 -1.9316 -0.4985
  145MOL    H3549283   6.485   7.344   2.661 -1.1364 -0.2307  3.6173
  145MOL    C3649284   6.577   7.527   2.731 -0.6440  0.6620 -0.1810
  145MOL    C3749285   6.649   7.580   2.853  0.5533  0.4474  0.1345
  145MOL    C3849286   6.607   7.538   2.982 -0.6344  0.6353  1.4490
  145MOL    C3949287   6.671   7.597   3.092 -0.6462  0.4311 -0.1749
  145MOL    C4049288   6.775   7.694   3.073  0.9614  0.4992 -0.0626
  145MOL    O4149289   6.839   7.753   3.179 -0.4436  0.6226  0.4707
  145MOL    C4249290   6.806   7.742   2.947  0.1501  0.6767  0.3675
  145MOL    C4349291   6.745   7.681   2.839 -0.2361  0.2855 -0.2955
  145MOL    C4449292   6.435   7.585   2.727  0.0091  0.3632 -0.2289
  145MOL    H4549293   6.632   7.561   2.643 -2.3357  2.5109 -0.5807
  145MOL    H4649294   6.529   7.467   3.005 -0.6091  0.3966  0.8018
  145MOL    H4749295   6.649   7.571   3.194  0.8775  0.9195  0.2771
  145MOL    H4849296   6.907   7.817   3.162  1.8197 -1.7699  0.1371
  145MOL    H4949297   6.876   7.824   2.942  2.1822 -1.0044  0.0318
  145MOL    H5049298   6.779   7.712   2.741  1.3044 -0.2719  0.0579
  145MOL    H5149299   6.368   7.522   2.786  0.6601  0.3984  0.5588
  145MOL    H5249300   6.439   7.679   2.781 -0.2966  0.4404 -0.3376
  145MOL    C5349301   6.367   7.598   2.584 -0.3355 -0.7228 -0.4741
  145MOL    C5449302   6.222   7.647   2.588 -0.3606 -0.6212  0.2020
  145MOL    C5549303   6.193   7.770   2.648  0.1574  0.0642  0.6072
  145MOL    C5649304   6.060   7.817   2.634 -0.6380 -0.0388  0.0132
  145MOL    C5749305   5.968   7.746   2.557 -0.3982 -0.1333  0.0910
  145MOL    O5849306   5.844   7.787   2.526  0.1900  0.2613  0.4864
  145MOL    C5949307   5.997   7.613   2.519 -0.2915 -0.1107  0.4063
  145MOL    C6049308   6.124   7.563   2.536 -0.4762  0.2950 -0.0887
  145MOL    C6149309   6.441   7.676   2.473 -0.6679 -0.0563  1.0666
  145MOL    H6249310   6.368   7.494   2.551 -1.0952 -0.7275 -0.4953
  145MOL    H6349311   6.272   7.831   2.690 -0.4291  0.7073  0.7799
  145MOL    H6449312   6.041   7.917   2.672  0.4834 -0.5452  1.9239
  145MOL    H6549313   5.812   7.859   2.579  0.4359  2.5382 -2.3373
  145MOL    H6649314   5.917   7.551   2.480 -0.2944  0.0592  0.1473
  145MOL    H6749315   6.158   7.469   2.494  0.8094 -0.1218  1.7981
  145MOL    H6849316   6.540   7.632   2.467  0.9654  3.3647  1.6591
  145MOL    H6949317   6.458   7.780   2.502  2.1745 -0.3598  0.6442
  145MOL    C7049318   6.378   7.666   2.331  0.1447 -0.1481  0.6551
  145MOL    C7149319   6.484   7.635   2.227  0.4050  0.5563 -0.1058
  145MOL    C7249320   6.575   7.729   2.182  0.2106  0.5079  0.2523
  145MOL    C7349321   6.676   7.692   2.089 -0.2904 -1.0915 -0.1434
  145MOL    C7449322   6.684   7.560   2.039  0.7477  0.2869 -0.8068
  145MOL    O7549323   6.785   7.529   1.950 -0.0526  0.0244 -0.7551
  145MOL    C7649324   6.592   7.461   2.082  0.1484 -0.0803  0.1616
  145MOL    C7749325   6.493   7.501   2.178 -0.1798 -0.3314  0.3479
  145MOL    C7849326   6.294   7.781   2.290  0.3134 -0.6848  0.1955
  145MOL    H7949327   6.319   7.575   2.339  0.9333 -0.5828  1.7031
  145MOL    H8049328   6.579   7.831   2.217 -1.9294  0.8347 -0.3532
  145MOL    H8149329   6.754   7.758   2.053 -1.2807 -0.0691 -0.4583
  145MOL    H8249330   6.787   7.441   1.915  0.2317  0.2004 -1.1836
  145MOL    H8349331   6.601   7.366   2.033 -1.3218  0.2669 -0.8504
  145MOL    H8449332   6.439   7.417   2.218  0.9163 -0.2250  2.0984
  145MOL    H8549333   6.355   7.868   2.313 -0.5592  0.2043 -0.8204
  145MOL    H8649334   6.212   7.787   2.362  0.8593 -0.2663  0.7842
  145MOL    C8749335   6.216   7.777   2.155  0.9811 -0.0311  0.3242
  145MOL    C8849336   6.152   7.917   2.114 -0.4628  0.4758  0.5555
  145MOL    C8949337   6.245   8.012   2.077 -0.0981  0.1059 -1.1234
  145MOL    C9049338   6.200   0.102   2.035  0.4922 -0.2442 -0.6019
  145MOL    C9149339   6.061   0.132   2.032 -0.6047  0.1481 -0.0785
  145MOL    O9249340   6.019   0.248   1.981 -0.5914 -0.0742  0.5293
  145MOL    C9349341   5.972   0.035   2.067  0.0504  0.0838  0.3258
  145MOL    C9449342   6.017   7.946   2.111  0.0916  0.0984  0.5000
  145MOL    C9549343   6.114   7.656   2.148 -0.0586 -0.3102  0.1801
  145MOL    H9649344   6.296   7.754   2.085  1.3715 -0.0379  0.7701
  145MOL    H9749345   6.351   7.992   2.070  0.1178  1.2926 -1.3154
  145MOL    H9849346   6.267   0.184   2.011 -1.3849  1.4307 -0.2884
  145MOL    H9949347   6.087   0.304   1.945 -0.0781  0.1518  1.8231
  145MOL   H10049348   5.867   0.058   2.071  0.1825  0.6438  0.7094
  145MOL   H10149349   5.938   7.879   2.141 -1.3095  1.5433  0.1183
  145MOL   H10249350   6.153   7.562   2.187 -1.1884 -0.8643  0.0033
  145MOL   H10349351   6.029   7.674   2.214 -0.8985  1.0375 -1.2511
  145MOL   C10449352   6.065   7.620   2.006 -0.2698  0.4729 -0.2463
  145MOL   C10549353   5.918   7.566   2.004  0.7349  0.0102 -0.5390
  145MOL   C10649354   5.888   7.458   2.093 -0.4252 -0.7251 -0.2793
  145MOL   C10749355   5.755   7.410   2.103 -0.6060  0.2654  0.5890
  145MOL   C10849356   5.657   7.450   2.011 -0.3711 -0.3093  0.1059
  145MOL   O10949357   5.532   7.396   2.008  0.2363  0.6085  0.1560
  145MOL   C11049358   5.683   7.556   1.924 -0.3339 -0.2758  0.1195
  145MOL   C11149359   5.815   7.614   1.920 -0.6757  0.2424  0.0644
  145MOL   C11249360   6.170   7.517   1.938  0.5405  0.7073 -0.4665
  145MOL   H11349361   6.080   7.705   1.940  1.4798 -0.2468 -0.8049
  145MOL   H11449362   5.970   7.426   2.155 -1.5420  1.0172  2.1696
  145MOL   H11549363   5.749   7.333   2.179 -1.3721 -0.4365 -0.1873
  145MOL   H11649364   5.533   7.307   2.038 -0.3040  0.6192  0.2266
  145MOL   H11749365   5.609   7.585   1.851 -0.3815 -0.0507  0.2562
  145MOL   H11849366   5.836   7.706   1.867 -0.8071  1.3488  1.8890
  145MOL   H11949367   6.167   7.433   2.007 -1.5807 -0.1719 -1.5626
  145MOL   H12049368   6.273   7.551   1.943  0.2508  1.6974 -1.0171
  145MOL   C12149369   6.119   7.461   1.803  0.2772  0.5604 -0.2720
  145MOL   C12249370   6.092   7.563   1.695  0.3700 -0.3530 -0.4184
  145MOL   C12349371   5.998   7.532   1.597  0.6990 -0.2927 -0.0449
  145MOL   C12449372   5.983   7.611   1.478 -0.1154 -0.5341  0.4587
  145MOL   C12549373   6.063   7.728   1.465  0.2328  0.3441 -0.1889
  145MOL   O12649374   6.042   7.817   1.362 -0.0215  0.1920 -0.2680
  145MOL   C12749375   6.146   7.767   1.573 -0.2399 -0.5999  0.3252
  145MOL   C12849376   6.164   7.685   1.688  0.4775  0.0592 -0.0800
  145MOL   C12949377   6.220   7.358   1.747 -0.1162  0.3158 -0.0016
  145MOL   H13049378   6.027   7.405   1.815  1.1720 -0.7486  0.5882
  145MOL   H13149379   5.934   7.445   1.599 -0.1221  0.3246  0.4404
  145MOL   H13249380   5.915   7.580   1.400 -0.8158 -1.4085  1.3941
  145MOL   H13349381   5.986   7.887   1.393 -0.5780 -0.6165  0.5841
  145MOL   H13449382   6.210   7.855   1.575  0.4458 -1.0735 -0.2859
  145MOL   H13549383   6.242   7.709   1.758  0.2345  3.7671 -0.9687
  145MOL   H13649384   6.319   7.400   1.763  0.9745 -2.5145  1.0218
  145MOL   H13749385   6.208   7.360   1.638  1.5612  2.8004 -0.1728
  145MOL   C13849386   6.208   7.223   1.812  0.2864  0.4800 -0.2495
  145MOL   C13949387   6.341   7.151   1.794 -0.4732  0.4887 -0.6831
  145MOL   C14049388   6.379   7.104   1.665 -0.0513  0.2618 -0.1583
  145MOL   C14149389   6.494   7.020   1.655  0.5027  0.3513 -0.4234
  145MOL   C14249390   6.565   6.983   1.771 -1.2162  0.5293  0.2930
  145MOL   O14349391   6.668   6.894   1.757 -0.4342 -0.2914 -0.6873
  145MOL   C14449392   6.540   7.045   1.892 -0.2118 -0.1396 -0.6966
  145MOL   C14549393   6.434   7.137   1.901 -0.5080  0.1218  0.2615
  145MOL   C14649394   6.089   7.136   1.757 -0.0719 -0.0465  0.2954
  145MOL   H14749395   6.176   7.234   1.916 -2.0476  0.0913 -0.8839
  145MOL   H14849396   6.314   7.122   1.581 -1.0217 -1.8387  0.1007
  145MOL   H14949397   6.521   6.989   1.555  0.3741 -1.5588  0.1070
  145MOL   H15049398   6.648   6.816   1.707 -1.0728  0.3145 -1.3867
  145MOL   H15149399   6.599   7.015   1.978 -1.7676  1.3175  0.9367
  145MOL   H15249400   6.436   7.184   1.999 -1.6720 -2.3369  1.5176
  145MOL   H15349401   6.121   7.100   1.659  0.5869 -0.3509  0.6213
  145MOL   H15449402   5.999   7.197   1.743  1.6433  3.1677  2.7012
  145MOL   C15549403   6.059   7.013   1.840 -0.0870 -0.5319  0.5518
  145MOL   C15649404   5.998   6.908   1.752 -0.6622 -0.2659  0.2866
  145MOL   C15749405   5.871   6.925   1.698 -0.2723  0.1164  0.1470
  145MOL   C15849406   5.818   6.816   1.620 -0.2320 -0.6968 -0.0159
  145MOL   C15949407   5.892   6.707   1.586 -0.5282  0.2101  0.1054
  145MOL   O16049408   5.837   6.607   1.509 -0.1270  0.4379 -0.0799
  145MOL   C16149409   6.032   6.711   1.622 -0.1057 -0.0462  0.0254
  145MOL   C16249410   6.083   6.809   1.709 -0.1060  0.0471 -0.0425
  145MOL   C16349411   5.971   7.047   1.957  0.3456 -0.4613 -0.8838
  145MOL   H16449412   6.150   6.971   1.882 -0.3402  0.0491  1.6916
  145MOL   H16549413   5.815   7.013   1.725  2.1094  0.5062  4.1856
  145MOL   H16649414   5.724   6.833   1.570  0.4721  0.9693 -0.8342
  145MOL   H16749415   5.909   6.555   1.478  1.0196  2.0171 -0.1180
  145MOL   H16849416   6.101   6.634   1.591 -1.4317  0.3962 -4.2551
  145MOL   H16949417   6.180   6.793   1.752 -0.2630 -1.2866 -0.1773
  145MOL   H17049418   5.892   7.114   1.922  1.4128  1.8612  0.9833
  145MOL   H17149419   6.027   7.100   2.034 -1.3528 -0.9585  0.7304
  145MOL   C17249420   5.901   6.928   2.024  0.1526  0.7264  0.3030
  145MOL   C17349421   5.793   6.975   2.123 -0.7640  0.0571 -0.4447
  145MOL   C17449422   5.826   7.076   2.216 -0.4949 -0.3470 -0.2113
  145MOL   C17549423   5.742   7.113   2.321 -0.4929 -0.1057  0.1651
  145MOL   C17649424   5.618   7.043   2.330  0.2088  0.1689  0.6483
  145MOL   O17749425   5.535   7.066   2.440 -0.1024  0.5006 -0.2169
  145MOL   C17849426   5.578   6.952   2.232 -0.2956 -0.0527  1.1083
  145MOL   C17949427   5.670   6.916   2.137  0.3330 -0.5041  0.4709
  145MOL   C18049428   6.001   6.829   2.090 -0.0063  0.1794 -0.1224
  145MOL   H18149429   5.839   6.872   1.953 -0.6520  0.9325  0.8347
  145MOL   H18249430   5.910   7.142   2.204 -2.1033  1.5043 -1.4784
  145MOL   H18349431   5.784   7.172   2.401  1.8565 -0.7561 -0.5589
  145MOL   H18449432   5.557   7.137   2.497 -1.4932  2.4811 -2.0560
  145MOL   H18549433   5.480   6.906   2.230 -0.4510  0.2570  1.4945
  145MOL   H18649434   5.653   6.828   2.076  0.6341  0.5602 -1.1761
  145MOL   H18749435   6.045   6.861   2.184  1.6135  0.2068 -0.8823
  145MOL   H18849436   6.079   6.823   2.014 -0.8005  0.5710 -0.9795
  145MOL   C18949437   5.943   6.688   2.127 -0.8126  0.2120 -0.3370
  145MOL   C19049438   5.987   6.583   2.022 -0.4659 -0.4615  0.4203
  145MOL   C19149439   5.904   6.533   1.920 -0.1948  0.2018 -0.5278
  145MOL   C19249440   5.952   6.437   1.827 -0.1349 -0.2159 -0.7558
  145MOL   C19349441   6.089   6.398   1.830 -0.2682 -0.1116 -0.0547
  145MOL   O19449442   6.128   6.298   1.746 -0.0773  0.2179 -0.2591
  145MOL   C19549443   6.170   6.448   1.932  0.7057  0.3214 -0.1805
  145MOL   C19649444   6.121   6.545   2.024 -0.1528  0.3869  0.2494
  145MOL   C19749445   5.971   6.647   2.274  0.2008  0.3509 -0.1060
  145MOL   H19849446   5.836   6.702   2.117 -0.8414  0.6844  0.5645
  145MOL   H19949447   5.798   6.554   1.919 -0.0077  1.1799 -0.1134
  145MOL   H20049448   5.874   6.406   1.758 -1.0128 -0.2147  0.2341
  145MOL   H20149449   6.054   6.270   1.694  0.7936 -2.1698 -0.2882
  145MOL   H20249450   6.271   6.412   1.940  0.3846 -0.8417 -1.2466
  145MOL   H20349451   6.189   6.568   2.105 -0.8252 -0.1080  0.9660
  145MOL   H20449452   5.926   6.725   2.336 -0.0549 -1.2002  1.6940
  145MOL   H20549453   6.077   6.645   2.296  0.0755 -2.4683  0.4769
  145MOL   C20649454   5.916   6.507   2.320  0.0859 -0.1691 -0.2620
  145MOL   C20749455   5.776   6.479   2.263 -0.3735  0.2290 -0.8018
  145MOL   C20849456   5.755   6.360   2.192 -0.1708 -0.7922  0.0320
  145MOL   C20949457   5.630   6.340   2.128  0.1605  0.5647  0.4311
  145MOL   C21049458   5.526   6.437   2.135  0.4946 -0.5395  0.4635
  145MOL   O21149459   5.412   6.421   2.062 -0.2884  0.0355 -0.0638
  145MOL   C21249460   5.543   6.552   2.217  0.3453 -0.0530  0.7160
  145MOL   C21349461   5.671   6.575   2.277  0.5767  0.0161 -0.0703
  145MOL   C21449462   5.938   6.464   2.464 -0.0006  0.8192  0.0817
  145MOL   H21549463   5.986   6.444   2.266  1.7503  0.1772  1.4320
  145MOL   H21649464   5.823   6.276   2.198  0.7773 -0.1010 -0.9149
  145MOL   H21749465   5.608   6.247   2.077  1.5083  0.6748 -0.3791
  145MOL   H21849466   5.441   6.351   2.006 -0.5758  0.8302 -1.2144
  145MOL   H21949467   5.465   6.626   2.212 -1.1346 -1.7145 -2.9380
  145MOL   H22049468   5.684   6.673   2.321  1.5867 -0.5081  0.8021
  145MOL   H22149469   6.041   6.472   2.499  0.2754  0.5897 -0.6705
  145MOL   H22249470   5.923   6.357   2.454 -0.1917  0.9579 -1.2806
  145MOL   C22349471   5.829   6.510   2.564  0.6448 -0.2468  0.4205
  145MOL   C22449472   5.858   6.652   2.615  0.3003  0.7701  0.0028
  145MOL   C22549473   5.759   6.749   2.603  0.0867 -0.3453  0.2769
  145MOL   C22649474   5.777   6.880   2.649 -0.3739  0.2005 -0.0388
  145MOL   C22749475   5.898   6.914   2.716 -0.0401  0.1229  0.0691
  145MOL   O22849476   5.912   7.039   2.766  0.0185 -0.0778 -0.1084
  145MOL   C22949477   5.998   6.816   2.742 -0.2891 -0.1295  0.1592
  145MOL   C23049478   5.983   6.686   2.686  0.5120 -0.0420  1.5392
  145MOL   C23149479   5.825   6.412   2.687  0.2791 -0.2085  0.5831
  145MOL   H23249480   5.733   6.506   2.512  0.8375  0.0298  0.0361
  145MOL   H23349481   5.660   6.725   2.564  0.5934  0.9310 -1.8896
  145MOL   H23449482   5.711   6.960   2.618  1.7540  2.0073 -0.0444
  145MOL   H23549483   5.999   7.058   2.797  1.1388  1.2379 -3.7222
  145MOL   H23649484   6.093   6.838   2.789 -0.2865 -1.1881  0.6812
  145MOL   H23749485   6.055   6.609   2.709  0.1012 -1.0770 -0.5751
  145MOL   H23849486   5.878   6.321   2.662 -2.2521 -1.4393 -0.4551
  145MOL   H23949487   5.876   6.460   2.771  0.4376 -0.4109  0.6025
  145MOL   C24049488   5.678   6.378   2.736 -0.1653 -0.2549  0.7585
  145MOL   C24149489   5.593   6.311   2.626 -0.4031  0.0195 -0.0858
  145MOL   C24249490   5.458   6.352   2.608 -0.5336 -0.4515 -0.2946
  145MOL   C24349491   5.377   6.286   2.511  1.1700 -0.2112  0.5190
  145MOL   C24449492   5.433   6.190   2.421 -0.1745  0.0429 -0.5720
  145MOL   O24549493   5.350   6.132   2.329 -0.8459  0.2274 -0.1058
  145MOL   C24649494   5.570   6.161   2.432 -0.4099 -0.4379  0.1335
  145MOL   C24749495   5.649   6.219   2.534  0.4900  0.4289  0.1546
  145MOL   C24849496   5.678   6.286   2.865  0.2516  0.5431 -0.4770
  145MOL   H24949497   5.615   6.465   2.756  2.4019  2.2374 -1.5158
  145MOL   H25049498   5.421   6.419   2.685  1.2631  2.0679 -1.5765
  145MOL   H25149499   5.271   6.305   2.499  1.2115  0.9269  1.7645
  145MOL   H25249500   5.261   6.151   2.355 -0.4538 -0.0468  1.5121
  145MOL   H25349501   5.617   6.094   2.362 -0.9867 -1.2615  0.5284
  145MOL   H25449502   5.753   6.191   2.532  0.9384  2.1212 -0.6720
  145MOL   H25549503   5.592   6.221   2.853 -1.6200  2.6413  1.0667
  145MOL   H25649504   5.766   6.223   2.882 -0.1694 -0.0769 -0.5882
  145MOL   C25749505   5.640   6.363   2.991 -0.3083 -0.1691  0.3609
  145MOL   C25849506   5.595   6.257   3.094  1.2644 -0.6849 -0.0649
  145MOL   C25949507   5.452   6.229   3.110  0.1064 -0.4188 -0.1492
  145MOL   C26049508   5.406   6.113   3.180 -0.2163 -0.1503  0.5666
  145MOL   C26149509   5.505   6.031   3.246  0.0210 -0.1156  0.7831
  145MOL   O26249510   5.477   5.915   3.310 -0.0196  0.2867 -0.1499
  145MOL   C26349511   5.643   6.061   3.223  0.2084 -0.1016  0.0093
  145MOL   C26449512   5.690   6.177   3.158  0.2157 -0.8724 -1.0555
  145MOL   C26549513   5.752   6.459   3.033  0.2371  0.0619 -0.9538
  145MOL   H26649514   5.548   6.420   2.977 -0.2561 -0.0362  0.5602
  145MOL   H26749515   5.369   6.281   3.063  1.9378  1.3788 -1.4612
  145MOL   H26849516   5.301   6.095   3.191  0.1966 -2.6890  0.5564
  145MOL   H26949517   5.541   5.882   3.371  0.6769 -0.5767 -1.3494
  145MOL   H27049518   5.715   5.989   3.258 -0.9833 -1.2165  0.2088
  145MOL   H27149519   5.795   6.202   3.153 -0.4680  2.0235 -2.0834
  145MOL   H27249520   5.785   6.525   2.952 -0.6697 -0.8928 -2.1182
  145MOL   H27349521   5.830   6.391   3.066 -0.9922 -0.6530  0.5104
  145MOL   C27449522   5.727   6.561   3.144 -0.0608 -0.4464 -0.7230
  145MOL   C27549523   5.609   6.658   3.119 -0.4215  0.8092 -0.2398
  145MOL   C27649524   5.610   6.749   3.018  0.1475  0.2073 -0.6341
  145MOL   C27749525   5.500   6.834   2.993  0.3294 -0.2691  0.2423
  145MOL   C27849526   5.397   6.836   3.092  0.5868  0.0244 -0.6754
  145MOL   O27949527   5.291   6.927   3.089  0.6931 -0.2876  0.5642
  145MOL   C28049528   5.396   6.740   3.200 -0.3764  0.1278 -0.1499
  145MOL   C28149529   5.498   6.654   3.209  0.5246  0.6249 -0.0494
  145MOL   C28249530   5.854   6.645   3.184 -0.7831  0.1709  0.0876
  145MOL   H28349531   5.710   6.484   3.219 -1.2511 -0.3969 -0.9302
  145MOL   H28449532   5.690   6.761   2.947  1.1169  1.2045  0.5994
  145MOL   H28549533   5.504   6.906   2.912  1.1890  0.0537  0.5665
  145MOL   H28649534   5.234   6.910   3.015 -0.7994  1.3066  1.3079
  145MOL   H28749535   5.320   6.740   3.276 -1.8949  0.3662 -1.6532
  145MOL   H28849536   5.516   6.590   3.294  0.9626  1.3239  0.3874
  145MOL   H28949537   5.942   6.584   3.204 -0.4995  0.1750 -1.1325
  145MOL   H29049538   5.887   6.694   3.092  0.4502 -1.3917 -0.3229
  145MOL   C29149539   5.851   6.764   3.282 -0.4381 -0.0446 -0.2790
  145MOL   C29249540   5.984   6.844   3.281 -0.1000 -0.3392  0.3285
  145MOL   C29349541   5.979   6.976   3.222 -0.6475  0.2157  0.0209
  145MOL   C29449542   6.086   7.063   3.247 -0.4456 -0.4390  0.3296
  145MOL   C29549543   6.202   7.014   3.312  0.2962  0.5854  0.7184
  145MOL   O29649544   6.308   7.098   3.326  0.6011 -0.7934 -0.4521
  145MOL   C29749545   6.210   6.886   3.361  0.1273  0.3429  1.0611
  145MOL   C29849546   6.100   6.799   3.344 -0.0199  0.3899  0.4976
  145MOL   C29949547   5.805   6.710   3.421  0.6460 -0.2347 -0.3098
  145MOL   H30049548   5.784   6.839   3.240 -0.0072  0.6512  0.2683
  145MOL   H30149549   5.894   7.011   3.165  0.4374  4.6349  0.9936
  145MOL   H30249550   6.087   7.168   3.221  0.2977  0.0730  2.3264
  145MOL   H30349551   6.337   7.082   3.415  0.6457  0.2130 -0.2717
  145MOL   H30449552   6.299   6.839   3.399 -0.7242 -1.0838  1.3320
  145MOL   H30549553   6.116   6.703   3.392  1.2449  0.8589  1.0343
  145MOL   H30649554   5.860   6.622   3.454 -1.7107 -1.2438  1.0883
  145MOL   H30749555   5.701   6.678   3.411  0.6529  0.1236 -1.6216
  145MOL   C30849556   5.818   6.807   3.544  0.0152  0.1989 -0.0628
  145MOL   C30949557   5.769   6.744   3.670 -0.2410  0.1277  0.1338
  145MOL   C31049558   5.630   6.695   3.671 -0.3966 -0.0378  0.3488
  145MOL   C31149559   5.580   6.629   3.793 -0.4007  0.1341 -0.0384
  145MOL   C31249560   5.658   6.615   3.903 -0.8134  0.6972  0.4943
  145MOL   O31349561   5.605   6.547   4.007  0.2250 -0.2233 -0.4777
  145MOL   C31449562   5.785   6.668   3.904  0.5878 -0.1542 -0.0482
  145MOL   C31549563   5.842   6.732   3.790  0.3700  0.4659  0.6490
  145MOL   C31649564   5.760   6.946   3.512  0.3567 -0.0052 -1.1199
  145MOL   H31749565   5.926   6.821   3.549  0.1633 -1.3352  1.0930
  145MOL   H31849566   5.570   6.700   3.582  0.0360  0.5857  0.0869
  145MOL   H31949567   5.483   6.581   3.794 -0.3542  0.0540  1.5984
  145MOL   H32049568   5.646   6.573   4.088  1.5122  0.7287 -1.4162
  145MOL   H32149569   5.831   6.670   4.002 -1.4819 -0.8377  0.9706
  145MOL   H32249570   5.943   6.768   3.803  0.9535 -0.9814  0.1592
  145MOL   H32349571   5.651   6.940   3.511  0.2904  1.0981 -2.0587
  145MOL   H32449572   5.778   6.985   3.412  2.9481 -0.8508 -1.0024
  145MOL   C32549573   5.802   7.061   3.604  0.0846 -0.6255 -0.4245
  145MOL   C32649574   5.734   7.194   3.560 -0.9069 -0.4154  0.1657
  145MOL   C32749575   5.679   7.281   3.657  0.1903 -0.1648  0.4988
  145MOL   C32849576   5.627   7.407   3.617  0.2277 -0.0988  0.0806
  145MOL   C32949577   5.636   7.452   3.486  0.2148 -0.1946  0.7326
  145MOL   O33049578   5.580   7.570   3.441 -0.4003 -0.2076  0.1533
  145MOL   C33149579   5.706   7.374   3.395 -0.7173 -0.0105 -0.2427
  145MOL   C33249580   5.754   7.246   3.428  0.8616  0.0626 -0.7289
  145MOL   C33349581   5.956   7.079   3.618  0.4358  0.9277  0.1508
  145MOL   H33449582   5.781   7.041   3.709 -0.2451 -0.5449 -0.4741
  145MOL   H33549583   5.678   7.255   3.762 -0.4217  0.4182  0.6411
  145MOL   H33649584   5.580   7.470   3.691 -2.0991  0.8710 -2.1009
  145MOL   H33749585   5.549   7.622   3.513  0.9077  0.8529 -0.0274
  145MOL   H33849586   5.732   7.410   3.297 -2.7109 -1.5408 -1.3820
  145MOL   H33949587   5.810   7.192   3.352  0.3303 -0.2526 -0.8983
  145MOL   H34049588   6.010   6.995   3.662  0.5411  0.0361 -1.6248
  145MOL   H34149589   5.981   7.152   3.695  2.6067  0.0200  0.3408
  145MOL   H34249590   6.010   7.102   3.526 -0.1112 -0.9118 -0.6531
  146MOL     C149591   3.196   3.071   0.494 -0.5949 -0.1847 -0.2756
  146MOL     C249592   3.075   2.987   0.483 -0.5347  0.3920  0.3454
  146MOL     C349593   3.033   2.964   0.348  1.0967 -0.1066  0.3649
  146MOL     C449594   2.933   2.870   0.328  0.2390 -0.2642  0.1027
  146MOL     C549595   2.883   2.793   0.433  0.3374  0.0644 -0.6910
  146MOL     O649596   2.791   2.706   0.413  0.4245 -0.1548  0.7040
  146MOL     C749597   2.918   2.823   0.562  0.6172 -0.3054 -0.6664
  146MOL     C849598   3.015   2.921   0.586 -0.3240 -0.2780  0.4784
  146MOL     C949599   3.325   2.984   0.501  0.0923  0.5585 -0.2625
  146MOL    H1049600   3.191   3.134   0.405  1.2754  0.7599  0.2523
  146MOL    H1149601   3.073   3.025   0.269  0.5947  0.2974  0.4240
  146MOL    H1249602   2.898   2.862   0.226  0.9013 -0.6162 -0.1030
  146MOL    H1349603   2.759   2.704   0.324  1.1334 -2.1417  0.4657
  146MOL    H1449604   2.871   2.766   0.641 -0.1780  0.5807 -0.4821
  146MOL    H1549605   3.055   2.942   0.684 -0.9927  0.4084  0.6130
  146MOL    H1649606   3.385   3.016   0.416  3.5274 -0.5236  1.6357
  146MOL    H1749607   3.290   2.881   0.490 -0.7535  0.6364  1.4501
  146MOL    H1849608   3.166   3.143   0.571  0.3207  0.3621 -0.4245
  146MOL    C1949609   3.414   2.999   0.630 -0.5269  0.6976  0.1087
  146MOL    C2049610   3.544   2.931   0.601  0.4937  0.3534 -0.2927
  146MOL    C2149611   3.567   2.790   0.616 -0.4680 -0.0990  0.0923
  146MOL    C2249612   3.686   2.733   0.572  0.2005  0.3949  0.7084
  146MOL    C2349613   3.782   2.802   0.502  0.1489 -0.1547 -0.0111
  146MOL    O2449614   3.901   2.742   0.476  0.1662  0.0508 -0.0996
  146MOL    C2549615   3.768   2.942   0.486  0.5132  0.7895  0.3973
  146MOL    C2649616   3.649   3.001   0.534 -0.1018 -0.5174 -0.4150
  146MOL    C2749617   3.348   2.952   0.762  0.0510 -0.2528  0.2330
  146MOL    H2849618   3.451   3.100   0.649  0.1281  0.6102 -0.6580
  146MOL    H2949619   3.493   2.726   0.663  0.7019 -1.3766  0.2144
  146MOL    H3049620   3.707   2.628   0.585  0.1130  0.2720 -0.0896
  146MOL    H3149621   3.942   2.793   0.408 -1.6655  1.0693 -0.4968
  146MOL    H3249622   3.839   3.000   0.429  0.0724  0.6172 -0.3361
  146MOL    H3349623   3.653   3.109   0.531  0.7435 -0.4930  1.0031
  146MOL    H3449624   3.353   2.845   0.781 -1.0228 -0.9913 -3.4360
  146MOL    H3549625   3.243   2.975   0.743  0.5969  1.4121 -0.9217
  146MOL    C3649626   3.376   3.043   0.884 -0.7410 -0.2750  0.2818
  146MOL    C3749627   3.494   2.987   0.969  0.9256  0.0348 -0.3957
  146MOL    C3849628   3.484   2.864   1.041 -0.7028 -0.1881 -0.9917
  146MOL    C3949629   3.582   2.829   1.138 -0.0851  0.1925 -0.4402
  146MOL    C4049630   3.706   2.891   1.138  0.3471  0.5858 -0.0992
  146MOL    O4149631   3.804   2.846   1.222 -0.4599 -0.0090  0.3360
  146MOL    C4249632   3.728   2.999   1.052 -0.3184  0.0606  0.1571
  146MOL    C4349633   3.623   3.052   0.979  0.3816 -0.7227 -0.4686
  146MOL    C4449634   3.255   3.074   0.967 -0.0937  0.2572 -0.7938
  146MOL    H4549635   3.419   3.140   0.858 -1.9460 -0.0314 -0.8491
  146MOL    H4649636   3.393   2.807   1.036 -0.1415 -1.1308 -0.7044
  146MOL    H4749637   3.548   2.743   1.193 -0.2602  0.2514 -0.4552
  146MOL    H4849638   3.891   2.844   1.186  0.2400 -1.2419  2.0318
  146MOL    H4949639   3.826   3.044   1.057 -1.5428  2.8982 -0.4833
  146MOL    H5049640   3.634   3.142   0.920 -1.0077 -0.7009 -0.7092
  146MOL    H5149641   3.196   3.150   0.916 -2.1257 -2.0695 -1.9977
  146MOL    H5249642   3.195   2.983   0.969 -0.9030  0.7247 -2.6717
  146MOL    C5349643   3.273   3.119   1.114  0.2015  0.3388  0.5776
  146MOL    C5449644   3.351   3.246   1.128  0.7969 -0.0933  0.5554
  146MOL    C5549645   3.310   3.367   1.074  0.1980 -0.7560 -0.6888
  146MOL    C5649646   3.382   3.479   1.095 -0.4127  0.0238 -0.4320
  146MOL    C5749647   3.507   3.470   1.169 -0.2228 -0.3372  0.6786
  146MOL    O5849648   3.576   3.582   1.185  0.2933  0.4296  0.3063
  146MOL    C5949649   3.563   3.346   1.208 -0.1090 -0.4575 -0.2155
  146MOL    C6049650   3.477   3.236   1.195  0.1148  0.2326 -0.5814
  146MOL    C6149651   3.142   3.139   1.190 -0.0103  0.4390 -0.0096
  146MOL    H6249652   3.328   3.040   1.166  0.8840  1.1144  1.0538
  146MOL    H6349653   3.218   3.360   1.017 -2.2805  1.2444  2.8382
  146MOL    H6449654   3.333   3.569   1.064 -4.0986 -0.2442  4.0277
  146MOL    H6549655   3.518   3.654   1.208  0.4714  0.3805  0.9345
  146MOL    H6649656   3.661   3.329   1.250  0.1364  0.2764 -0.4725
  146MOL    H6749657   3.497   3.139   1.236  0.4710 -0.1342 -1.5935
  146MOL    H6849658   3.059   3.090   1.139  1.0007 -0.1130 -1.1610
  146MOL    H6949659   3.117   3.242   1.165 -0.8191  0.2749  0.0993
  146MOL    C7049660   3.153   3.087   1.335  0.4526 -0.3866  0.5265
  146MOL    C7149661   3.143   2.935   1.344 -0.1451  0.1954  0.3459
  146MOL    C7249662   3.027   2.878   1.308  0.0861  0.1822  0.6343
  146MOL    C7349663   3.012   2.738   1.310 -0.4579 -0.4673 -0.1848
  146MOL    C7449664   3.110   2.648   1.346  0.1494  0.0642 -0.7858
  146MOL    O7549665   3.089   2.514   1.361 -0.1582  0.0887 -0.3588
  146MOL    C7649666   3.237   2.709   1.386  0.0971 -0.4150 -0.1607
  146MOL    C7749667   3.248   2.849   1.383 -0.2942  0.4211  0.2191
  146MOL    C7849668   3.039   3.144   1.425 -0.7794 -0.1480  0.4081
  146MOL    H7949669   3.247   3.112   1.383  0.9372 -2.5789  0.7320
  146MOL    H8049670   2.945   2.944   1.285  0.5410  0.7525  0.6519
  146MOL    H8149671   2.913   2.708   1.278  0.0799  0.3812 -2.7983
  146MOL    H8249672   3.151   2.477   1.421  0.5118  0.8617 -0.5591
  146MOL    H8349673   3.321   2.653   1.422  0.2788 -0.4228 -0.5985
  146MOL    H8449674   3.343   2.895   1.407  0.7580 -1.0778 -1.0078
  146MOL    H8549675   3.036   3.080   1.513  0.9877 -1.2717 -0.3054
  146MOL    H8649676   2.949   3.152   1.365  0.4429  0.8664 -1.3289
  146MOL    C8749677   3.073   3.282   1.483 -0.2404  0.6047 -0.7774
  146MOL    C8849678   3.203   3.287   1.561  0.1245  0.1582 -0.1009
  146MOL    C8949679   3.325   3.331   1.508 -0.3674  0.1674  0.1712
  146MOL    C9049680   3.443   3.337   1.582 -0.1777 -0.0582  0.5598
  146MOL    C9149681   3.444   3.288   1.713  0.3411 -0.2580  0.3086
  146MOL    O9249682   3.553   3.286   1.796 -0.2940 -0.0368  0.2142
  146MOL    C9349683   3.334   3.232   1.764  0.1048 -1.2536  0.6223
  146MOL    C9449684   3.210   3.239   1.692  0.3537  0.3236  0.1282
  146MOL    C9549685   2.959   3.357   1.560  0.3325 -0.2870  0.5714
  146MOL    H9649686   3.096   3.352   1.403 -2.7789  2.2367 -0.1488
  146MOL    H9749687   3.330   3.361   1.404  1.0166 -0.8396 -0.0640
  146MOL    H9849688   3.535   3.369   1.535 -0.9257  1.2956 -0.0204
  146MOL    H9949689   3.618   3.346   1.764  0.1619 -0.9569 -0.6204
  146MOL   H10049690   3.334   3.185   1.861  1.1743  0.4389  1.4621
  146MOL   H10149691   3.120   3.200   1.736 -0.1391  2.3590  0.9784
  146MOL   H10249692   2.871   3.361   1.495  1.7349 -0.7233 -1.3969
  146MOL   H10349693   2.942   3.288   1.643  0.2989 -1.3530 -0.3156
  146MOL   C10449694   2.974   3.506   1.603  0.4815 -0.5441  0.0184
  146MOL   C10549695   2.960   3.606   1.486  0.1138  0.2054  0.5455
  146MOL   C10649696   2.834   3.661   1.467  0.6532  0.1358 -0.1712
  146MOL   C10749697   2.818   3.759   1.368 -0.1583  0.3913 -0.4952
  146MOL   C10849698   2.920   3.801   1.288 -0.2921  0.2484  0.1639
  146MOL   O10949699   2.901   3.900   1.198 -0.6042  0.2164  0.8597
  146MOL   C11049700   3.047   3.731   1.305  0.0543 -0.3785 -0.2045
  146MOL   C11149701   3.066   3.633   1.402 -0.2225 -0.1030  0.3825
  146MOL   C11249702   3.079   3.541   1.713 -0.1253  0.4514  0.0658
  146MOL   H11349703   2.887   3.519   1.667  0.5866  4.4850 -0.6923
  146MOL   H11449704   2.748   3.629   1.524 -0.5428 -0.9713 -2.5100
  146MOL   H11549705   2.718   3.795   1.349 -1.1380 -2.0184 -0.1096
  146MOL   H11649706   2.848   3.974   1.224  0.0391  0.8940  0.2612
  146MOL   H11749707   3.135   3.764   1.253  0.0987 -1.9619 -1.1639
  146MOL   H11849708   3.162   3.589   1.423  0.8510  1.9162 -0.1916
  146MOL   H11949709   3.176   3.521   1.669  0.2179 -0.5730  1.2769
  146MOL   H12049710   3.083   3.462   1.788 -0.3275  0.3823  0.0054
  146MOL   C12149711   3.073   3.675   1.772  0.3369 -0.0543 -0.1632
  146MOL   C12249712   2.943   3.702   1.849 -0.6160 -0.0494 -1.2289
  146MOL   C12349713   2.927   3.653   1.983  0.4373 -0.0407  0.4897
  146MOL   C12449714   2.812   3.674   2.059 -0.1284 -0.0128  0.2017
  146MOL   C12549715   2.706   3.744   2.002 -0.2413  0.5672 -0.0875
  146MOL   O12649716   2.596   3.764   2.089 -0.9658 -0.0142  0.1088
  146MOL   C12749717   2.713   3.799   1.871 -0.7111 -0.5056 -0.6015
  146MOL   C12849718   2.832   3.769   1.794  0.2868  0.0738 -0.2642
  146MOL   C12949719   3.197   3.712   1.858 -0.2524  1.2258 -0.4246
  146MOL   H13049720   3.083   3.751   1.694 -0.2318 -0.5264 -0.6988
  146MOL   H13149721   3.013   3.602   2.025 -0.0195  0.2002  1.7528
  146MOL   H13249722   2.802   3.629   2.156  0.2664  0.2374  0.3606
  146MOL   H13349723   2.542   3.834   2.055 -0.4898  0.0433 -0.5519
  146MOL   H13449724   2.637   3.860   1.825 -0.0068  2.4403  1.9728
  146MOL   H13549725   2.844   3.814   1.696 -0.1241 -0.0835 -0.3878
  146MOL   H13649726   3.259   3.623   1.865 -1.4728  0.3751 -0.2817
  146MOL   H13749727   3.166   3.740   1.959  0.7362  1.0177 -0.0606
  146MOL   C13849728   3.296   3.813   1.802  0.6416 -0.3973 -0.0257
  146MOL   C13949729   3.323   3.799   1.653  0.3428  0.3724 -0.6341
  146MOL   C14049730   3.404   3.699   1.593  0.2057 -0.3131  0.1303
  146MOL   C14149731   3.426   3.698   1.455  0.0813  0.4010 -0.4585
  146MOL   C14249732   3.373   3.796   1.376  0.3864 -0.1717  0.4525
  146MOL   O14349733   3.397   3.790   1.242  0.4377 -0.0331  0.0020
  146MOL   C14449734   3.289   3.896   1.432 -0.3572 -0.9166 -0.5324
  146MOL   C14549735   3.263   3.895   1.569  0.0364  0.2076 -0.2061
  146MOL   C14649736   3.419   3.824   1.895 -0.5978 -0.0107 -0.5118
  146MOL   H14749737   3.246   3.909   1.816  1.9473 -0.0338  2.5681
  146MOL   H14849738   3.456   3.628   1.655 -2.0935 -1.5292  0.7282
  146MOL   H14949739   3.489   3.622   1.411 -1.4264 -1.3440  0.3225
  146MOL   H15049740   3.346   3.848   1.188  0.4582 -0.3666 -0.3831
  146MOL   H15149741   3.262   3.985   1.376 -0.9267  0.1590  1.4047
  146MOL   H15249742   3.212   3.983   1.606 -1.5552 -1.2487  1.1255
  146MOL   H15349743   3.465   3.726   1.900 -0.1044  0.2652  0.4156
  146MOL   H15449744   3.398   3.859   1.996  3.9867 -0.8779  0.8635
  146MOL   C15549745   3.535   3.910   1.838 -0.0425  0.4023 -0.2106
  146MOL   C15649746   3.670   3.851   1.888  0.4576  0.0884 -0.4575
  146MOL   C15749747   3.701   3.837   2.031 -0.3910  0.2031 -0.0811
  146MOL   C15849748   3.828   3.781   2.068  0.1345 -0.3608 -0.6193
  146MOL   C15949749   3.922   3.743   1.971 -0.0396  0.9037 -0.3750
  146MOL   O16049750   4.047   3.695   2.008 -0.1873  0.3932  0.1856
  146MOL   C16149751   3.891   3.762   1.837 -0.1532 -0.3944 -0.5483
  146MOL   C16249752   3.768   3.809   1.798 -0.1446  0.4917 -0.0100
  146MOL   C16349753   3.515   4.063   1.848  0.1410  0.3465  0.0806
  146MOL   H16449754   3.537   3.884   1.732 -0.9093 -1.7481  0.2594
  146MOL   H16549755   3.647   3.882   2.113 -1.4171 -2.2035  0.6197
  146MOL   H16649756   3.854   3.769   2.172 -1.6577  0.4514 -0.0656
  146MOL   H16749757   4.111   3.712   1.941 -0.6685  0.6747 -0.2037
  146MOL   H16849758   3.967   3.744   1.763 -1.8690 -5.4946 -1.2916
  146MOL   H16949759   3.767   3.823   1.691 -2.0052  1.3236  0.0953
  146MOL   H17049760   3.553   4.100   1.943 -2.6982  1.3578  0.8547
  146MOL   H17149761   3.409   4.082   1.833 -0.1245 -1.6577 -0.8509
  146MOL   C17249762   3.586   4.143   1.737 -0.1318 -0.6355  0.6357
  146MOL   C17349763   3.594   4.295   1.774 -0.5887  0.1978  0.6999
  146MOL   C17449764   3.475   4.366   1.770 -0.4561 -0.1091  0.2429
  146MOL   C17549765   3.480   4.502   1.807 -0.2997 -0.1704  0.4826
  146MOL   C17649766   3.598   4.562   1.859  0.1092  0.4942  0.2572
  146MOL   O17749767   3.606   4.692   1.892 -0.3935  1.0271 -0.0517
  146MOL   C17849768   3.717   4.483   1.858 -0.1057 -0.4589  0.3166
  146MOL   C17949769   3.711   4.350   1.814 -0.9377 -0.4546 -0.7270
  146MOL   C18049770   3.522   4.124   1.595  0.4583  0.4035 -0.0626
  146MOL   H18149771   3.686   4.105   1.718 -0.1049 -1.4383  2.2824
  146MOL   H18249772   3.391   4.313   1.726 -0.3598  0.5405 -0.7392
  146MOL   H18349773   3.393   4.560   1.780  0.5101  0.5022 -0.7577
  146MOL   H18449774   3.521   4.732   1.879 -2.3589 -2.6371  0.9283
  146MOL   H18549775   3.813   4.527   1.882  0.1301 -0.0881 -1.3028
  146MOL   H18649776   3.800   4.289   1.817 -0.4419  0.3327  3.4276
  146MOL   H18749777   3.424   4.170   1.585  1.7342  3.4573  1.0815
  146MOL   H18849778   3.504   4.017   1.584  0.2985  0.6652 -2.6234
  146MOL   C18949779   3.598   4.184   1.479 -0.6104 -0.0437  0.2367
  146MOL   C19049780   3.709   4.094   1.417 -0.0807  0.4818  0.0939
  146MOL   C19149781   3.672   3.986   1.334 -0.4792 -0.3485 -0.7586
  146MOL   C19249782   3.767   3.905   1.274  0.5021 -1.1221  0.0563
  146MOL   C19349783   3.905   3.915   1.301  0.2933 -0.3263 -0.0224
  146MOL   O19449784   3.999   3.841   1.237  0.5328 -0.6978 -0.1190
  146MOL   C19549785   3.943   4.019   1.390  0.0610 -0.1032  0.3274
  146MOL   C19649786   3.849   4.104   1.450  0.1384 -0.0578  0.3213
  146MOL   C19749787   3.511   4.250   1.364 -0.1509 -0.5159  0.5478
  146MOL   H19849788   3.651   4.260   1.535 -0.2826 -1.5027  1.9300
  146MOL   H19949789   3.570   3.963   1.308 -1.0574  0.0009  1.1289
  146MOL   H20049790   3.728   3.844   1.194 -0.4444 -0.1698 -0.2232
  146MOL   H20149791   3.954   3.764   1.205  0.7885 -0.7635 -0.3136
  146MOL   H20249792   4.046   4.038   1.419  0.1004  1.2865 -0.7315
  146MOL   H20349793   3.878   4.194   1.501 -0.6877  0.3767  0.0377
  146MOL   H20449794   3.405   4.236   1.388 -0.6049 -1.4786 -1.8836
  146MOL   H20549795   3.530   4.198   1.271 -3.4224 -3.3231  1.3520
  146MOL   C20649796   3.519   4.403   1.364 -0.1412 -1.0574 -0.1345
  146MOL   C20749797   3.391   4.467   1.309  0.0007 -0.8176  0.5194
  146MOL   C20849798   3.307   4.550   1.391 -0.5450 -0.6965 -0.5758
  146MOL   C20949799   3.198   4.620   1.332 -0.3976 -0.1107 -0.5839
  146MOL   C21049800   3.174   4.616   1.199  0.2923 -0.3579  0.2434
  146MOL   O21149801   3.068   4.690   1.147 -0.3600  0.0254 -0.0776
  146MOL   C21249802   3.255   4.532   1.117  0.4250 -0.0500 -0.2849
  146MOL   C21349803   3.365   4.465   1.170 -0.0947  0.6486 -0.3588
  146MOL   C21449804   3.653   4.452   1.309  0.1946 -0.6725  0.0980
  146MOL   H21549805   3.526   4.440   1.466 -0.0120 -0.0361 -0.5085
  146MOL   H21649806   3.337   4.566   1.493 -1.3533  1.0081 -0.5867
  146MOL   H21749807   3.134   4.673   1.401 -0.5097  0.7838 -1.3736
  146MOL   H21849808   3.041   4.687   1.057 -1.7627 -2.1691  0.3781
  146MOL   H21949809   3.243   4.529   1.010  1.3968 -0.0426 -0.4018
  146MOL   H22049810   3.427   4.409   1.101  1.5943 -0.1586  1.7350
  146MOL   H22149811   3.652   4.443   1.201 -0.5300  3.1025 -0.2774
  146MOL   H22249812   3.732   4.387   1.348 -0.3096 -1.4377 -0.1432
  146MOL   C22349813   3.708   4.594   1.348  0.1733 -0.1623  0.1176
  146MOL   C22449814   3.611   4.713   1.319 -0.2326 -0.7633  0.0766
  146MOL   C22549815   3.578   4.808   1.416  0.3733  0.0481 -0.6712
  146MOL   C22649816   3.477   4.897   1.398 -0.2553  0.2339 -0.0420
  146MOL   C22749817   3.412   4.918   1.276 -0.2483  0.8389 -0.2614
  146MOL   O22849818   3.328   5.017   1.253 -0.9119  0.4056  0.4709
  146MOL   C22949819   3.440   4.823   1.177  0.1183 -0.4442 -0.1186
  146MOL   C23049820   3.535   4.722   1.198  0.2159 -0.4130  0.2988
  146MOL   C23149821   3.841   4.624   1.288 -0.9336  0.9359 -0.4234
  146MOL   H23249822   3.726   4.586   1.455  1.5729 -0.7019 -0.1458
  146MOL   H23349823   3.625   4.795   1.513  0.0522  0.7321 -0.4217
  146MOL   H23449824   3.452   4.975   1.469  0.7356  1.4784 -1.0372
  146MOL   H23549825   3.300   5.058   1.333  0.6577 -3.1273  2.9468
  146MOL   H23649826   3.379   4.832   1.088 -1.6014 -2.6282  0.7913
  146MOL   H23749827   3.562   4.655   1.118 -0.0321  1.0149 -1.0059
  146MOL   H23849828   3.902   4.537   1.311  2.4773  3.1576 -0.6644
  146MOL   H23949829   3.839   4.623   1.179 -0.1164 -0.1891 -0.4265
  146MOL   C24049830   3.904   4.768   1.324 -0.3038 -1.1765 -0.3232
  146MOL   C24149831   3.939   4.781   1.479 -0.1357 -0.8495  0.4074
  146MOL   C24249832   3.956   4.676   1.574 -0.3365  0.5385  0.0582
  146MOL   C24349833   3.991   4.700   1.710  0.7979 -0.0205 -1.1477
  146MOL   C24449834   3.996   4.838   1.755 -0.2377  0.3384  0.0042
  146MOL   O24549835   4.020   4.871   1.886 -0.0825 -0.1766 -0.9612
  146MOL   C24649836   3.968   4.938   1.661 -0.7437  0.9539  0.1704
  146MOL   C24749837   3.935   4.908   1.525  0.2078 -0.0856 -0.7863
  146MOL   C24849838   4.025   4.799   1.233 -0.5329 -0.6514  0.0815
  146MOL   H24949839   3.826   4.838   1.293  0.4664  0.3369  1.0776
  146MOL   H25049840   3.946   4.572   1.547 -1.6593  0.4823  0.7638
  146MOL   H25149841   4.009   4.621   1.782  0.9120  2.0572  1.1615
  146MOL   H25249842   3.975   4.814   1.947 -0.0561  0.7309 -0.0671
  146MOL   H25349843   3.965   5.039   1.702 -1.8637  1.4210 -1.0194
  146MOL   H25449844   3.915   4.992   1.460 -1.7149  1.5816  1.8586
  146MOL   H25549845   4.001   4.802   1.127 -0.5844  0.6379  0.1240
  146MOL   H25649846   4.063   4.900   1.243  0.4058 -0.9873 -0.0546
  146MOL   C25749847   4.157   4.707   1.249 -0.4331 -0.1261  0.0268
  146MOL   C25849848   4.210   4.674   1.110 -1.1282  0.4328  0.3257
  146MOL   C25949849   4.279   4.757   1.016 -0.0886  0.2450  0.2507
  146MOL   C26049850   4.311   4.717   0.884  0.0765 -0.4965  0.0472
  146MOL   C26149851   4.272   4.587   0.836 -0.0799  0.3709  0.3264
  146MOL   O26249852   4.293   4.562   0.704  0.0867 -0.6140  0.2228
  146MOL   C26349853   4.212   4.499   0.928  0.4547  0.4688  0.0465
  146MOL   C26449854   4.181   4.545   1.060 -0.5255 -0.6224  0.4252
  146MOL   C26549855   4.255   4.791   1.334  0.2429 -0.3844  0.3388
  146MOL   H26649856   4.134   4.613   1.301 -3.1015 -0.1462 -1.1169
  146MOL   H26749857   4.310   4.856   1.046 -1.8183  0.8988 -0.0290
  146MOL   H26849858   4.355   4.784   0.813  0.2714  0.1823  0.8037
  146MOL   H26949859   4.318   4.473   0.683  0.5425 -0.1798 -1.0914
  146MOL   H27049860   4.190   4.397   0.900 -0.2039  1.1878 -2.1309
  146MOL   H27149861   4.132   4.472   1.123 -3.1615  1.3293  0.7125
  146MOL   H27249862   4.202   4.819   1.426 -0.6555 -1.8618  0.2949
  146MOL   H27349863   4.278   4.883   1.281  0.2781 -0.3304  0.4467
  146MOL   C27449864   4.387   4.725   1.366 -0.3611 -0.3682  0.3495
  146MOL   C27549865   4.363   4.585   1.428  0.4860 -0.6817  0.7267
  146MOL   C27649866   4.414   4.471   1.364 -0.0364  0.8364 -0.1483
  146MOL   C27749867   4.379   4.342   1.413 -0.1292  0.3332 -0.8498
  146MOL   C27849868   4.298   4.333   1.529  0.0678 -0.5237 -0.3889
  146MOL   O27949869   4.255   4.212   1.582 -0.1738  0.2278  0.5205
  146MOL   C28049870   4.243   4.445   1.593 -0.1936 -0.3285 -0.1648
  146MOL   C28149871   4.279   4.569   1.539 -0.7217  0.4063  0.3205
  146MOL   C28249872   4.475   4.803   1.464  0.2383  0.3547 -0.1859
  146MOL   H28349873   4.446   4.704   1.277 -1.3672 -2.3555  0.1003
  146MOL   H28449874   4.476   4.480   1.276 -0.7291  1.2619 -0.6017
  146MOL   H28549875   4.403   4.255   1.354 -1.3407  0.2387 -1.2010
  146MOL   H28649876   4.248   4.143   1.519 -0.5899 -0.9661  1.8622
  146MOL   H28749877   4.165   4.440   1.668 -1.0247  2.9706 -0.7298
  146MOL   H28849878   4.236   4.664   1.567  1.2651  1.2812  0.5066
  146MOL   H28949879   4.416   4.840   1.548  1.1963  1.2434  0.1104
  146MOL   H29049880   4.547   4.733   1.508  1.4729  0.9460 -1.2229
  146MOL   C29149881   4.546   4.924   1.405  0.1889  0.6688  1.0531
  146MOL   C29249882   4.682   4.883   1.368  0.0670 -0.0282  0.3491
  146MOL   C29349883   4.723   4.878   1.232 -0.2531 -0.1135 -0.1919
  146MOL   C29449884   4.856   4.840   1.193 -0.5265 -0.4009 -0.0765
  146MOL   C29549885   4.948   4.806   1.297 -0.3638  0.2818  0.1132
  146MOL   O29649886   5.079   4.786   1.264 -0.4116  0.4251 -0.0187
  146MOL   C29749887   4.907   4.809   1.432 -0.1150 -1.2391  0.8741
  146MOL   C29849888   4.775   4.840   1.470  0.0627 -0.4864 -0.2909
  146MOL   C29949889   4.544   5.044   1.501  1.0220 -0.1272  0.4265
  146MOL   H30049890   4.493   4.945   1.312 -1.8561 -0.2747  1.9575
  146MOL   H30149891   4.664   4.923   1.153  0.9559 -2.2748 -2.3664
  146MOL   H30249892   4.876   4.837   1.087 -1.6014 -0.8672 -0.2745
  146MOL   H30349893   5.083   4.694   1.241  1.1157  0.9545 -1.9732
  146MOL   H30449894   4.984   4.792   1.506 -0.2402 -0.2163  1.2477
  146MOL   H30549895   4.760   4.844   1.577  0.8757 -0.0630 -0.1939
  146MOL   H30649896   4.632   5.104   1.477 -0.3583  2.0272  0.5153
  146MOL   H30749897   4.564   5.010   1.603  2.1897  2.6607  1.2015
  146MOL   C30849898   4.411   5.130   1.492 -0.0457  0.1366  1.0532
  146MOL   C30949899   4.401   5.210   1.363 -0.2931 -0.7216  0.0842
  146MOL   C31049900   4.506   5.232   1.277  0.3327  0.4546 -0.0475
  146MOL   C31149901   4.483   5.307   1.157  0.3658  0.1733  0.3503
  146MOL   C31249902   4.362   5.381   1.142  0.3628 -0.1898 -0.4178
  146MOL   O31349903   4.355   5.472   1.041 -0.4403  0.4196  0.4780
  146MOL   C31449904   4.259   5.372   1.238 -0.4354 -0.0113 -0.8277
  146MOL   C31549905   4.273   5.271   1.339 -0.6357  0.5522 -0.0165
  146MOL   C31649906   4.390   5.206   1.626  0.9554 -0.1267 -0.8246
  146MOL   H31749907   4.329   5.059   1.482 -0.8392  0.7012  3.2438
  146MOL   H31849908   4.602   5.184   1.289  0.5433  0.6243 -0.9610
  146MOL   H31949909   4.552   5.323   1.075  0.1384  0.9953  0.3167
  146MOL   H32049910   4.338   5.554   1.085  0.4269  0.9238 -0.0813
  146MOL   H32149911   4.169   5.432   1.237 -0.3963  0.1662  1.8490
  146MOL   H32249912   4.201   5.269   1.419 -0.4095 -1.8578  0.1441
  146MOL   H32349913   4.391   5.141   1.714 -2.1177  0.9509  0.0557
  146MOL   H32449914   4.291   5.250   1.632  0.3626 -1.2182 -2.3185
  146MOL   C32549915   4.476   5.334   1.654  0.4923  0.3954 -0.3190
  146MOL   C32649916   4.477   5.369   1.805 -0.0768 -0.8482  0.9467
  146MOL   C32749917   4.357   5.367   1.881 -0.1980 -0.5620 -0.4213
  146MOL   C32849918   4.369   5.388   2.020 -0.4455  0.4338  0.0015
  146MOL   C32949919   4.491   5.418   2.083  0.6189  0.1015  1.0398
  146MOL   O33049920   4.501   5.455   2.210  0.0946 -0.4521 -0.3409
  146MOL   C33149921   4.609   5.423   2.006  0.1099  0.0872 -0.3695
  146MOL   C33249922   4.605   5.399   1.869 -0.6662  0.4017  0.0187
  146MOL   C33349923   4.434   5.460   1.580  0.9011 -0.3025 -0.5163
  146MOL   H33449924   4.581   5.310   1.635  0.4028  0.5401 -1.0028
  146MOL   H33549925   4.268   5.353   1.822  0.9808 -0.8203 -2.1757
  146MOL   H33649926   4.279   5.387   2.079  0.0208  0.0715  0.7120
  146MOL   H33749927   4.575   5.510   2.228 -1.1273  0.8799  0.6908
  146MOL   H33849928   4.703   5.459   2.045 -0.5316  4.3206 -2.4157
  146MOL   H33949929   4.699   5.410   1.818 -1.4463 -2.0441 -2.0737
  146MOL   H34049930   4.498   5.546   1.601 -1.8680  1.3394  1.5148
  146MOL   H34149931   4.332   5.489   1.603  0.7018 -0.9210 -0.6162
  146MOL   H34249932   4.453   5.452   1.473 -1.7018  0.0364 -1.0208
   8.03768   8.03768   8.03768
