Control file title. For DL_FIELD 4.10
49650
    1MOL     C1    1   6.746   3.930   4.759 -0.5619  0.7672  0.2277
    1MOL     C2    2   6.704   4.077   4.708 -0.1389 -0.1679  0.1565
    1MOL     C3    3   6.553   4.089   4.733  0.2434 -0.3449 -0.1479
    1MOL     C4    4   6.466   4.012   4.627  0.1390  0.0199 -0.0957
    1MOL     C5    5   6.314   3.999   4.666 -0.5120 -0.0996 -0.0689
    1MOL     C6    6   6.233   3.924   4.558  0.3073  0.0255  0.1937
    1MOL     C7    7   6.088   3.906   4.589  0.3502 -0.0581  0.4427
    1MOL     C8    8   6.055   3.801   4.701 -0.2255 -0.2629 -0.4522
    1MOL     C9    9   6.099   3.662   4.645  0.2990  0.0392  0.0795
    1MOL    C10   10   6.049   3.547   4.726  0.5396  0.4409 -0.2336
    1MOL    C11   11   6.117   3.413   4.688 -0.2877 -1.1606  0.2243
    1MOL    H12   12   6.752   3.927   4.868  0.4186 -0.0305  0.1663
    1MOL    H13   13   6.846   3.904   4.724 -1.1314 -0.7183 -0.3241
    1MOL    H14   14   6.727   4.087   4.602 -1.2106 -1.1696 -0.1819
    1MOL    H15   15   6.519   4.192   4.719 -0.2097 -0.1386  2.2416
    1MOL    H16   16   6.527   4.052   4.832 -1.3519 -1.5227 -0.9966
    1MOL    H17   17   6.509   3.918   4.592 -2.4444 -1.6886  1.0948
    1MOL    H18   18   6.478   4.055   4.528  0.2228 -3.6113 -1.7357
    1MOL    H19   19   6.301   3.946   4.761  0.5976 -0.8342 -0.3182
    1MOL    H20   20   6.279   4.102   4.673 -2.1236 -0.6685  0.4193
    1MOL    H21   21   6.287   3.835   4.528 -0.2619  0.2636 -1.5724
    1MOL    H22   22   6.226   3.980   4.464 -2.3846  1.2563  1.0878
    1MOL    H23   23   6.051   4.007   4.607  2.8696  1.1359 -0.7065
    1MOL    H24   24   6.038   3.884   4.494 -0.9238  1.5996  0.7097
    1MOL    H25   25   5.948   3.795   4.719 -0.0216  1.5826  1.4996
    1MOL    H26   26   6.097   3.820   4.799  0.2397 -0.0762 -0.6862
    1MOL    H27   27   6.207   3.651   4.631  0.4760  1.2699  0.4464
    1MOL    H28   28   6.047   3.658   4.549  1.4233 -0.8614 -0.5152
    1MOL    H29   29   5.941   3.538   4.721  0.4603  1.0697  0.3030
    1MOL    H30   30   6.078   3.568   4.829  0.0737  3.0140 -0.5989
    1MOL    H31   31   6.220   3.396   4.720 -0.3917 -0.4514  0.9612
    1MOL    H32   32   6.059   3.330   4.729 -1.8570  0.0298  0.4809
    1MOL    H33   33   6.110   3.410   4.580 -0.5416 -0.2348  0.2122
    1MOL    H34   34   6.676   3.859   4.715  0.7296 -1.2594  1.3343
    1MOL    C35   35   6.792   4.190   4.780  0.5030 -0.3988 -0.1897
    1MOL    C36   36   6.792   4.320   4.697 -0.1200  0.1290  0.1429
    1MOL    C37   37   6.818   4.437   4.793 -0.2791 -0.7499 -0.1190
    1MOL    C38   38   6.705   4.477   4.892  0.2062 -0.4094  0.3630
    1MOL    C39   39   6.730   4.610   4.957  0.0273  0.6545  0.4862
    1MOL    C40   40   6.631   4.647   5.070 -0.2245  0.5503 -0.0364
    1MOL    C41   41   6.656   4.783   5.132 -0.3690  0.9308 -0.2800
    1MOL    C42   42   6.548   4.818   5.235 -0.2521 -1.1120 -0.0822
    1MOL    C43   43   6.414   4.885   5.191 -0.0378  0.2917 -0.2519
    1MOL    C44   44   6.422   5.033   5.139 -0.1868 -0.2720  0.0301
    1MOL    C45   45   6.282   5.090   5.118 -0.8589  0.0669  0.2628
    1MOL    H46   46   6.893   4.152   4.793 -0.3295 -2.9581 -0.9730
    1MOL    H47   47   6.735   4.198   4.873  1.6062  1.6987  0.3356
    1MOL    H48   48   6.701   4.342   4.642 -0.8282 -2.5216  0.1780
    1MOL    H49   49   6.904   4.429   4.859 -1.6554 -0.8398  1.7078
    1MOL    H50   50   6.822   4.521   4.724 -0.0593 -0.9258 -0.3178
    1MOL    H51   51   6.693   4.394   4.962 -0.2812  0.1586  0.9589
    1MOL    H52   52   6.606   4.493   4.848  0.0169  0.5763  1.1267
    1MOL    H53   53   6.734   4.695   4.888 -0.4533  0.4080  0.1555
    1MOL    H54   54   6.830   4.603   5.001  0.6334  0.6602 -0.8634
    1MOL    H55   55   6.631   4.574   5.150  1.7302  1.8651  1.1929
    1MOL    H56   56   6.532   4.644   5.024 -0.8493  0.1257  1.3075
    1MOL    H57   57   6.751   4.794   5.184 -2.2847  1.6817  3.2312
    1MOL    H58   58   6.658   4.865   5.060 -0.2759 -0.4611 -1.8807
    1MOL    H59   59   6.591   4.873   5.319 -2.3900 -0.7566  0.8100
    1MOL    H60   60   6.520   4.729   5.291 -1.3435 -1.2388 -0.8225
    1MOL    H61   61   6.347   4.884   5.277  0.5346  2.3149  0.2475
    1MOL    H62   62   6.353   4.817   5.130  0.5464  1.7141 -2.5043
    1MOL    H63   63   6.457   5.087   5.227 -0.7820 -1.4818  1.0273
    1MOL    H64   64   6.479   5.058   5.049 -0.3946  1.7491  0.4293
    1MOL    H65   65   6.216   5.068   5.203  0.3637  1.3397  1.5694
    1MOL    H66   66   6.284   5.197   5.100  2.4790 -0.1044 -0.7442
    1MOL    H67   67   6.235   5.032   5.039 -4.7129  1.1337  1.6188
    1MOL    C68   68   6.901   4.314   4.582 -0.3925 -0.0368  0.0386
    1MOL    C69   69   6.889   4.419   4.466  0.4622 -0.7792  0.4844
    1MOL    C70   70   6.983   4.544   4.471  0.0311  0.1268  0.2153
    1MOL    C71   71   6.932   4.662   4.392  0.2964 -0.1192  0.5414
    1MOL    C72   72   6.820   4.747   4.462 -0.3632 -0.0829 -0.0062
    1MOL    C73   73   6.802   4.869   4.383 -0.4083 -0.5457  0.7465
    1MOL    C74   74   6.906   4.979   4.409  0.4100  0.2034  0.8002
    1MOL    C75   75   6.868   5.113   4.340  0.0857  0.0530  0.1459
    1MOL    C76   76   6.974   5.224   4.378 -0.0254 -0.1705  0.1451
    1MOL    C77   77   6.936   5.364   4.321 -0.2351  0.5275 -0.4528
    1MOL    C78   78   7.042   5.466   4.367  0.2494 -0.5705  0.5430
    1MOL    H79   79   6.900   4.214   4.537  0.8355 -0.2895  0.5351
    1MOL    H80   80   7.003   4.334   4.615  0.6342 -0.7391 -2.5323
    1MOL    H81   81   6.789   4.460   4.480  0.4457 -0.8949  0.7179
    1MOL    H82   82   7.084   4.519   4.439 -0.9582 -1.8134 -1.4625
    1MOL    H83   83   7.004   4.570   4.575  1.3318  2.1166 -0.5220
    1MOL    H84   84   7.022   4.722   4.381  0.1719 -0.1981 -1.0337
    1MOL    H85   85   6.915   4.647   4.286 -2.0572  0.2916  0.8323
    1MOL    H86   86   6.830   4.777   4.566 -0.1939  1.2865 -0.4066
    1MOL    H87   87   6.726   4.690   4.465  0.4724 -1.3497  3.8378
    1MOL    H88   88   6.785   4.847   4.278  0.3112  2.6640 -0.1011
    1MOL    H89   89   6.706   4.911   4.411  0.7342  2.0176  0.9562
    1MOL    H90   90   6.999   4.944   4.363  0.1870  1.0043 -0.2912
    1MOL    H91   91   6.899   4.985   4.517 -2.0229  0.3538  0.6549
    1MOL    H92   92   6.861   5.101   4.232 -1.1133  1.2974  0.0783
    1MOL    H93   93   6.774   5.152   4.377 -0.0541  2.2449 -2.3410
    1MOL    H94   94   6.993   5.218   4.485  2.3088 -1.6185 -0.3106
    1MOL    H95   95   7.071   5.203   4.333  0.4238  1.8509  0.0993
    1MOL    H96   96   6.918   5.367   4.214  0.5142 -2.0072 -0.6834
    1MOL    H97   97   6.843   5.392   4.371 -0.1611 -0.2825  0.1573
    1MOL    H98   98   7.026   5.565   4.326  0.4980 -0.1766  1.3861
    1MOL    H99   99   7.143   5.432   4.345  0.0457 -0.6600 -0.2796
    1MOL   H100  100   7.041   5.478   4.475  3.8547 -0.6737  0.6604
    1MOL   C101  101   6.898   4.338   4.335  0.3067 -0.1589 -0.6706
    1MOL   C102  102   6.767   4.287   4.273  0.1695 -0.2118  0.0538
    1MOL   C103  103   6.736   4.140   4.311  0.5253  0.0818  0.4585
    1MOL   C104  104   6.854   4.047   4.303  0.2965 -0.7105 -0.4743
    1MOL   C105  105   6.815   3.900   4.325 -1.1919  1.3274 -0.3526
    1MOL   C106  106   6.938   3.803   4.348 -0.5320  0.2229 -0.8868
    1MOL   C107  107   6.973   3.806   4.492 -0.1570  0.5460 -0.2917
    1MOL   C108  108   7.082   3.695   4.533 -0.1468  0.0398 -0.4004
    1MOL   C109  109   7.095   3.681   4.683 -0.6394 -0.1249 -0.3422
    1MOL   C110  110   7.184   3.565   4.730  0.0479 -0.2796  0.9811
    1MOL   C111  111   7.214   3.578   4.875  0.1382  0.4368  0.5805
    1MOL   H112  112   6.943   4.398   4.256  0.7656 -0.5879 -0.7396
    1MOL   H113  113   6.985   4.272   4.338 -0.4567 -1.1327  0.5319
    1MOL   H114  114   6.682   4.341   4.313 -0.0644 -1.1667  0.8586
    1MOL   H115  115   6.695   4.149   4.412  0.0330  0.4485  0.2337
    1MOL   H116  116   6.662   4.105   4.239 -1.8199  1.4623  2.1122
    1MOL   H117  117   6.904   4.051   4.207  1.2350 -0.4525  0.0204
    1MOL   H118  118   6.938   4.074   4.367 -0.2299  0.2474 -0.1882
    1MOL   H119  119   6.736   3.881   4.397  0.4236 -3.0272  0.4039
    1MOL   H120  120   6.767   3.880   4.229  0.4137 -0.1177 -0.8858
    1MOL   H121  121   6.914   3.702   4.313 -0.6972  0.3035 -1.0069
    1MOL   H122  122   7.021   3.841   4.288 -0.5972  0.6652 -0.6976
    1MOL   H123  123   6.882   3.773   4.543 -0.3841 -2.6162 -2.6001
    1MOL   H124  124   7.012   3.905   4.518  1.7274  0.1550 -1.5819
    1MOL   H125  125   7.051   3.601   4.488 -2.5390  0.7565 -0.3357
    1MOL   H126  126   7.179   3.723   4.493  0.1295  2.5916  1.9062
    1MOL   H127  127   7.124   3.775   4.729 -0.1336 -0.4572  0.0239
    1MOL   H128  128   6.998   3.647   4.721 -0.3748 -0.3379  0.1439
    1MOL   H129  129   7.267   3.557   4.659  0.2334  1.6951  0.9527
    1MOL   H130  130   7.144   3.466   4.709 -0.4010 -0.1083  1.0099
    1MOL   H131  131   7.117   3.573   4.924  1.3594 -1.5717  2.9393
    1MOL   H132  132   7.281   3.503   4.917  1.7698 -0.0330 -2.6584
    1MOL   H133  133   7.269   3.670   4.890  0.1309  0.3880  0.9017
    1MOL   C134  134   6.745   4.306   4.118  0.2407 -0.0737  0.3801
    1MOL   C135  135   6.745   4.460   4.076  0.0951 -0.1193  0.1249
    1MOL   C136  136   6.602   4.505   4.084  0.0429 -0.0893  0.0104
    1MOL   C137  137   6.581   4.661   4.068  0.0255 -0.3769  0.4077
    1MOL   C138  138   6.441   4.708   4.035 -0.5038 -0.5127 -0.3199
    1MOL   C139  139   6.322   4.667   4.124  0.5315 -0.0264 -0.9561
    1MOL   C140  140   6.328   4.724   4.270 -0.3536  0.2015 -0.1656
    1MOL   C141  141   6.194   4.729   4.342  0.3741  0.1908 -0.1283
    1MOL   C142  142   6.185   4.845   4.440  0.2770  0.9140 -0.8044
    1MOL   C143  143   6.066   4.859   4.534  0.8677  0.1503 -0.2955
    1MOL   C144  144   5.999   4.725   4.566  0.6722  0.2147 -1.0141
    1MOL   H145  145   6.831   4.260   4.068  0.4340  0.6104  0.0769
    1MOL   H146  146   6.650   4.256   4.096  0.5764 -0.9084  0.8028
    1MOL   H147  147   6.796   4.520   4.151 -1.8692 -0.3026  1.6587
    1MOL   H148  148   6.556   4.471   4.177 -2.4711  1.2136 -0.6991
    1MOL   H149  149   6.542   4.451   4.011 -0.7627 -0.0359  0.6158
    1MOL   H150  150   6.613   4.702   4.164  2.6397  1.7690 -1.3012
    1MOL   H151  151   6.646   4.704   3.993 -1.3476 -1.4968 -1.4508
    1MOL   H152  152   6.438   4.817   4.029 -2.2500 -0.5997 -1.2831
    1MOL   H153  153   6.417   4.665   3.938 -3.0274  1.6929 -0.7383
    1MOL   H154  154   6.228   4.680   4.071 -0.4088  0.9039  0.8895
    1MOL   H155  155   6.321   4.559   4.137  0.4567 -0.0186 -0.8931
    1MOL   H156  156   6.395   4.680   4.344  0.4262  1.3987 -0.1353
    1MOL   H157  157   6.367   4.826   4.263  2.5734 -0.8820 -0.6022
    1MOL   H158  158   6.113   4.752   4.272  0.6091 -2.9510 -1.4969
    1MOL   H159  159   6.176   4.630   4.384  0.6571  0.0474 -0.3512
    1MOL   H160  160   6.277   4.834   4.498 -0.4427  2.2643  0.6255
    1MOL   H161  161   6.196   4.941   4.389  2.3624  0.9048 -0.4149
    1MOL   H162  162   6.086   4.923   4.620 -0.4948  1.0054 -0.6038
    1MOL   H163  163   5.992   4.918   4.480  0.3555 -0.2569 -0.0426
    1MOL   H164  164   5.919   4.738   4.639  0.4172 -0.6668 -1.1251
    1MOL   H165  165   6.064   4.649   4.609 -0.0410  0.5093  0.6375
    1MOL   H166  166   5.957   4.688   4.473 -1.9042  2.5104 -0.8272
    1MOL   C167  167   6.817   4.476   3.942  0.2367  0.3487  0.1225
    1MOL   C168  168   6.971   4.473   3.949  0.1449 -0.0702  0.3935
    1MOL   C169  169   7.043   4.598   3.897  0.1047 -0.0505  0.3935
    1MOL   C170  170   7.039   4.721   3.987 -0.1680 -0.6719  0.6095
    1MOL   C171  171   7.102   4.850   3.921  0.1017 -0.5819  0.5628
    1MOL   C172  172   7.126   4.958   4.019  0.3237  0.5794  0.4613
    1MOL   C173  173   7.183   5.083   3.957 -0.1464 -0.7607 -0.1727
    1MOL   C174  174   7.217   5.194   4.056 -0.3822 -0.1081 -0.2526
    1MOL   C175  175   7.256   5.332   3.993 -0.3953 -0.0467 -0.0973
    1MOL   C176  176   7.336   5.422   4.079  0.0766  0.2155 -0.0834
    1MOL   C177  177   7.418   5.528   4.005 -0.6252  0.0239  0.3523
    1MOL   H178  178   6.782   4.395   3.877  0.1766  0.6811 -0.2585
    1MOL   H179  179   6.774   4.564   3.893 -1.1573 -0.4617 -0.1528
    1MOL   H180  180   6.992   4.463   4.056  1.7001  3.2021  0.4658
    1MOL   H181  181   6.994   4.628   3.804 -1.0478 -1.7189  0.4316
    1MOL   H182  182   7.149   4.584   3.875 -0.4065 -2.3667 -0.7937
    1MOL   H183  183   6.938   4.747   4.020 -0.5382 -1.7520  0.3319
    1MOL   H184  184   7.066   4.701   4.090  1.7667 -0.8374  0.0870
    1MOL   H185  185   7.036   4.882   3.840  0.4879  1.5460  1.0360
    1MOL   H186  186   7.197   4.831   3.871 -0.4010  1.5590 -1.2974
    1MOL   H187  187   7.027   4.983   4.057  0.7557  2.3242  0.5026
    1MOL   H188  188   7.198   4.918   4.090  1.5594  0.4056 -0.8565
    1MOL   H189  189   7.120   5.133   3.883  0.3333  0.9085  0.5239
    1MOL   H190  190   7.267   5.058   3.892  0.6390  1.9616 -0.2819
    1MOL   H191  191   7.132   5.210   4.122 -0.4506 -0.6559 -0.2124
    1MOL   H192  192   7.299   5.153   4.115  0.1002  1.8658  0.4836
    1MOL   H193  193   7.161   5.378   3.966 -0.2809 -0.1898 -0.7444
    1MOL   H194  194   7.306   5.315   3.898  0.9642 -0.9487  0.7634
    1MOL   H195  195   7.406   5.364   4.139 -1.0386  0.4081  1.4180
    1MOL   H196  196   7.272   5.467   4.154 -0.4492 -1.1790  0.3161
    1MOL   H197  197   7.364   5.608   3.953 -0.2337 -1.0201 -1.7205
    1MOL   H198  198   7.495   5.494   3.936 -1.5568  1.8439 -1.6597
    1MOL   H199  199   7.480   5.572   4.083  0.1339  0.7986 -0.6848
    1MOL   C200  200   7.023   4.355   3.866 -0.0066  0.2686  0.3992
    1MOL   C201  201   7.165   4.304   3.883 -0.2259  0.9024 -0.0516
    1MOL   C202  202   7.205   4.192   3.785 -0.5083  0.6892 -0.2140
    1MOL   C203  203   7.316   4.223   3.683  0.0361  0.1381  0.5366
    1MOL   C204  204   7.272   4.338   3.592  0.5568  0.1497 -0.1956
    1MOL   C205  205   7.364   4.368   3.475 -0.4530 -0.4696 -0.1447
    1MOL   C206  206   7.326   4.486   3.387  0.4602  0.1616 -0.2219
    1MOL   C207  207   7.404   4.494   3.252  1.0660  0.1999 -0.5474
    1MOL   C208  208   7.389   4.618   3.174 -0.6931 -0.2564  0.2321
    1MOL   C209  209   7.476   4.735   3.224 -0.0279  0.5503 -0.3427
    1MOL   C210  210   7.470   4.863   3.147 -0.9584  0.2073  0.9029
    1MOL   H211  211   6.959   4.268   3.880 -0.3667  0.5734  0.6353
    1MOL   H212  212   7.025   4.382   3.761  0.7773  0.1205  0.3662
    1MOL   H213  213   7.225   4.388   3.849 -0.3406  0.1347 -2.2019
    1MOL   H214  214   7.125   4.134   3.740 -0.3448 -1.4870  2.1752
    1MOL   H215  215   7.249   4.113   3.846 -0.0881  1.3708  0.3875
    1MOL   H216  216   7.337   4.137   3.619  2.9516 -0.4664  2.1669
    1MOL   H217  217   7.413   4.251   3.727 -0.6420  1.6422  1.1036
    1MOL   H218  218   7.263   4.428   3.651 -0.1700  0.2492 -0.4522
    1MOL   H219  219   7.172   4.321   3.551  0.0165 -0.3610  1.3182
    1MOL   H220  220   7.460   4.396   3.518 -0.4859  0.5869 -0.7596
    1MOL   H221  221   7.384   4.277   3.418  0.7306 -0.8743  0.8889
    1MOL   H222  222   7.335   4.575   3.450 -0.1239  1.0196 -1.3320
    1MOL   H223  223   7.218   4.485   3.369  0.5258 -3.2621 -0.6929
    1MOL   H224  224   7.403   4.403   3.192  3.5884  1.2294 -2.2598
    1MOL   H225  225   7.507   4.486   3.289  0.9039 -0.2808 -0.2034
    1MOL   H226  226   7.285   4.646   3.188 -1.2072 -2.0346  0.1215
    1MOL   H227  227   7.418   4.596   3.072  1.1811 -0.0525  0.7027
    1MOL   H228  228   7.443   4.772   3.322 -1.4690  0.0875 -0.6443
    1MOL   H229  229   7.579   4.703   3.240  0.2026  1.5083  0.1747
    1MOL   H230  230   7.376   4.912   3.172 -0.2697  0.9218  2.1563
    1MOL   H231  231   7.492   4.840   3.043 -1.8298  1.0693  0.5268
    1MOL   H232  232   7.543   4.938   3.179 -0.4948 -0.8288  2.3202
    1MOL   C233  233   7.189   4.260   4.032 -0.0902  0.0310 -0.0055
    1MOL   C234  234   7.333   4.252   4.076 -0.2238 -0.1971 -0.5102
    1MOL   C235  235   7.352   4.153   4.193 -0.1928  0.6344  0.1585
    1MOL   C236  236   7.295   4.201   4.331  0.7267 -0.4022  0.0615
    1MOL   C237  237   7.302   4.089   4.436  0.1452 -0.2987 -0.8221
    1MOL   C238  238   7.255   4.135   4.574 -0.2933  0.0135 -0.7004
    1MOL   C239  239   7.287   4.037   4.687 -0.6344  0.5650  0.2215
    1MOL   C240  240   7.222   4.056   4.824  0.3427 -0.2105 -0.2144
    1MOL   C241  241   7.305   3.994   4.938  0.3803  0.1123 -0.3431
    1MOL   C242  242   7.229   3.997   5.074 -0.6742 -0.1254  0.1245
    1MOL   C243  243   7.235   3.865   5.153 -0.1478  0.1357  0.1371
    1MOL   H244  244   7.144   4.161   4.044  0.6776 -0.4357 -0.9142
    1MOL   H245  245   7.134   4.319   4.105  0.6071  0.5859  0.0690
    1MOL   H246  246   7.391   4.200   4.001 -0.0053  1.7763 -1.7336
    1MOL   H247  247   7.303   4.059   4.167 -0.3435  1.2266 -1.7723
    1MOL   H248  248   7.461   4.140   4.191 -0.0313  1.6924  1.6787
    1MOL   H249  249   7.195   4.242   4.317  1.8410  1.9051 -1.4045
    1MOL   H250  250   7.349   4.294   4.348 -0.3782  0.1140  0.7735
    1MOL   H251  251   7.407   4.061   4.447  1.4631  4.2539 -0.6810
    1MOL   H252  252   7.246   3.999   4.411 -1.5648  0.3338  0.6473
    1MOL   H253  253   7.146   4.134   4.568 -0.2738 -2.6930 -1.3421
    1MOL   H254  254   7.292   4.235   4.598  2.1772 -1.0551  0.1134
    1MOL   H255  255   7.261   3.938   4.649  0.6665 -0.1993  1.2855
    1MOL   H256  256   7.393   4.041   4.711 -1.2035 -0.4238  3.0320
    1MOL   H257  257   7.216   4.161   4.853  1.6587  0.2047 -1.4450
    1MOL   H258  258   7.120   4.017   4.816  0.9647 -1.5162 -2.0874
    1MOL   H259  259   7.327   3.893   4.902 -1.1171 -1.5715  3.1850
    1MOL   H260  260   7.396   4.054   4.945  0.5769 -0.1651 -0.5220
    1MOL   H261  261   7.129   4.038   5.064  0.1422  1.4455 -1.9045
    1MOL   H262  262   7.271   4.083   5.125 -2.0297  0.0902  0.8988
    1MOL   H263  263   7.173   3.791   5.102 -0.9699  0.6768  0.3362
    1MOL   H264  264   7.173   3.883   5.241 -1.2554 -0.3691 -0.5289
    1MOL   H265  265   7.333   3.832   5.188 -0.3614 -1.5753 -0.8339
    1MOL   C266  266   7.395   4.390   4.085  0.2439 -0.0514 -0.2557
    1MOL   C267  267   7.545   4.401   4.116  0.1158 -0.2419 -0.1136
    1MOL   C268  268   7.588   4.553   4.128 -0.4415  0.3675  0.6200
    1MOL   C269  269   7.563   4.645   4.003 -0.6029  0.1557  1.0834
    1MOL   C270  270   7.646   4.771   4.000  0.1029 -0.1523  0.2315
    1MOL   C271  271   7.619   4.881   4.103 -0.0106  1.3943  0.2559
    1MOL   C272  272   7.702   5.008   4.080  0.0925  0.2150  0.0313
    1MOL   C273  273   7.670   5.094   3.955  0.2108  0.7624 -0.0377
    1MOL   C274  274   0.034   5.229   3.957 -0.0280  0.2132  0.3660
    1MOL   C275  275   0.049   5.297   3.822  0.3983  0.7413 -0.8711
    1MOL   C276  276   0.105   5.444   3.827 -0.7412  0.8425  0.3172
    1MOL   H277  277   7.344   4.461   4.150  0.7181  0.6602 -0.6535
    1MOL   H278  278   7.378   4.429   3.985  1.2743 -0.9740 -0.8072
    1MOL   H279  279   7.551   4.372   4.220  3.3765 -0.3732 -0.2966
    1MOL   H280  280   7.546   4.601   4.216 -0.0485  1.6231  0.1268
    1MOL   H281  281   7.688   4.550   4.171 -0.8105 -2.0710  1.3982
    1MOL   H282  282   7.458   4.668   3.986 -0.4813  0.7615  1.1452
    1MOL   H283  283   7.579   4.578   3.918 -0.4102 -1.0450  2.0561
    1MOL   H284  284   7.634   4.802   3.896 -2.3824 -0.8040  0.3097
    1MOL   H285  285   0.050   4.753   3.993 -0.2019 -1.2440 -2.1757
    1MOL   H286  286   7.641   4.850   4.205  2.7400 -0.3196 -0.7842
    1MOL   H287  287   7.512   4.904   4.101 -0.2530  0.4829  1.6655
    1MOL   H288  288   7.686   5.082   4.159  3.0926 -0.7758  1.6655
    1MOL   H289  289   0.106   4.993   4.086  0.1639  0.3552 -0.8280
    1MOL   H290  290   7.561   5.098   3.949  0.0230 -0.9095  1.7170
    1MOL   H291  291   7.695   5.048   3.859 -2.0533 -0.8399  0.0930
    1MOL   H292  292   7.682   5.291   4.027 -0.0364 -1.7318  2.1388
    1MOL   H293  293   0.135   5.219   3.995 -0.2283 -0.5425  0.7085
    1MOL   H294  294   7.650   5.310   3.786  0.3539  3.5933  0.1535
    1MOL   H295  295   0.090   5.233   3.744 -2.7363 -2.3286 -0.1211
    1MOL   H296  296   0.086   5.507   3.740 -1.1975  0.1651 -0.0830
    1MOL   H297  297   0.213   5.442   3.829 -0.7082 -0.1478 -1.5058
    1MOL   H298  298   0.069   5.502   3.912 -1.5668 -0.2849  0.7490
    1MOL   C299  299   7.638   4.332   4.020  0.0105 -0.2193  0.4958
    1MOL   C300  300   0.086   4.358   4.021  0.3125  0.1298 -0.3258
    1MOL   C301  301   0.143   4.276   3.906 -0.6301  0.0921  0.0963
    1MOL   C302  302   0.093   4.313   3.770  0.1782  1.2442  0.2405
    1MOL   C303  303   0.150   4.221   3.660 -0.1126  0.1054  0.1869
    1MOL   C304  304   0.064   4.225   3.529 -0.1961  0.3676  0.4898
    1MOL   C305  305   0.157   4.203   3.403  1.0044 -0.7551  0.0174
    1MOL   C306  306   0.075   4.167   3.276 -0.0742 -0.5045  1.0334
    1MOL   C307  307   0.166   4.146   3.151  0.2861  0.9720 -0.0669
    1MOL   C308  308   0.094   4.139   3.013  0.6198  0.5675 -0.4522
    1MOL   C309  309   0.206   4.117   2.915 -0.0693 -0.3908 -0.2847
    1MOL   H310  310   7.595   4.359   3.924  0.0414 -2.0471 -0.0564
    1MOL   H311  311   7.621   4.224   4.031  1.2644 -0.4055  0.6774
    1MOL   H312  312   0.105   4.463   4.002  1.6767 -0.2178 -0.9348
    1MOL   H313  313   0.252   4.276   3.900 -0.6241  1.5696  0.0132
    1MOL   H314  314   0.120   4.171   3.923  1.7768 -0.0992  2.6123
    1MOL   H315  315   7.688   4.307   3.760  0.1683  1.4392  0.2221
    1MOL   H316  316   0.111   4.420   3.759 -0.5668  1.2440 -1.1047
    1MOL   H317  317   0.251   4.247   3.629 -0.0426  1.0177  1.1265
    1MOL   H318  318   0.161   4.116   3.686 -2.1307 -0.3524 -0.6743
    1MOL   H319  319   0.016   4.322   3.516 -1.3867 -0.4855 -1.6765
    1MOL   H320  320   7.691   4.148   3.531  0.7415 -0.5706  0.4235
    1MOL   H321  321   0.213   4.295   3.383  2.8422 -1.7965  0.2280
    1MOL   H322  322   0.236   4.134   3.430  0.8414 -0.0960  2.2491
    1MOL   H323  323   7.691   4.231   3.267  0.5237  0.1474 -0.3375
    1MOL   H324  324   0.020   4.076   3.298  1.0881 -1.3213  0.6147
    1MOL   H325  325   0.227   4.056   3.160 -0.6713  0.1248 -1.8447
    1MOL   H326  326   0.227   4.235   3.136 -1.5228  2.3230  0.3191
    1MOL   H327  327   0.038   4.229   2.988  1.7809  1.3140 -0.4169
    1MOL   H328  328   0.029   4.052   3.010  3.8464 -2.0884  1.7668
    1MOL   H329  329   0.297   4.069   2.950  0.0643 -0.0462 -0.1632
    1MOL   H330  330   0.178   4.067   2.822 -2.0999  0.0043  0.0813
    1MOL   H331  331   0.244   4.216   2.890  0.4834 -0.6688 -0.5510
    1MOL   C332  332   0.145   4.299   4.152  0.1153 -0.5798 -0.6641
    1MOL   C333  333   0.287   4.328   4.188 -0.1868  0.8568  0.5675
    1MOL   C334  334   0.324   4.240   4.317 -0.1273 -0.1712  0.6756
    1MOL   C335  335   0.363   4.096   4.290 -0.2000  0.3730  0.2410
    1MOL   C336  336   0.408   4.031   4.420  0.3076 -0.2650 -0.6149
    1MOL   C337  337   0.443   3.881   4.412 -0.1562  0.2274  0.0203
    1MOL   C338  338   0.511   3.826   4.537  0.6529  0.2677 -0.0635
    1MOL   C339  339   0.406   3.818   4.654 -0.1859  0.3151  0.7131
    1MOL   C340  340   0.423   3.701   4.756 -0.3930 -0.0599  0.6490
    1MOL   C341  341   0.323   3.700   4.881  0.0454  0.3995 -0.2186
    1MOL   C342  342   0.274   3.561   4.915 -0.7752  0.2222  0.5542
    1MOL   H343  343   0.087   4.344   4.233  2.7746  1.9979 -0.1015
    1MOL   H344  344   0.129   4.192   4.140 -0.1233 -0.7001  0.6186
    1MOL   H345  345   0.356   4.286   4.115 -0.1099 -1.4639  1.9094
    1MOL   H346  346   0.250   4.239   4.397  1.1684  0.8034  1.9196
    1MOL   H347  347   0.416   4.275   4.365 -0.5438  0.7077  0.8425
    1MOL   H348  348   0.279   4.040   4.249 -1.9543  0.8084  3.1137
    1MOL   H349  349   0.433   4.083   4.207 -1.1499  0.6351 -0.6073
    1MOL   H350  350   0.498   4.088   4.442 -1.4579  1.9968  1.0522
    1MOL   H351  351   0.331   4.050   4.495  0.8032  0.0796 -0.1867
    1MOL   H352  352   0.511   3.875   4.327 -1.3147 -0.2277 -0.8926
    1MOL   H353  353   0.361   3.811   4.394  0.2295 -0.3763  0.5971
    1MOL   H354  354   0.592   3.896   4.563  0.0255  1.0044 -0.0789
    1MOL   H355  355   0.546   3.725   4.517 -1.6685 -0.3830 -0.9541
    1MOL   H356  356   0.412   3.914   4.705 -1.1732  0.5161  0.4698
    1MOL   H357  357   0.303   3.825   4.618  0.5239  0.4432 -1.3468
    1MOL   H358  358   0.523   3.703   4.799 -0.6692  0.8878  1.2586
    1MOL   H359  359   0.409   3.607   4.703 -0.9455 -0.5390  1.6178
    1MOL   H360  360   0.238   3.757   4.842 -0.1997 -0.5431 -1.0825
    1MOL   H361  361   0.367   3.748   4.968 -0.1833 -2.4596  1.5456
    1MOL   H362  362   0.250   3.498   4.829  2.1938 -1.6164  1.0021
    1MOL   H363  363   0.362   3.514   4.957 -1.2177 -1.8284 -0.7339
    1MOL   H364  364   0.183   3.559   4.976 -2.0763 -0.5004 -1.3308
    1MOL   C365  365   0.323   4.475   4.211  0.6270 -0.0300 -0.9044
    1MOL   C366  366   0.469   4.526   4.196 -0.2022  0.1846 -0.2422
    1MOL   C367  367   0.521   4.528   4.049  0.2263  0.1507  0.1801
    1MOL   C368  368   0.457   4.631   3.955 -0.6033 -0.8752  0.5976
    1MOL   C369  369   0.487   4.603   3.807  0.1694 -0.0605  0.1699
    1MOL   C370  370   0.638   4.619   3.763 -0.2272 -0.2817 -0.2662
    1MOL   C371  371   0.648   4.619   3.611  0.0764  0.7274 -0.2485
    1MOL   C372  372   0.793   4.655   3.556  0.3303  0.4426 -0.4110
    1MOL   C373  373   0.811   4.605   3.416  0.7270  0.8569  0.2339
    1MOL   C374  374   0.936   4.642   3.342  0.6294 -0.5541  0.0187
    1MOL   C375  375   0.944   4.611   3.200  0.1489 -0.1348  0.9861
    1MOL   H376  376   0.258   4.540   4.152  0.1147 -0.0047 -0.3126
    1MOL   H377  377   0.292   4.494   4.313 -0.6771 -0.0193 -1.2972
    1MOL   H378  378   0.518   4.441   4.244 -1.8266 -0.4668  0.2754
    1MOL   H379  379   0.510   4.428   4.006 -0.5628  0.7287 -0.9806
    1MOL   H380  380   0.629   4.542   4.048  0.2712  0.0949  2.0918
    1MOL   H381  381   0.504   4.726   3.981  0.9349 -1.7991  1.2936
    1MOL   H382  382   0.349   4.638   3.966 -0.8453 -0.5699 -1.6807
    1MOL   H383  383   0.445   4.682   3.746  2.3526  2.0259  1.2824
    1MOL   H384  384   0.443   4.506   3.782  1.1993  0.0109 -2.0103
    1MOL   H385  385   0.700   4.545   3.813  1.1575 -0.7197 -2.5360
    1MOL   H386  386   0.682   4.713   3.798  2.0533 -0.3936 -2.6700
    1MOL   H387  387   0.625   4.517   3.579 -1.2475  0.3895  1.6350
    1MOL   H388  388   0.571   4.687   3.577 -0.0427  1.4967  1.5019
    1MOL   H389  389   0.872   4.626   3.625 -0.8651  1.1171  1.2588
    1MOL   H390  390   0.819   4.761   3.561  0.0668  0.4764  0.2655
    1MOL   H391  391   0.807   4.497   3.402  0.7374  0.7684  0.9193
    1MOL   H392  392   0.725   4.644   3.361  0.4652 -0.7538 -0.5287
    1MOL   H393  393   0.925   4.750   3.334 -0.3269 -0.5176  1.6393
    1MOL   H394  394   1.023   4.614   3.400 -0.4744 -1.8709  1.0523
    1MOL   H395  395   0.952   4.503   3.189 -2.5666 -0.3576  0.9869
    1MOL   H396  396   1.031   4.659   3.155  0.1601 -0.6482  0.4582
    1MOL   H397  397   0.851   4.643   3.154  1.1248 -0.3087 -1.1984
    1MOL   C398  398   0.489   4.654   4.278 -0.4310  0.1237 -0.0176
    1MOL   C399  399   0.537   4.612   4.418  1.2138 -0.0906 -0.5400
    1MOL   C400  400   0.489   4.716   4.521  0.0445 -0.0374 -0.6683
    1MOL   C401  401   0.562   4.851   4.521 -0.1977 -0.1729  0.9516
    1MOL   C402  402   0.512   4.960   4.619  0.0280  0.1548  0.1198
    1MOL   C403  403   0.547   4.932   4.765 -0.7583 -0.0348 -0.5483
    1MOL   C404  404   0.523   5.052   4.856 -0.6207 -0.0430  0.5586
    1MOL   C405  405   0.540   5.024   5.008  0.2280  0.3775  0.7668
    1MOL   C406  406   0.513   5.151   5.092 -0.0428  0.0385  0.1268
    1MOL   C407  407   0.384   5.238   5.076 -0.1494 -0.5272 -0.0488
    1MOL   C408  408   0.261   5.144   5.090  0.2506  0.0449  0.0580
    1MOL   H409  409   0.403   4.721   4.276 -0.6903 -0.1398  1.5172
    1MOL   H410  410   0.568   4.710   4.228  0.1131 -1.2273 -0.6981
    1MOL   H411  411   0.484   4.519   4.442 -1.0738  1.5587  1.0468
    1MOL   H412  412   0.500   4.675   4.621  0.8546  0.8133 -0.4052
    1MOL   H413  413   0.385   4.745   4.509  0.4217  1.8497  0.3991
    1MOL   H414  414   0.670   4.852   4.534 -0.0668 -2.2239  0.1499
    1MOL   H415  415   0.544   4.899   4.425  0.2822  0.1907  1.0436
    1MOL   H416  416   0.543   5.059   4.588  1.4774 -0.4345 -0.3780
    1MOL   H417  417   0.404   4.956   4.607  0.2327 -2.7347 -1.1673
    1MOL   H418  418   0.652   4.912   4.788 -0.5479  2.2495  0.7065
    1MOL   H419  419   0.479   4.856   4.803 -1.0302  1.5490  2.2579
    1MOL   H420  420   0.597   5.124   4.823 -0.7685  0.2346  0.8334
    1MOL   H421  421   0.425   5.098   4.838  0.2520  2.0937  1.1353
    1MOL   H422  422   0.639   4.980   5.019  0.1538 -0.1136 -0.4885
    1MOL   H423  423   0.469   4.950   5.044 -1.2802  2.0465  1.3580
    1MOL   H424  424   0.514   5.114   5.195  0.0199 -0.7594 -0.1598
    1MOL   H425  425   0.601   5.216   5.093 -0.0131 -0.0055  0.6376
    1MOL   H426  426   0.368   5.297   4.986  1.1246 -0.5788 -0.3185
    1MOL   H427  427   0.376   5.310   5.157 -1.7726 -2.2490  1.3544
    1MOL   H428  428   0.162   5.189   5.082  0.6353  0.6962 -1.0771
    1MOL   H429  429   0.255   5.095   5.187 -1.0222 -0.5453 -0.3021
    1MOL   H430  430   0.281   5.052   5.035 -0.9283  0.2606 -0.7388
    1MOL   C431  431   0.684   4.583   4.420  0.2125  0.0986  0.2803
    1MOL   C432  432   0.739   4.525   4.550  0.8235 -0.1605 -0.0345
    1MOL   C433  433   0.892   4.542   4.552  0.1403 -0.3771  0.7031
    1MOL   C434  434   0.966   4.502   4.423 -0.1858 -0.0061 -0.3422
    1MOL   C435  435   1.121   4.501   4.438  0.0099  0.6968 -0.1524
    1MOL   C436  436   1.203   4.542   4.308 -0.8142 -0.6073 -0.0342
    1MOL   C437  437   1.355   4.511   4.302 -0.0558 -0.9239 -0.0424
    1MOL   C438  438   1.424   4.573   4.426 -0.2407 -0.1369  0.6592
    1MOL   C439  439   1.573   4.573   4.428 -0.1306 -1.1156  0.3857
    1MOL   C440  440   1.656   4.677   4.354  0.0895  0.3847 -0.1628
    1MOL   C441  441   1.801   4.633   4.345  0.0854 -0.1274 -0.1868
    1MOL   H442  442   0.737   4.674   4.395 -1.1813  0.8616  0.0809
    1MOL   H443  443   0.708   4.510   4.342  0.8482  1.7425 -1.0951
    1MOL   H444  444   0.700   4.585   4.632 -2.4086 -2.3418  0.1272
    1MOL   H445  445   0.910   4.648   4.572 -1.5690 -0.1223  0.9697
    1MOL   H446  446   0.941   4.487   4.632 -0.8156 -0.4323  1.2587
    1MOL   H447  447   0.951   4.575   4.344 -2.6205  0.3314  0.3857
    1MOL   H448  448   0.925   4.408   4.386  0.9702 -0.9684  0.7668
    1MOL   H449  449   1.147   4.401   4.472  0.8316  0.9677  0.0173
    1MOL   H450  450   1.149   4.564   4.522  0.8671 -1.2065  1.0091
    1MOL   H451  451   1.190   4.648   4.291  0.9952 -0.5616 -1.2752
    1MOL   H452  452   1.145   4.492   4.230  0.1000  0.8811 -1.6959
    1MOL   H453  453   1.392   4.549   4.206  0.3531  1.6810  1.0882
    1MOL   H454  454   1.361   4.403   4.304  1.0832 -0.8735 -0.2887
    1MOL   H455  455   1.400   4.680   4.427  1.6102  0.3054 -0.3483
    1MOL   H456  456   1.393   4.514   4.512  0.2142 -1.9535 -0.4198
    1MOL   H457  457   1.611   4.478   4.390 -0.0705 -1.1127  0.4387
    1MOL   H458  458   1.603   4.570   4.533 -0.6019  0.6576  0.5762
    1MOL   H459  459   1.650   4.769   4.412  0.1967 -0.1320  0.6890
    1MOL   H460  460   1.624   4.689   4.251  0.7379 -0.6846 -0.5074
    1MOL   H461  461   1.878   4.710   4.349  2.5067 -2.4895  0.0407
    1MOL   H462  462   1.835   4.588   4.438 -1.6933 -0.4065  0.3480
    1MOL   H463  463   1.823   4.572   4.257 -1.8194  0.4307 -1.0941
    1MOL   C464  464   0.689   4.379   4.580 -0.5134 -0.3844 -0.7280
    1MOL   C465  465   0.722   4.311   4.721  0.3007  0.0580  0.0119
    1MOL   C466  466   0.603   4.324   4.813 -0.7108 -0.2354 -0.1460
    1MOL   C467  467   0.537   4.466   4.825 -0.1203  0.0914 -0.4239
    1MOL   C468  468   0.421   4.461   4.927 -0.6136  0.2484  0.2411
    1MOL   C469  469   0.339   4.590   4.919  0.8121  0.1835 -0.3471
    1MOL   C470  470   0.217   4.567   5.009 -0.3244  0.3608 -0.1524
    1MOL   C471  471   0.151   4.706   5.048 -0.4174  0.1725  0.3163
    1MOL   C472  472   0.051   4.682   5.167  0.2711  0.1337  0.8897
    1MOL   C473  473   7.690   4.809   5.221 -0.3020 -0.5304  0.4332
    1MOL   C474  474   7.594   4.772   5.343  0.3294 -0.1257  0.5073
    1MOL   H475  475   0.724   4.321   4.495  1.0499  2.8657 -2.3944
    1MOL   H476  476   0.583   4.361   4.563 -0.9302  1.0634  0.2322
    1MOL   H477  477   0.803   4.372   4.760 -0.7597  1.1518  0.5487
    1MOL   H478  478   0.633   4.290   4.912 -2.4170  2.4789  1.3678
    1MOL   H479  479   0.527   4.251   4.783 -1.1807  0.5848 -0.9690
    1MOL   H480  480   0.610   4.540   4.855 -2.0431  2.7610 -2.1337
    1MOL   H481  481   0.495   4.497   4.730  0.1330  0.1002 -0.5316
    1MOL   H482  482   0.464   4.448   5.026 -1.0339  0.2686  0.4285
    1MOL   H483  483   0.364   4.369   4.911 -1.0132  0.8420 -1.9706
    1MOL   H484  484   0.387   4.678   4.961  0.6045  0.6503 -1.0698
    1MOL   H485  485   0.299   4.624   4.823 -1.0746 -1.1915 -0.0855
    1MOL   H486  486   0.151   4.484   4.981  0.2555 -0.2209  0.1916
    1MOL   H487  487   0.261   4.526   5.100 -0.7622 -0.0709 -0.1345
    1MOL   H488  488   0.226   4.784   5.062 -0.0183 -0.5372  2.3327
    1MOL   H489  489   0.104   4.747   4.960 -0.6129 -0.4139  0.1421
    1MOL   H490  490   7.673   4.612   5.147  0.3030  0.0489  1.0577
    1MOL   H491  491   0.110   4.644   5.251  0.1437  0.3159  1.0637
    1MOL   H492  492   0.056   4.892   5.234 -0.8904 -0.1038  0.8415
    1MOL   H493  493   7.622   4.854   5.149 -0.2846 -2.6943 -1.0033
    1MOL   H494  494   7.653   4.738   5.428  0.6785  0.3526  0.4519
    1MOL   H495  495   7.508   4.709   5.319  0.2847  0.0536  0.1912
    1MOL   H496  496   7.557   4.870   5.370  0.3614  0.6359 -2.0667
    1MOL   C497  497   0.782   4.172   4.708  0.2392 -0.3753 -0.0684
    1MOL   C498  498   0.838   4.081   4.823 -0.0196 -0.0066 -0.2269
    1MOL   C499  499   0.946   4.148   4.902 -0.1754 -0.0335 -1.0873
    1MOL   C500  500   0.979   4.079   5.030 -0.4289  0.3907  0.5468
    1MOL   C501  501   1.075   4.154   5.118 -0.8207  1.0121  0.5157
    1MOL   C502  502   1.007   4.264   5.197  0.5382 -0.0804  0.1083
    1MOL   C503  503   1.108   4.343   5.286  0.1155 -0.7351  0.4096
    1MOL   C504  504   1.037   4.445   5.377 -0.7138 -0.1528 -0.3797
    1MOL   C505  505   1.128   4.511   5.490 -0.4754  0.7101  0.2961
    1MOL   C506  506   1.054   4.587   5.604 -0.7717 -0.2016 -0.9879
    1MOL   C507  507   1.154   4.642   5.711 -0.3549  0.1462 -0.1294
    1MOL   H508  508   0.705   4.112   4.660  0.3323 -0.8221  0.3373
    1MOL   H509  509   0.858   4.174   4.631 -0.5296 -0.3582 -0.8339
    1MOL   H510  510   0.754   4.067   4.890 -1.0687  0.2455 -1.4757
    1MOL   H511  511   0.927   4.254   4.921 -2.2135 -0.2097 -1.9857
    1MOL   H512  512   1.032   4.157   4.836  0.5261 -0.3216 -0.2110
    1MOL   H513  513   1.018   3.979   5.016  6.2156  2.6004  1.6544
    1MOL   H514  514   0.891   4.048   5.087  0.4066 -3.8082 -0.3234
    1MOL   H515  515   1.119   4.087   5.192 -0.1772  0.9509  0.0819
    1MOL   H516  516   1.155   4.206   5.065 -0.8256 -1.7788 -2.3650
    1MOL   H517  517   0.944   4.330   5.138  1.3305  2.0778  1.5714
    1MOL   H518  518   0.942   4.204   5.261 -0.1093  0.8001  0.2913
    1MOL   H519  519   1.168   4.275   5.346 -1.2418  0.8266  3.6350
    1MOL   H520  520   1.177   4.401   5.224  0.5586  1.2257  2.6555
    1MOL   H521  521   0.955   4.391   5.425 -0.5175 -0.2774 -0.1806
    1MOL   H522  522   0.988   4.526   5.324 -0.5472  1.0975  1.3499
    1MOL   H523  523   1.215   4.565   5.451  0.0048  0.2101  0.6773
    1MOL   H524  524   1.172   4.430   5.548 -2.2382  0.8067  1.7883
    1MOL   H525  525   0.993   4.522   5.667  0.8154 -0.6044  0.1706
    1MOL   H526  526   0.989   4.667   5.570  0.6487  0.6481 -1.7640
    1MOL   H527  527   1.107   4.703   5.788 -0.4569  1.6851 -1.3965
    1MOL   H528  528   1.229   4.709   5.670  0.3886  0.1884  1.2583
    1MOL   H529  529   1.213   4.568   5.766  0.0641 -1.0498 -2.1509
    1MOL   C530  530   0.864   3.934   4.784  0.3772  0.1468 -0.0674
    1MOL   C531  531   0.971   3.902   4.680  0.1812  0.1131  0.1172
    1MOL   C532  532   0.910   3.901   4.537  0.5723  0.5308  1.2311
    1MOL   C533  533   1.003   3.931   4.414 -0.1503 -0.1490  0.1491
    1MOL   C534  534   1.041   4.072   4.400 -0.1563 -0.0788 -0.8314
    1MOL   C535  535   1.163   4.116   4.318 -0.2371  0.0009 -0.3034
    1MOL   C536  536   1.298   4.076   4.373 -0.0811  0.1280 -0.2831
    1MOL   C537  537   1.410   4.079   4.266  0.2463  0.1769  0.2784
    1MOL   C538  538   1.550   4.050   4.327  0.2279  0.2388 -0.2428
    1MOL   C539  539   1.660   4.055   4.219 -0.2592  0.4804  0.4920
    1MOL   C540  540   1.798   3.994   4.247  0.1264 -0.9927 -0.1846
    1MOL   H541  541   0.876   3.875   4.875 -0.3402  1.5454  0.9365
    1MOL   H542  542   0.770   3.891   4.749  1.0511 -2.8466  1.5963
    1MOL   H543  543   1.047   3.980   4.689  1.9889 -1.3753 -1.7849
    1MOL   H544  544   0.831   3.976   4.529  1.0437  0.9298  0.1360
    1MOL   H545  545   0.868   3.801   4.524 -2.0996  1.6835  0.6307
    1MOL   H546  546   0.947   3.900   4.326  0.0648 -0.7200  0.2108
    1MOL   H547  547   1.095   3.874   4.426  1.8259  2.7133 -0.8269
    1MOL   H548  548   1.067   4.113   4.497  1.7662 -2.2595 -0.3779
    1MOL   H549  549   0.953   4.127   4.365 -0.3580  0.0222 -0.1672
    1MOL   H550  550   1.164   4.225   4.314 -0.3087 -0.0162 -0.7608
    1MOL   H551  551   1.147   4.071   4.220 -0.0540  0.4408 -0.5408
    1MOL   H552  552   1.296   3.977   4.420 -2.6044 -0.9313 -2.5087
    1MOL   H553  553   1.326   4.141   4.456 -2.2433  1.9020 -0.9064
    1MOL   H554  554   1.407   4.175   4.214 -1.8169  0.4388  0.8392
    1MOL   H555  555   1.380   4.005   4.192 -0.1554 -1.1865  1.7676
    1MOL   H556  556   1.540   3.948   4.364  2.6707  0.7650  1.9859
    1MOL   H557  557   1.572   4.100   4.421  0.1307 -2.5302  1.3381
    1MOL   H558  558   1.667   4.160   4.194 -0.6718  0.4504  0.2404
    1MOL   H559  559   1.619   4.012   4.127  1.4805  1.3002 -0.6763
    1MOL   H560  560   1.853   3.983   4.153  0.2782 -0.1794 -0.1950
    1MOL   H561  561   1.854   4.064   4.309  0.3344  1.1123 -2.6846
    1MOL   H562  562   1.782   3.895   4.290 -0.8455 -0.6687  0.1873
    1MOL   C563  563   1.052   3.765   4.709 -0.2330 -0.2674  0.5461
    1MOL   C564  564   1.206   3.783   4.685 -0.5660  0.0360  0.0899
    1MOL   C565  565   1.280   3.654   4.631  0.2705 -0.5559 -0.1150
    1MOL   C566  566   1.256   3.520   4.709  0.1666 -1.1955  0.5034
    1MOL   C567  567   1.335   3.407   4.651 -0.6791 -0.3455  0.1824
    1MOL   C568  568   1.276   3.355   4.515 -0.4115 -0.4561  0.0167
    1MOL   C569  569   1.351   3.226   4.474  0.1724  0.6526  0.2109
    1MOL   C570  570   1.304   3.177   4.332  1.3886  1.3063 -0.3574
    1MOL   C571  571   1.382   3.054   4.287 -0.3684  0.4014  0.5574
    1MOL   C572  572   1.341   3.020   4.149  0.4976 -0.2247  0.0964
    1MOL   C573  573   1.394   2.884   4.109 -0.0959 -0.3702  0.3667
    1MOL   H574  574   1.019   3.686   4.641  0.6774 -1.0434  0.9978
    1MOL   H575  575   1.032   3.722   4.807 -1.2502  2.2821  1.5132
    1MOL   H576  576   1.207   3.853   4.602  1.1053  0.6413  0.6035
    1MOL   H577  577   1.387   3.667   4.618  0.9341 -1.5837  3.4969
    1MOL   H578  578   1.238   3.646   4.531 -0.9322 -1.8889  0.4785
    1MOL   H579  579   1.152   3.493   4.724  0.0333 -0.3278  1.1768
    1MOL   H580  580   1.291   3.539   4.810 -0.8451 -0.0940  0.6532
    1MOL   H581  581   1.333   3.329   4.728 -0.2341 -0.6066 -0.0656
    1MOL   H582  582   1.440   3.429   4.634 -0.2677 -2.8065 -0.7626
    1MOL   H583  583   1.168   3.339   4.522 -0.2937 -0.8638  1.0266
    1MOL   H584  584   1.293   3.423   4.432 -2.7429 -1.1221 -1.0615
    1MOL   H585  585   1.455   3.258   4.474  0.8621 -1.4668  2.0349
    1MOL   H586  586   1.329   3.142   4.540 -0.5894 -0.3858 -1.3573
    1MOL   H587  587   1.310   3.262   4.264 -0.0833  2.5964  1.0909
    1MOL   H588  588   1.201   3.142   4.335  2.0374 -0.7753 -1.2947
    1MOL   H589  589   1.354   2.977   4.359  1.4025 -0.4875  0.3248
    1MOL   H590  590   1.491   3.060   4.291 -0.3175 -0.9812  1.4719
    1MOL   H591  591   1.377   3.098   4.082 -1.3344 -0.2375 -0.9168
    1MOL   H592  592   1.234   3.038   4.140  0.3683 -1.6499 -1.2904
    1MOL   H593  593   1.503   2.879   4.112  0.0889  2.1189 -0.7354
    1MOL   H594  594   1.357   2.806   4.175 -0.6806  1.3030  2.0642
    1MOL   H595  595   1.371   2.867   4.003 -0.5923 -1.8658  0.6945
    1MOL   C596  596   1.285   3.846   4.807 -0.1709 -0.0387 -0.3486
    1MOL   C597  597   1.420   3.905   4.777  0.3459 -0.4818 -0.6780
    1MOL   C598  598   1.515   3.878   4.898  0.7012  0.0775 -0.4908
    1MOL   C599  599   1.664   3.882   4.862 -0.1479 -0.0838 -0.2652
    1MOL   C600  600   1.752   3.908   4.982  0.1861  0.1427  0.3016
    1MOL   C601  601   1.902   3.881   4.953 -0.3126  0.6573 -0.0333
    1MOL   C602  602   1.938   3.736   4.995 -0.1549 -1.2144 -0.3892
    1MOL   C603  603   2.094   3.728   5.009 -0.7914 -0.1143 -0.4982
    1MOL   C604  604   2.151   3.587   5.002 -0.2266 -0.0067  0.2062
    1MOL   C605  605   2.301   3.597   4.994 -0.0254 -0.9814 -0.6705
    1MOL   C606  606   2.368   3.462   4.955 -0.8095  1.0593  0.8032
    1MOL   H607  607   1.225   3.935   4.826  1.4595  1.1671 -0.7485
    1MOL   H608  608   1.281   3.787   4.898  1.0040  0.4179  0.0100
    1MOL   H609  609   1.469   3.854   4.693 -0.9111 -0.0911 -1.6521
    1MOL   H610  610   1.492   3.777   4.930  0.6865  0.5754  1.1515
    1MOL   H611  611   1.485   3.948   4.977  0.8010 -0.4991  0.0598
    1MOL   H612  612   1.677   3.957   4.783  0.6065  1.3759  1.2027
    1MOL   H613  613   1.683   3.783   4.820  1.9428  0.3414 -0.3818
    1MOL   H614  614   1.732   3.854   5.074 -0.3164  2.9833  1.9323
    1MOL   H615  615   1.742   4.016   4.999 -1.3433  0.2813 -1.3609
    1MOL   H616  616   1.920   3.896   4.847 -0.8352 -0.2333 -0.2548
    1MOL   H617  617   1.973   3.947   5.003 -2.5497  4.1609 -1.2759
    1MOL   H618  618   1.914   3.674   4.909  0.2545  0.3810 -1.6691
    1MOL   H619  619   1.897   3.710   5.093 -0.3758 -0.3877 -0.2585
    1MOL   H620  620   2.127   3.773   5.102  2.1632  1.7882 -2.4088
    1MOL   H621  621   2.138   3.783   4.926 -0.5756  0.0978 -0.2396
    1MOL   H622  622   2.112   3.529   5.086  0.7974  0.0277  0.7106
    1MOL   H623  623   2.114   3.553   4.905  0.8473  0.4585 -0.3685
    1MOL   H624  624   2.346   3.639   5.084 -0.2908  1.8990 -1.8611
    1MOL   H625  625   2.322   3.672   4.918  0.7880 -0.4245  0.0959
    1MOL   H626  626   2.476   3.478   4.965 -0.0704 -2.0138 -1.3654
    1MOL   H627  627   2.325   3.380   5.011  1.8711 -0.7195  0.3804
    1MOL   H628  628   2.358   3.427   4.852 -0.0928 -0.1493  1.1369
    1MOL   C629  629   1.411   4.049   4.731  0.5122 -0.0148 -0.0904
    1MOL   C630  630   1.371   4.175   4.813  0.3659  0.3271  0.4024
    1MOL   C631  631   1.326   4.294   4.723  0.3827 -0.0466 -0.6522
    1MOL   C632  632   1.262   4.415   4.799 -0.5557 -0.3123  0.1484
    1MOL   C633  633   1.329   4.460   4.925  0.2397  0.1011  0.0180
    1MOL   C634  634   1.265   4.591   4.974  0.6425 -0.1977  0.5420
    1MOL   C635  635   1.323   4.656   5.105 -0.0394 -0.1196 -0.4447
    1MOL   C636  636   1.261   4.791   5.145  0.3082 -0.5842  0.6675
    1MOL   C637  637   1.323   4.837   5.280  0.0688 -0.1065 -0.0687
    1MOL   C638  638   1.460   4.902   5.266 -0.1123  0.3551 -0.3184
    1MOL   C639  639   1.523   4.941   5.400 -0.3812  0.1226  0.4506
    1MOL   H640  640   1.495   4.083   4.670  0.6328  0.3393  0.2676
    1MOL   H641  641   1.337   4.041   4.651  1.7853 -3.4581 -1.0323
    1MOL   H642  642   1.294   4.146   4.884  1.3356 -0.9816  0.9459
    1MOL   H643  643   1.416   4.326   4.670  1.1967 -0.8986  0.1814
    1MOL   H644  644   1.265   4.262   4.639  0.8253 -1.6377 -0.3893
    1MOL   H645  645   1.161   4.389   4.833 -0.8254  0.8183  0.2255
    1MOL   H646  646   1.232   4.496   4.732  1.6779 -1.0128 -1.7467
    1MOL   H647  647   1.437   4.466   4.911  0.2620 -0.9931 -0.2647
    1MOL   H648  648   1.312   4.386   5.003 -0.3456 -0.1653 -0.3624
    1MOL   H649  649   1.160   4.574   4.994  0.3209  1.0167 -0.0485
    1MOL   H650  650   1.289   4.657   4.890  1.6357 -1.0214  0.1747
    1MOL   H651  651   1.432   4.659   5.096  0.3033  0.0611  3.0821
    1MOL   H652  652   1.290   4.583   5.179  0.1295 -0.5179 -0.7613
    1MOL   H653  653   1.152   4.781   5.153  0.0139  0.4613 -1.6258
    1MOL   H654  654   1.277   4.869   5.070 -1.5050 -0.4300  0.4129
    1MOL   H655  655   1.334   4.754   5.351  0.6017  0.3600  0.4014
    1MOL   H656  656   1.244   4.903   5.317 -0.4897  0.2917 -1.9641
    1MOL   H657  657   1.448   4.990   5.203 -4.1782  0.2084  0.1135
    1MOL   H658  658   1.520   4.825   5.217 -1.1814  0.4869 -1.8854
    1MOL   H659  659   1.614   5.001   5.397  0.7216 -1.5073  0.6903
    1MOL   H660  660   1.538   4.851   5.460  2.2122  0.4613  0.3764
    1MOL   H661  661   1.452   5.004   5.455 -0.3349 -0.2038  0.8898
    1MOL   H662  662   1.455   4.208   4.875  0.8076 -0.4142  0.2092
    2MOL     C1  663   2.871   1.282   6.665 -0.5469  0.1836 -0.0489
    2MOL     C2  664   2.785   1.398   6.609 -0.0177  0.7159  0.1143
    2MOL     C3  665   2.666   1.426   6.702  0.5326  1.1194 -0.4568
    2MOL     C4  666   2.704   1.481   6.843  0.0049  0.3177  0.1214
    2MOL     C5  667   2.590   1.563   6.902  0.4786 -0.1900  0.6663
    2MOL     C6  668   2.592   1.590   7.051 -0.3467  0.4785  0.7509
    2MOL     C7  669   2.719   1.650   7.107 -0.0529 -0.3854 -0.1333
    2MOL     C8  670   2.735   1.798   7.058  1.2456  0.2263  0.0635
    2MOL     C9  671   2.846   1.864   7.135 -0.4742  0.5372 -0.1276
    2MOL    C10  672   2.852   2.013   7.123 -0.0643  0.0596 -0.3234
    2MOL    C11  673   2.974   2.082   7.179 -1.1156  0.4184 -0.6032
    2MOL    H12  674   2.809   1.193   6.669 -0.9789  0.2361 -3.5429
    2MOL    H13  675   2.916   1.309   6.761 -0.6279 -1.4134  0.4527
    2MOL    H14  676   2.744   1.370   6.512  0.0919 -0.6253  0.4355
    2MOL    H15  677   2.598   1.340   6.707  1.7227  0.1071 -1.3155
    2MOL    H16  678   2.604   1.506   6.660 -0.2300  1.4471  1.2593
    2MOL    H17  679   2.784   1.554   6.833  0.4871 -0.1830  0.2675
    2MOL    H18  680   2.753   1.414   6.915  0.4909  1.0427  0.4682
    2MOL    H19  681   2.575   1.654   6.844 -3.8256 -1.3311 -0.2463
    2MOL    H20  682   2.507   1.495   6.884  0.5380 -0.1837  0.3702
    2MOL    H21  683   2.570   1.498   7.105 -0.0558  0.6045  1.0873
    2MOL    H22  684   2.508   1.650   7.087 -0.5279 -0.2547  1.5593
    2MOL    H23  685   2.722   1.642   7.215  0.8982  0.7455 -0.0618
    2MOL    H24  686   2.805   1.595   7.070  0.0499  0.6946 -1.5629
    2MOL    H25  687   2.646   1.855   7.084  0.6537 -0.6208 -0.1071
    2MOL    H26  688   2.747   1.800   6.950  0.3374 -0.4180 -0.0561
    2MOL    H27  689   2.944   1.826   7.105  0.6190  2.6647  0.5955
    2MOL    H28  690   2.843   1.829   7.238  2.9295 -0.4335 -0.3005
    2MOL    H29  691   2.770   2.062   7.175 -0.1133  0.4118 -0.7330
    2MOL    H30  692   2.852   2.044   7.019  1.1312  3.8591  0.7333
    2MOL    H31  693   3.058   2.056   7.114  0.1761 -1.0362  1.5686
    2MOL    H32  694   2.956   2.189   7.180 -0.8597  0.4619  0.8345
    2MOL    H33  695   3.001   2.038   7.276 -1.3397  0.3073 -0.5904
    2MOL    H34  696   2.959   1.259   6.605 -0.4833  1.5402 -0.4975
    2MOL    C35  697   2.873   1.517   6.572 -0.3801  0.1921 -0.4059
    2MOL    C36  698   2.814   1.656   6.561  0.4606  0.0661 -0.2471
    2MOL    C37  699   2.922   1.765   6.557  0.4640 -0.1826 -0.2604
    2MOL    C38  700   2.988   1.791   6.699  0.0407 -0.0142  0.9948
    2MOL    C39  701   3.108   1.885   6.697  0.0100 -0.1873 -0.6719
    2MOL    C40  702   3.164   1.913   6.837  0.1620  0.1886 -0.1805
    2MOL    C41  703   3.297   1.984   6.825  0.1798  0.6673  0.2593
    2MOL    C42  704   3.342   2.046   6.959 -0.8703  0.0124  0.0473
    2MOL    C43  705   3.493   2.083   6.957  0.0333 -0.2779 -0.1942
    2MOL    C44  706   3.537   2.186   7.062  0.5760  0.5913 -0.2884
    2MOL    C45  707   3.531   2.128   7.202 -0.6276  0.0948 -0.4088
    2MOL    H46  708   2.925   1.496   6.479  2.4299  1.0773  0.9011
    2MOL    H47  709   2.958   1.514   6.639 -0.3708 -2.7293 -0.5077
    2MOL    H48  710   2.751   1.671   6.648  0.0751  1.2011 -0.7067
    2MOL    H49  711   2.999   1.742   6.484  0.7684  0.6528 -0.2036
    2MOL    H50  712   2.875   1.857   6.523 -0.7342 -0.9910 -0.8403
    2MOL    H51  713   3.022   1.697   6.741  0.8274 -0.9647 -1.6666
    2MOL    H52  714   2.909   1.823   6.766 -0.5247  1.7868 -0.4838
    2MOL    H53  715   3.086   1.981   6.650  3.3513  1.3843  0.7700
    2MOL    H54  716   3.181   1.839   6.629  0.7520  2.1365 -1.5192
    2MOL    H55  717   3.191   1.818   6.882 -0.6494  0.4710  0.9140
    2MOL    H56  718   3.091   1.960   6.903 -0.8731 -0.8174 -0.5739
    2MOL    H57  719   3.379   1.923   6.788 -0.3716  0.2707 -0.3126
    2MOL    H58  720   3.291   2.073   6.764  2.4080  0.8388  0.2799
    2MOL    H59  721   3.332   1.969   7.035  1.0882 -1.0283 -0.7032
    2MOL    H60  722   3.285   2.132   6.997  0.1524 -0.1878  2.0783
    2MOL    H61  723   3.525   2.110   6.856 -0.7178  2.0151  0.1343
    2MOL    H62  724   3.536   1.986   6.979 -0.5806 -0.3047  0.9226
    2MOL    H63  725   3.640   2.200   7.030  1.4406 -0.3996  1.9155
    2MOL    H64  726   3.481   2.279   7.065  0.3062  0.4762 -1.5002
    2MOL    H65  727   3.431   2.109   7.242  0.5532  0.9045  3.1207
    2MOL    H66  728   3.596   2.041   7.214  2.0583  2.4313  2.7207
    2MOL    H67  729   3.573   2.191   7.280  2.5177  0.6073 -2.4028
    2MOL    C68  730   2.714   1.664   6.436  0.0442  0.2277  0.0934
    2MOL    C69  731   2.631   1.795   6.423  0.4025  0.5316  0.1481
    2MOL    C70  732   2.565   1.802   6.283 -0.2995  0.1648  0.2591
    2MOL    C71  733   2.661   1.802   6.163  0.0765 -0.7112 -0.4417
    2MOL    C72  734   2.590   1.841   6.031  0.1904 -0.3149 -0.2562
    2MOL    C73  735   2.679   1.857   5.902 -0.0229 -0.0247  0.4645
    2MOL    C74  736   2.592   1.876   5.775  1.0894 -0.7846  0.3482
    2MOL    C75  737   2.654   1.920   5.651  0.3570  0.4114  0.5287
    2MOL    C76  738   2.692   2.063   5.638 -0.0650 -0.1648  0.2222
    2MOL    C77  739   2.740   2.106   5.497 -0.6661  0.2869 -0.6765
    2MOL    C78  740   2.883   2.057   5.475 -0.0738  0.0899  0.4442
    2MOL    H79  741   2.650   1.576   6.433  0.8844 -0.3502 -2.6854
    2MOL    H80  742   2.770   1.642   6.345  0.4333 -1.0756  0.6333
    2MOL    H81  743   2.689   1.887   6.428  1.1895 -0.0735  3.9533
    2MOL    H82  744   2.504   1.892   6.278 -1.5736 -0.6264  1.3291
    2MOL    H83  745   2.484   1.732   6.262  0.2849 -0.5715  0.4088
    2MOL    H84  746   2.740   1.875   6.183 -1.8768  1.5636 -0.8708
    2MOL    H85  747   2.708   1.703   6.160 -0.6493 -1.1528  1.9212
    2MOL    H86  748   2.546   1.941   6.037 -0.4551 -0.6149  0.0455
    2MOL    H87  749   2.513   1.769   6.002  1.1888 -1.9725  1.1451
    2MOL    H88  750   2.750   1.938   5.916 -0.0358  0.0207  0.2741
    2MOL    H89  751   2.726   1.760   5.883 -0.1363  0.2099 -1.1189
    2MOL    H90  752   2.512   1.948   5.791  1.3319 -0.1680 -1.1319
    2MOL    H91  753   2.542   1.779   5.775  0.8394 -0.6542  1.1625
    2MOL    H92  754   2.743   1.858   5.648 -1.1418 -1.7471 -0.3869
    2MOL    H93  755   2.594   1.879   5.570  2.8329  1.3359 -1.8548
    2MOL    H94  756   2.609   2.133   5.648  1.0399  0.8255  3.1960
    2MOL    H95  757   2.769   2.088   5.711 -0.0142 -0.1777  0.1717
    2MOL    H96  758   2.671   2.053   5.432 -0.3696  2.0594 -2.4790
    2MOL    H97  759   2.739   2.215   5.489 -0.5971  0.5022  1.9013
    2MOL    H98  760   2.911   1.951   5.471  1.1790  0.4783 -2.0583
    2MOL    H99  761   2.951   2.114   5.537  0.0832  0.3222  0.0596
    2MOL   H100  762   2.908   2.085   5.373 -1.6791 -0.6054 -0.1714
    2MOL   C101  763   2.526   1.797   6.542  0.3834 -0.5869 -0.0808
    2MOL   C102  764   2.443   1.930   6.564  0.2162  0.1781  0.9488
    2MOL   C103  765   2.527   2.057   6.583 -0.4831 -0.2526 -0.1196
    2MOL   C104  766   2.661   2.050   6.669  0.2201 -0.0468 -0.4204
    2MOL   C105  767   2.708   2.195   6.684  0.5355  0.1094 -0.1988
    2MOL   C106  768   2.846   2.206   6.750 -0.0156  0.1204  0.1153
    2MOL   C107  769   2.929   2.328   6.733 -0.0880 -1.2446  0.3898
    2MOL   C108  770   3.042   2.331   6.840 -0.3536  0.0700 -0.1231
    2MOL   C109  771   3.154   2.426   6.794  0.6446 -0.3214 -0.0868
    2MOL   C110  772   3.283   2.427   6.875 -0.1746 -1.0516  0.5608
    2MOL   C111  773   3.394   2.528   6.838 -0.2454  0.2058  0.6824
    2MOL   H112  774   2.469   1.708   6.515 -0.0546 -0.4758  0.4708
    2MOL   H113  775   2.570   1.782   6.641  1.0654 -3.1720 -0.7593
    2MOL   H114  776   2.387   1.937   6.471 -0.5146  2.4290  1.5312
    2MOL   H115  777   2.538   2.095   6.482 -0.5932 -2.5519 -1.0187
    2MOL   H116  778   2.472   2.137   6.632 -2.2875 -0.1223 -2.2685
    2MOL   H117  779   2.624   2.010   6.764 -1.3155 -0.8732 -1.3547
    2MOL   H118  780   2.738   1.989   6.622  2.0192  3.0121 -1.5714
    2MOL   H119  781   2.713   2.235   6.583 -0.6237 -1.4824 -0.8934
    2MOL   H120  782   2.643   2.257   6.746  1.9193  1.6240 -0.1974
    2MOL   H121  783   2.833   2.205   6.858  3.6532  0.5180  0.6205
    2MOL   H122  784   2.905   2.117   6.727 -1.8852 -0.4276 -2.9179
    2MOL   H123  785   2.867   2.416   6.751  0.3399 -0.3750 -2.1393
    2MOL   H124  786   2.965   2.330   6.630  0.5303  1.0666  0.6241
    2MOL   H125  787   2.999   2.368   6.933  1.1476 -0.5368  0.8299
    2MOL   H126  788   3.077   2.231   6.865  1.0736  0.9334  1.4266
    2MOL   H127  789   3.173   2.421   6.687  3.2348 -1.0109  0.3555
    2MOL   H128  790   3.115   2.527   6.805 -2.6290 -1.2607 -2.5265
    2MOL   H129  791   3.320   2.324   6.869  0.5885 -0.8560  1.7063
    2MOL   H130  792   3.243   2.433   6.976 -0.1574 -2.1219  0.6411
    2MOL   H131  793   3.495   2.488   6.845 -0.5092 -0.5472  0.2188
    2MOL   H132  794   3.385   2.561   6.735  0.0817 -0.1633  0.5330
    2MOL   H133  795   3.381   2.619   6.896 -2.1082 -0.1745  0.9087
    2MOL   C134  796   2.348   1.907   6.693 -0.8041 -0.4083 -0.0709
    2MOL   C135  797   2.236   1.797   6.698  0.8176 -0.2132 -0.4764
    2MOL   C136  798   2.092   1.837   6.669  0.2032 -0.2986  0.1412
    2MOL   C137  799   2.049   1.858   6.515 -0.0723  0.6509  0.6339
    2MOL   C138  800   1.920   1.929   6.499  0.3576  0.1381  0.0629
    2MOL   C139  801   1.887   1.973   6.355 -0.4881 -0.2783  0.2191
    2MOL   C140  802   1.733   1.998   6.323  0.2669  0.0621  0.1059
    2MOL   C141  803   1.705   2.030   6.176  0.5791  0.3629 -0.3602
    2MOL   C142  804   1.553   2.034   6.153 -0.8020  0.1165 -0.3529
    2MOL   C143  805   1.509   2.118   6.027  0.1516 -0.0217  0.0848
    2MOL   C144  806   1.349   2.116   6.014  1.3798 -0.5120 -0.9161
    2MOL   H145  807   2.411   1.891   6.780  1.2610  1.5054 -1.1555
    2MOL   H146  808   2.302   2.005   6.708 -2.1678 -0.9328 -0.7693
    2MOL   H147  809   2.252   1.725   6.618 -0.1601 -2.0643  0.9381
    2MOL   H148  810   2.074   1.931   6.722  0.5557  0.5140 -1.1427
    2MOL   H149  811   2.018   1.773   6.717  0.2338 -0.9110 -0.6097
    2MOL   H150  812   2.130   1.919   6.475  1.6636 -1.0583  1.4032
    2MOL   H151  813   2.051   1.759   6.470  1.9653  0.0113  2.0227
    2MOL   H152  814   1.843   1.860   6.532 -1.4222  0.9962 -2.1671
    2MOL   H153  815   1.915   2.011   6.572 -1.7543 -0.0233  0.1243
    2MOL   H154  816   1.939   2.067   6.334 -2.2191 -0.0338 -3.3455
    2MOL   H155  817   1.931   1.898   6.290  2.0752  0.0432  1.5378
    2MOL   H156  818   1.675   1.911   6.352  1.0881 -0.5508 -0.0524
    2MOL   H157  819   1.703   2.080   6.388  0.3167 -0.4833  0.8108
    2MOL   H158  820   1.744   2.127   6.147 -2.6478  2.1276  0.9031
    2MOL   H159  821   1.749   1.949   6.117 -2.6369 -2.5597  1.0450
    2MOL   H160  822   1.525   1.931   6.129 -0.7086  0.3988 -1.7155
    2MOL   H161  823   1.498   2.060   6.243  2.5647  3.2267  0.9093
    2MOL   H162  824   1.547   2.220   6.038 -1.7725  0.8410 -0.9156
    2MOL   H163  825   1.537   2.074   5.931  0.3469 -0.9430  0.5618
    2MOL   H164  826   1.319   2.182   5.932 -0.0336 -1.4495 -1.1694
    2MOL   H165  827   1.299   2.148   6.106  1.2836 -1.0823 -0.7681
    2MOL   H166  828   1.308   2.017   5.995  0.9798 -0.7271  0.9072
    2MOL   C167  829   2.254   1.709   6.826  0.1805 -0.2144  0.6865
    2MOL   C168  830   2.179   1.570   6.836  0.9195  0.2545 -0.6204
    2MOL   C169  831   2.208   1.495   6.963  0.1066  0.6560 -0.4748
    2MOL   C170  832   2.187   1.578   7.088  0.1890 -0.0924  0.0599
    2MOL   C171  833   2.200   1.493   7.221 -0.1643  0.3442 -0.4880
    2MOL   C172  834   2.181   1.568   7.345 -0.1884  0.2140 -0.0387
    2MOL   C173  835   2.230   1.486   7.472  0.3081  0.3606 -0.2756
    2MOL   C174  836   2.209   1.571   7.606  0.2100 -0.7591  0.7585
    2MOL   C175  837   2.245   1.490   0.035 -0.7276  0.1793  0.1663
    2MOL   C176  838   2.220   1.567   0.166 -0.2754 -0.3926 -0.0157
    2MOL   C177  839   2.187   1.473   0.279 -0.3527 -0.0025  0.0815
    2MOL   H178  840   2.358   1.680   6.810 -0.3054 -1.0896 -0.9805
    2MOL   H179  841   2.248   1.772   6.915  3.9040 -1.5785  2.0095
    2MOL   H180  842   2.075   1.604   6.843  1.4664  1.7501  0.4043
    2MOL   H181  843   2.308   1.452   6.960 -0.7226 -1.6188  2.2863
    2MOL   H182  844   2.134   1.416   6.970 -0.4823  1.2279 -0.1874
    2MOL   H183  845   2.260   1.658   7.099 -0.1747  0.6332 -2.4446
    2MOL   H184  846   2.089   1.625   7.091  1.1344  1.9846 -0.9044
    2MOL   H185  847   2.296   1.442   7.223 -0.1320  0.4354  0.6827
    2MOL   H186  848   2.127   1.414   7.206  0.5803 -0.2157 -1.1593
    2MOL   H187  849   2.250   1.652   7.338 -1.2402  1.1766  1.0354
    2MOL   H188  850   2.081   1.602   7.374  0.0314 -1.5452  2.9015
    2MOL   H189  851   2.336   1.461   7.467  0.6004  1.1133  1.7852
    2MOL   H190  852   2.176   1.391   7.473  1.4130 -0.3065 -2.0583
    2MOL   H191  853   2.263   1.665   7.616 -2.8375  1.0935  0.5684
    2MOL   H192  854   2.103   1.597   7.615  0.4045 -0.0044  0.9309
    2MOL   H193  855   2.349   1.460   0.036 -0.4228  1.2490  2.9937
    2MOL   H194  856   2.190   1.396   0.025 -1.5005  0.8056 -1.8783
    2MOL   H195  857   2.138   1.637   0.151 -0.3744 -0.8531 -1.7220
    2MOL   H196  858   2.309   1.624   0.194 -1.4823  1.1582  0.8033
    2MOL   H197  859   2.278   1.439   0.329 -0.0617 -0.1752 -0.5574
    2MOL   H198  860   2.126   1.392   0.240 -1.0496  0.9720 -0.9062
    2MOL   H199  861   2.131   1.516   0.361 -2.4637 -0.4560 -1.0885
    2MOL   C200  862   2.197   1.478   6.713  0.3098  0.2039  0.0811
    2MOL   C201  863   2.138   1.339   6.710  0.2191  0.5951 -0.3718
    2MOL   C202  864   2.175   1.255   6.586 -0.1740 -0.1692  0.3882
    2MOL   C203  865   2.331   1.234   6.558  0.0377  0.2078  0.0457
    2MOL   C204  866   2.341   1.130   6.442 -1.1639  0.9079 -0.3149
    2MOL   C205  867   2.488   1.117   6.392 -0.0134  0.4126 -0.0372
    2MOL   C206  868   2.559   0.980   6.420 -0.1317 -0.1129 -0.2793
    2MOL   C207  869   2.587   0.961   6.575 -0.2129 -0.1810  0.6811
    2MOL   C208  870   2.650   0.823   6.594  0.1817 -0.1815 -0.1140
    2MOL   C209  871   2.663   0.761   6.728 -0.8011 -0.1685 -0.2692
    2MOL   C210  872   2.738   0.839   6.841 -0.1810 -0.0989 -0.2659
    2MOL   H211  873   2.174   1.528   6.619 -0.2160 -1.5716 -0.7525
    2MOL   H212  874   2.306   1.475   6.712  0.2971 -0.1110 -0.7177
    2MOL   H213  875   2.181   1.279   6.790 -0.9525 -0.8624 -0.8148
    2MOL   H214  876   2.126   1.290   6.495  0.5466 -0.0443  0.0512
    2MOL   H215  877   2.143   1.153   6.606  1.1790 -0.2040  2.6244
    2MOL   H216  878   2.378   1.207   6.652  0.4110  1.6459  0.2827
    2MOL   H217  879   2.385   1.326   6.536  0.6549 -0.1259  0.1499
    2MOL   H218  880   2.289   1.156   6.349 -1.3020  1.8466  0.0214
    2MOL   H219  881   2.304   1.031   6.468  1.3011 -0.1331 -0.6358
    2MOL   H220  882   2.496   1.127   6.284 -1.9218 -0.8817 -0.3275
    2MOL   H221  883   2.543   1.201   6.435 -0.6502  1.4070 -1.1380
    2MOL   H222  884   2.647   0.968   6.356  0.1983  0.8743 -0.0322
    2MOL   H223  885   2.487   0.903   6.394  1.0819 -0.4048 -3.0866
    2MOL   H224  886   2.500   0.965   6.639 -1.0317 -0.2095 -0.4205
    2MOL   H225  887   2.661   1.034   6.607  1.4455 -0.9857 -1.2032
    2MOL   H226  888   2.749   0.822   6.549 -0.4907 -0.3179 -1.6567
    2MOL   H227  889   2.603   0.752   6.525  1.1535  0.6367 -1.6532
    2MOL   H228  890   2.563   0.751   6.770 -0.4103 -3.5608 -0.0280
    2MOL   H229  891   2.708   0.662   6.724 -0.5084 -0.0457 -0.0996
    2MOL   H230  892   2.683   0.930   6.863  0.3850  0.9632 -3.0010
    2MOL   H231  893   2.839   0.867   6.809  0.3385 -0.8117  0.7187
    2MOL   H232  894   2.758   0.786   6.934  0.2210  0.1364 -0.2159
    2MOL   C233  895   1.983   1.358   6.719  0.6764  0.0586  0.2613
    2MOL   C234  896   1.901   1.227   6.750 -0.2558  0.0237  0.2190
    2MOL   C235  897   1.861   1.154   6.619  0.4720 -0.3054 -0.2565
    2MOL   C236  898   1.890   1.007   6.637  1.1156  0.1593  0.6587
    2MOL   C237  899   1.812   0.923   6.528 -0.5952  0.8403 -0.2947
    2MOL   C238  900   1.846   0.776   6.545  0.0138 -0.4713 -0.2285
    2MOL   C239  901   1.760   0.685   6.451 -0.0410  0.3836 -1.0609
    2MOL   C240  902   1.804   0.542   6.435  0.3300 -0.0946 -1.0659
    2MOL   C241  903   1.724   0.469   6.318  0.1568 -0.7546  0.4495
    2MOL   C242  904   1.775   0.324   6.297 -0.3463  0.5702 -0.1331
    2MOL   C243  905   1.701   0.271   6.174 -0.6859 -0.1164 -0.0505
    2MOL   H244  906   1.949   1.395   6.622  0.9024 -2.2456 -0.7312
    2MOL   H245  907   1.944   1.435   6.784 -0.3812 -0.7829  0.6349
    2MOL   H246  908   1.977   1.161   6.792  0.7244  0.6446 -0.5717
    2MOL   H247  909   1.755   1.177   6.604  0.8205  0.8866 -0.9747
    2MOL   H248  910   1.910   1.184   6.527 -0.2434  3.0614  0.3903
    2MOL   H249  911   1.850   0.965   6.730  0.5539  1.2057  0.8911
    2MOL   H250  912   1.994   0.974   6.645  0.5919 -1.8874 -0.6617
    2MOL   H251  913   1.849   0.949   6.429  3.3566  1.7860  1.3398
    2MOL   H252  914   1.704   0.928   6.532 -0.4937  3.1925  0.1318
    2MOL   H253  915   1.827   0.732   6.643  1.1288  0.1281  0.2744
    2MOL   H254  916   1.952   0.762   6.521  0.4323 -0.4776  1.5366
    2MOL   H255  917   1.653   0.694   6.473  0.3380 -0.1069  1.0764
    2MOL   H256  918   1.753   0.726   6.350 -0.5056 -0.1532 -1.2522
    2MOL   H257  919   1.912   0.536   6.424  0.0770 -1.1345 -3.0647
    2MOL   H258  920   1.795   0.489   6.530  0.9010  2.5053  0.5050
    2MOL   H259  921   1.620   0.474   6.347  0.8373  0.5946  2.7891
    2MOL   H260  922   1.729   0.522   6.223 -0.9923 -2.8722 -0.8147
    2MOL   H261  923   1.747   0.269   6.387  3.0067 -0.5252  0.2872
    2MOL   H262  924   1.883   0.327   6.285 -0.3750  1.3713 -0.2199
    2MOL   H263  925   1.732   0.169   6.151 -0.1393  0.1156 -0.3470
    2MOL   H264  926   1.731   0.334   6.090 -0.7109 -0.2263 -0.1421
    2MOL   H265  927   1.596   0.287   6.198 -0.7641 -1.2555  0.4349
    2MOL   C266  928   1.786   1.247   6.850 -0.8748 -0.0131 -0.3845
    2MOL   C267  929   1.843   1.276   6.991  0.6512  0.1599  0.4991
    2MOL   C268  930   1.904   1.151   7.065  0.6861  0.8720  0.1601
    2MOL   C269  931   2.002   1.171   7.179 -0.4283  0.1804 -0.4049
    2MOL   C270  932   2.021   1.050   7.273 -0.5969  0.2893 -0.0054
    2MOL   C271  933   2.125   1.075   7.382 -0.4869 -0.0897  0.7614
    2MOL   C272  934   2.137   0.955   7.474 -0.6217  0.1102  0.6823
    2MOL   C273  935   2.256   0.956   7.570  0.0933 -0.2027  0.1321
    2MOL   C274  936   2.252   0.863   7.692 -0.3248  0.2447  0.7355
    2MOL   C275  937   2.135   0.882   0.087 -0.1488  0.6072  0.0470
    2MOL   C276  938   2.120   1.027   0.143 -0.3863 -0.3561 -0.7251
    2MOL   H277  939   1.729   1.154   6.853 -1.2096  0.1775 -0.7520
    2MOL   H278  940   1.727   1.331   6.813 -2.0733 -0.4378  0.5287
    2MOL   H279  941   1.930   1.342   6.988  0.5556  0.2949  0.7215
    2MOL   H280  942   1.815   1.102   7.106 -0.0868  3.4268  1.6641
    2MOL   H281  943   1.949   1.082   6.995  0.0357 -0.7325  1.2801
    2MOL   H282  944   1.982   1.267   7.227  1.0760 -0.7632  2.1877
    2MOL   H283  945   2.093   1.197   7.125 -0.0023 -1.7707 -0.6279
    2MOL   H284  946   2.054   0.967   7.210  1.0534 -0.0908  1.3256
    2MOL   H285  947   1.929   1.018   7.323 -0.9631  3.4362  1.4489
    2MOL   H286  948   2.080   1.157   7.437 -0.7869  0.4986 -0.3444
    2MOL   H287  949   2.218   1.115   7.340 -0.9867 -0.0438 -0.3197
    2MOL   H288  950   2.043   0.947   7.530 -0.9909  2.3026  0.4090
    2MOL   H289  951   2.139   0.870   7.405  0.5243  1.2171 -0.6708
    2MOL   H290  952   2.256   1.057   7.611  1.7720 -0.2896  0.3500
    2MOL   H291  953   2.349   0.964   7.514  0.3863 -0.0648  0.6473
    2MOL   H292  954   2.248   0.758   7.663  2.9254  0.9393 -2.5295
    2MOL   H293  955   2.346   0.869   0.043 -0.7653  0.4884  1.4831
    2MOL   H294  956   2.143   0.817   0.173  0.7495  2.3822  1.3397
    2MOL   H295  957   2.038   0.854   0.046 -0.2078  1.1513 -0.2017
    2MOL   H296  958   2.205   1.041   0.209 -1.9972 -0.1338  1.3627
    2MOL   H297  959   2.030   1.025   0.204  0.5341  3.0460  0.8369
    2MOL   H298  960   2.117   1.108   0.070 -1.3192  0.4390  0.1739
    2MOL   C299  961   1.723   1.337   7.077  0.2249 -0.3171 -0.1893
    2MOL   C300  962   1.673   1.472   7.039  0.8931  0.3412 -0.4842
    2MOL   C301  963   1.798   1.572   7.018 -0.2107  0.5876 -0.9796
    2MOL   C302  964   1.770   1.722   6.973  0.1747  0.7210  0.5484
    2MOL   C303  965   1.759   1.827   7.083  0.0790  0.1149  0.4108
    2MOL   C304  966   1.765   1.973   7.036 -0.2144  0.2515  0.5974
    2MOL   C305  967   1.644   2.029   6.966  0.8613 -0.6511 -0.8282
    2MOL   C306  968   1.529   2.049   7.067 -0.1073  0.1440 -0.5349
    2MOL   C307  969   1.415   2.131   7.007 -0.2380 -0.3223 -0.8222
    2MOL   C308  970   1.278   2.101   7.081 -0.2264  0.3863  0.3472
    2MOL   C309  971   1.268   2.160   7.221  0.2965 -0.5123 -0.5927
    2MOL   H310  972   1.764   1.349   7.177 -2.2508 -1.1421  0.9618
    2MOL   H311  973   1.639   1.268   7.086 -1.4121  1.7532  0.9676
    2MOL   H312  974   1.610   1.469   6.949 -1.6334  0.3556  1.2210
    2MOL   H313  975   1.857   1.571   7.110  0.1786  0.7437 -1.2268
    2MOL   H314  976   1.875   1.540   6.948  0.9514  2.5877 -0.6536
    2MOL   H315  977   1.847   1.756   6.904 -2.3882  0.6908 -2.4947
    2MOL   H316  978   1.670   1.724   6.928 -0.2393 -0.3770  1.3967
    2MOL   H317  979   1.669   1.807   7.140 -0.1634  1.5670  0.5449
    2MOL   H318  980   1.835   1.802   7.157  0.3558 -1.9566 -0.5224
    2MOL   H319  981   1.840   1.969   6.957 -1.7199  0.7856 -0.8770
    2MOL   H320  982   1.798   2.032   7.122  0.5892  0.8244 -0.0972
    2MOL   H321  983   1.675   2.117   6.911  1.6224 -0.0036  0.5946
    2MOL   H322  984   1.635   1.961   6.882  1.4714 -0.8558 -0.7331
    2MOL   H323  985   1.579   2.080   7.159  2.1829 -3.8890 -0.3290
    2MOL   H324  986   1.493   1.947   7.076  3.0200 -0.9097  0.6744
    2MOL   H325  987   1.402   2.093   6.905 -0.5265 -3.6898  0.4182
    2MOL   H326  988   1.447   2.235   6.993  1.3944 -0.2905  2.7015
    2MOL   H327  989   1.265   1.993   7.092 -0.3899  0.4288  0.5783
    2MOL   H328  990   1.200   2.140   7.016 -0.1512  0.5981  0.3834
    2MOL   H329  991   1.278   2.269   7.222 -1.3481 -0.3603 -0.2708
    2MOL   H330  992   1.168   2.137   7.256  0.1335 -1.0957 -1.4274
    2MOL   H331  993   1.341   2.117   7.290 -0.4306  0.7519  0.9957
    2MOL   C332  994   1.575   1.517   7.147  0.0759  0.0956 -0.1066
    2MOL   C333  995   1.449   1.593   7.110 -0.7796 -0.4616  0.4834
    2MOL   C334  996   1.398   1.678   7.238 -0.0717 -0.0120 -0.0008
    2MOL   C335  997   1.345   1.588   7.355  0.2559  0.6654  0.1990
    2MOL   C336  998   1.298   1.676   7.465  0.0291  0.4259 -0.8624
    2MOL   C337  999   1.406   1.738   7.560  0.0547 -1.0155  0.2674
    2MOL   C338 1000   1.364   1.828   7.671 -0.3656 -0.4499  0.4081
    2MOL   C339 1001   1.476   1.851   0.075 -0.2503 -0.0443 -1.0398
    2MOL   C340 1002   1.416   1.873   0.220  0.4987 -0.0741  0.0670
    2MOL   C341 1003   1.351   2.013   0.235  0.0878 -0.1218  0.3828
    2MOL   C342 1004   1.435   2.138   0.209  0.3976 -0.2277  0.4228
    2MOL   H343 1005   1.548   1.429   7.205 -1.7800  1.7637  1.6437
    2MOL   H344 1006   1.633   1.571   7.222  1.1644  1.0398 -1.5981
    2MOL   H345 1007   1.490   1.671   7.045 -1.6321 -0.4392 -0.0440
    2MOL   H346 1008   1.324   1.751   7.203 -0.2330  0.0729  0.5110
    2MOL   H347 1009   1.493   1.718   7.274 -0.0300  0.5838 -0.7578
    2MOL   H348 1010   1.260   1.535   7.313  0.4062 -1.0015  1.9690
    2MOL   H349 1011   1.420   1.517   7.388 -1.2868 -1.3728 -0.6273
    2MOL   H350 1012   1.231   1.751   7.423 -0.2525  0.8273  0.2790
    2MOL   H351 1013   1.231   1.609   7.519 -0.8548 -0.1038 -2.6016
    2MOL   H352 1014   1.480   1.786   7.496 -2.0342  1.8009 -0.1418
    2MOL   H353 1015   1.457   1.651   7.602 -1.2915 -0.4522  3.2344
    2MOL   H354 1016   1.278   1.770   0.001  0.1715 -2.2041 -1.2058
    2MOL   H355 1017   1.326   1.924   7.635  0.0331 -1.3669 -2.5561
    2MOL   H356 1018   1.553   1.774   0.073  0.2282  0.4201 -0.6442
    2MOL   H357 1019   1.537   1.939   0.056 -0.7392  1.2968  3.0084
    2MOL   H358 1020   1.497   1.865   0.293  0.7670  2.2272  0.0570
    2MOL   H359 1021   1.348   1.799   0.262 -1.2347  1.8799  0.8495
    2MOL   H360 1022   1.299   2.036   0.328 -1.0713  1.8062 -0.7206
    2MOL   H361 1023   1.276   2.025   0.157  0.9425 -0.9356 -0.5760
    2MOL   H362 1024   1.531   2.127   0.261  1.7842 -0.6235 -2.1264
    2MOL   H363 1025   1.462   2.160   0.105 -1.1983  0.0691  0.0659
    2MOL   H364 1026   1.373   2.222   0.240  1.1182 -0.3168  2.1535
    2MOL   C365 1027   1.344   1.509   7.031 -0.4244 -0.0425  0.2507
    2MOL   C366 1028   1.234   1.597   6.964  0.4149 -1.0987 -0.3470
    2MOL   C367 1029   1.281   1.696   6.846 -0.9447  0.5758  0.2713
    2MOL   C368 1030   1.169   1.792   6.802 -0.4592  0.3535  0.0093
    2MOL   C369 1031   1.216   1.904   6.722  0.4810 -0.4214  0.3157
    2MOL   C370 1032   1.120   2.025   6.716  0.3645  0.0018  0.0428
    2MOL   C371 1033   1.192   2.140   6.649  0.0797  0.5930 -0.0932
    2MOL   C372 1034   1.109   2.267   6.625 -0.5853 -0.4271 -0.5176
    2MOL   C373 1035   1.021   2.259   6.502  0.0444  0.3575  0.5529
    2MOL   C374 1036   0.952   2.381   6.466  0.7033  0.3993 -0.2069
    2MOL   C375 1037   0.833   2.402   6.560  0.0465  0.0038 -0.9458
    2MOL   H376 1038   1.399   1.458   6.952 -1.6280 -1.1885  0.1283
    2MOL   H377 1039   1.299   1.431   7.093 -1.8137  0.3363 -0.2667
    2MOL   H378 1040   1.197   1.666   7.039  0.0132 -1.1658 -0.4796
    2MOL   H379 1041   1.318   1.643   6.758 -0.2590 -0.5931  1.2551
    2MOL   H380 1042   1.354   1.766   6.886  0.5299 -0.1498 -1.0790
    2MOL   H381 1043   1.117   1.836   6.887 -1.1530 -1.3814  0.5121
    2MOL   H382 1044   1.097   1.740   6.739 -0.0646 -0.6698  0.3890
    2MOL   H383 1045   1.240   1.887   6.617  2.3636  0.3515  0.5949
    2MOL   H384 1046   1.316   1.942   6.745  1.0024 -1.6715  0.1754
    2MOL   H385 1047   1.101   2.066   6.815  0.7357  1.6961 -0.5746
    2MOL   H386 1048   1.034   1.998   6.655  0.2020 -1.2205  0.7985
    2MOL   H387 1049   1.279   2.168   6.707 -0.4130 -2.2321  2.1596
    2MOL   H388 1050   1.220   2.109   6.548  1.3875 -0.6311  0.6332
    2MOL   H389 1051   1.180   2.350   6.617 -0.3774 -0.6973 -1.5678
    2MOL   H390 1052   1.050   2.288   6.714 -0.9918  1.2277 -1.1595
    2MOL   H391 1053   1.091   2.239   6.421 -0.7947  1.3470 -0.4334
    2MOL   H392 1054   0.961   2.168   6.506  0.6049 -0.1440 -1.7830
    2MOL   H393 1055   1.022   2.464   6.477  1.9184 -0.7518  0.8450
    2MOL   H394 1056   0.910   2.379   6.365 -2.1851 -0.2946  0.9601
    2MOL   H395 1057   0.872   2.396   6.661 -0.5807  0.0242 -0.7010
    2MOL   H396 1058   0.753   2.329   6.543 -0.8677  0.8670 -0.3453
    2MOL   H397 1059   0.787   2.500   6.553  0.0185  0.0459 -0.2046
    2MOL   C398 1060   1.113   1.515   6.914 -0.2561  0.3077  0.3131
    2MOL   C399 1061   1.038   1.425   7.013 -0.5654  0.4826  0.7568
    2MOL   C400 1062   0.933   1.341   6.922 -1.0954 -0.2929  0.7839
    2MOL   C401 1063   0.808   1.417   6.879  0.0330  0.0846 -0.0158
    2MOL   C402 1064   0.720   1.337   6.786 -0.4190 -0.3929 -0.5338
    2MOL   C403 1065   0.672   1.210   6.859  0.0115  0.0484 -0.4472
    2MOL   C404 1066   0.539   1.150   6.803  0.3825 -0.0992 -0.4832
    2MOL   C405 1067   0.508   1.000   6.834  0.5626 -0.2112 -0.2002
    2MOL   C406 1068   0.370   0.939   6.793 -0.0266 -0.1090 -0.6451
    2MOL   C407 1069   0.344   0.813   6.865 -0.1393  0.8216  0.3547
    2MOL   C408 1070   0.432   0.691   6.834 -0.1685 -0.2058 -0.4492
    2MOL   H409 1071   1.152   1.463   6.826  0.2429 -0.0359  0.7315
    2MOL   H410 1072   1.040   1.584   6.873 -0.2851 -0.6146 -1.2385
    2MOL   H411 1073   1.110   1.354   7.054 -2.2477 -1.7251 -0.0219
    2MOL   H412 1074   0.920   1.249   6.979  1.7921  1.1554  3.9292
    2MOL   H413 1075   0.983   1.303   6.832  1.4654  1.2216  1.5165
    2MOL   H414 1076   0.747   1.450   6.963  0.6827  0.8881  0.1459
    2MOL   H415 1077   0.846   1.506   6.829  0.9380  0.0441  0.5803
    2MOL   H416 1078   0.637   1.405   6.767  1.6132  1.9268 -1.4441
    2MOL   H417 1079   0.778   1.313   6.697  0.1672  1.6093 -0.7354
    2MOL   H418 1080   0.665   1.217   6.968 -0.1395  1.7432 -0.5446
    2MOL   H419 1081   0.747   1.131   6.856 -0.2716 -0.3175  1.4214
    2MOL   H420 1082   0.463   1.218   6.841 -0.3809 -0.5818 -1.1539
    2MOL   H421 1083   0.548   1.161   6.695  1.3734 -0.7231 -0.4705
    2MOL   H422 1084   0.518   0.993   6.942 -0.1895 -0.2577 -0.1345
    2MOL   H423 1085   0.583   0.943   6.780  1.0764 -0.5223  0.8265
    2MOL   H424 1086   0.297   1.017   6.817  2.0207  1.5641  0.3292
    2MOL   H425 1087   0.354   0.925   6.686 -3.2415  2.2652 -0.5191
    2MOL   H426 1088   0.246   0.781   6.831  0.6319  0.3084 -1.4649
    2MOL   H427 1089   0.339   0.832   6.972 -1.0450 -1.4847  0.7458
    2MOL   H428 1090   0.531   0.698   6.879 -0.5324 -1.9327  0.6998
    2MOL   H429 1091   0.425   0.674   6.727 -3.0458 -0.4429 -0.2707
    2MOL   H430 1092   0.385   0.606   6.885  0.6302 -0.0393  0.5947
    2MOL   C431 1093   0.990   1.491   7.144 -0.1893  0.1935 -0.0141
    2MOL   C432 1094   0.915   1.396   7.234  0.8849  0.8353 -0.6076
    2MOL   C433 1095   0.831   1.461   7.345  0.4205 -0.0833  0.2788
    2MOL   C434 1096   0.727   1.371   7.411  0.2894 -0.1644  0.2061
    2MOL   C435 1097   0.627   1.458   7.496 -0.1578  0.0342 -0.0332
    2MOL   C436 1098   0.530   1.375   7.584 -0.6966  0.2651  0.4023
    2MOL   C437 1099   0.443   1.461   7.669 -0.2231 -0.6239 -1.3881
    2MOL   C438 1100   0.347   1.553   7.586  0.2559 -0.2070  0.5334
    2MOL   C439 1101   0.242   1.618   7.679  0.3300 -0.5162  1.0556
    2MOL   C440 1102   0.141   1.711   7.603 -0.2528  0.3572 -0.3282
    2MOL   C441 1103   0.019   1.736   7.689  0.9075  1.0439  0.2239
    2MOL   H442 1104   0.927   1.576   7.116  1.8882  1.4636 -1.0364
    2MOL   H443 1105   1.073   1.539   7.196 -2.4412  2.0938  1.9561
    2MOL   H444 1106   0.848   1.330   7.178  0.8711  1.2233 -1.0559
    2MOL   H445 1107   0.904   1.502   7.416 -0.6874  0.7189  0.9655
    2MOL   H446 1108   0.785   1.545   7.294  0.7013 -0.1662 -0.1120
    2MOL   H447 1109   0.770   1.286   7.464  0.9571  0.1280  0.1391
    2MOL   H448 1110   0.669   1.323   7.332  1.4740 -0.3982 -0.5332
    2MOL   H449 1111   0.560   1.518   7.434 -0.4658 -0.4906 -0.2096
    2MOL   H450 1112   0.673   1.537   7.556 -0.4108  0.1545  0.0014
    2MOL   H451 1113   0.587   1.293   7.628 -2.4835 -0.9439  0.5260
    2MOL   H452 1114   0.472   1.313   7.515 -0.6491 -0.8330  1.3278
    2MOL   H453 1115   0.518   1.518   0.020  1.7801 -2.7461 -1.8690
    2MOL   H454 1116   0.391   1.395   0.036  0.8323  1.7837  1.7267
    2MOL   H455 1117   0.405   1.626   7.529  3.1671 -2.4576  0.4940
    2MOL   H456 1118   0.295   1.491   7.513  1.7854 -1.1922  0.2630
    2MOL   H457 1119   0.291   1.678   0.053  3.0432  2.0235 -2.4612
    2MOL   H458 1120   0.182   1.540   0.022  1.1118 -1.7076  0.0925
    2MOL   H459 1121   0.117   1.661   7.509 -0.7857 -3.6429  1.7972
    2MOL   H460 1122   0.179   1.812   7.587  2.1840 -0.1493  1.9055
    2MOL   H461 1123   0.023   1.798   0.075  1.5047  0.6622  0.4705
    2MOL   H462 1124   7.646   1.792   7.635  0.1218 -0.4654 -0.2757
    2MOL   H463 1125   7.670   1.649   0.026 -0.1231  1.6798  0.2537
    2MOL   C464 1126   1.011   1.310   7.309 -0.3372  0.1386  0.1236
    2MOL   C465 1127   1.035   1.161   7.247 -0.2386  0.3827 -0.5031
    2MOL   C466 1128   1.154   1.106   7.315 -0.2205 -0.0180 -0.1880
    2MOL   C467 1129   1.289   1.170   7.271  0.4084 -0.2605  0.0614
    2MOL   C468 1130   1.409   1.126   7.347 -0.2398 -0.1360 -0.5465
    2MOL   C469 1131   1.438   0.976   7.350 -0.2492 -0.2613 -0.0535
    2MOL   C470 1132   1.488   0.923   7.211 -0.7106  0.1814 -0.2559
    2MOL   C471 1133   1.379   0.851   7.135 -0.6415  0.8174  0.1156
    2MOL   C472 1134   1.429   0.797   6.998  0.3682  0.0809  0.0875
    2MOL   C473 1135   1.432   0.896   6.882  0.4602 -0.2780 -0.2171
    2MOL   C474 1136   1.521   0.861   6.761 -0.3010  0.3629 -0.1244
    2MOL   H475 1137   0.992   1.303   7.416 -1.7469  2.6967  0.0734
    2MOL   H476 1138   1.105   1.365   7.313 -1.2450  1.7491 -0.2632
    2MOL   H477 1139   1.055   1.178   7.141  1.4449 -0.5237 -0.3494
    2MOL   H478 1140   1.168   1.003   7.284 -0.2318  0.0708 -0.4903
    2MOL   H479 1141   1.150   1.110   7.424 -2.2800  0.8169 -0.2700
    2MOL   H480 1142   1.301   1.128   7.171  1.3583 -1.1685  0.5406
    2MOL   H481 1143   1.296   1.279   7.271 -0.4146 -0.1956 -1.3085
    2MOL   H482 1144   1.383   1.141   7.452  0.6853 -1.6504 -0.0835
    2MOL   H483 1145   1.494   1.184   7.314  0.1408 -1.3114 -1.6807
    2MOL   H484 1146   1.518   0.957   7.421  0.3804  0.2062 -0.6427
    2MOL   H485 1147   1.350   0.925   7.392 -1.6233  0.4181 -2.0570
    2MOL   H486 1148   1.533   1.006   7.156  1.7071  0.1709  1.6043
    2MOL   H487 1149   1.573   0.855   7.224 -1.9818 -1.8252 -2.1213
    2MOL   H488 1150   1.347   0.769   7.198  0.0661  0.4504  0.0070
    2MOL   H489 1151   1.294   0.917   7.114 -0.9419  0.7070  0.9929
    2MOL   H490 1152   1.528   0.752   7.014 -0.8402 -2.1721  1.5484
    2MOL   H491 1153   1.378   0.704   6.973  0.6299  0.5000 -2.0282
    2MOL   H492 1154   1.331   0.916   6.847  1.2281  1.3090 -1.5618
    2MOL   H493 1155   1.462   0.993   6.921 -1.5556  0.2512  0.0661
    2MOL   H494 1156   1.520   0.939   6.684 -0.4704 -1.2552 -1.8117
    2MOL   H495 1157   1.486   0.764   6.726 -1.9537  0.2879  1.6678
    2MOL   H496 1158   1.626   0.847   6.787  0.1090 -0.4176 -2.1179
    2MOL   C497 1159   0.916   1.065   7.272  0.1234  0.3488 -0.1922
    2MOL   C498 1160   0.905   0.927   7.205  0.1419  0.0095  0.2278
    2MOL   C499 1161   0.815   0.931   7.085  0.1674  0.3603  0.2924
    2MOL   C500 1162   0.827   0.817   6.984 -0.3481 -0.0037  0.0129
    2MOL   C501 1163   0.953   0.817   6.890 -0.6425  0.5858  0.3932
    2MOL   C502 1164   0.970   0.715   6.785 -0.5226 -0.0060  0.5301
    2MOL   C503 1165   1.120   0.714   6.742  0.1991  0.2287  0.4025
    2MOL   C504 1166   1.146   0.627   6.621 -0.1059  0.0502  0.2542
    2MOL   C505 1167   1.094   0.682   6.488  0.8422 -0.2227  0.4198
    2MOL   C506 1168   1.093   0.583   6.369  0.3533 -0.2461  0.6146
    2MOL   C507 1169   1.032   0.653   6.252 -0.1014  0.5599 -0.5155
    2MOL   H508 1170   0.905   1.048   7.379 -1.2362 -1.1348 -0.5432
    2MOL   H509 1171   0.829   1.119   7.234 -0.4073 -0.0865  0.3844
    2MOL   H510 1172   1.010   0.909   7.184 -0.2634 -0.1931 -1.7053
    2MOL   H511 1173   0.848   1.013   7.022  1.0224 -1.2976 -1.4458
    2MOL   H512 1174   0.714   0.952   7.121 -1.0880 -0.5102 -2.5893
    2MOL   H513 1175   0.738   0.816   6.921 -1.6590  0.8743  1.8172
    2MOL   H514 1176   0.818   0.720   7.032 -1.0341  0.4094  0.7241
    2MOL   H515 1177   0.945   0.912   6.836  0.1500  0.5877  0.2813
    2MOL   H516 1178   1.036   0.813   6.960 -1.4854 -0.1544  1.3615
    2MOL   H517 1179   0.954   0.617   6.832 -1.1295 -1.2505 -2.1729
    2MOL   H518 1180   0.904   0.724   6.699  0.8520 -0.1767 -0.5751
    2MOL   H519 1181   1.156   0.815   6.722  1.0439 -0.0750  0.3703
    2MOL   H520 1182   1.181   0.671   6.821  0.0057 -1.0066 -0.1143
    2MOL   H521 1183   1.093   0.539   6.658 -0.5799  1.1881  2.3549
    2MOL   H522 1184   1.252   0.602   6.613 -0.1857 -0.0256 -0.6563
    2MOL   H523 1185   1.162   0.763   6.459  0.2648 -0.2458 -1.0338
    2MOL   H524 1186   1.000   0.730   6.514  1.7723  0.6382  2.3582
    2MOL   H525 1187   1.038   0.491   6.392 -1.1668  0.5422  0.2266
    2MOL   H526 1188   1.192   0.544   6.345  1.2985  3.4561 -1.8417
    2MOL   H527 1189   1.004   0.582   6.174  4.3899 -0.2471 -1.5123
    2MOL   H528 1190   1.085   0.736   6.207 -0.0678 -0.0831 -1.6833
    2MOL   H529 1191   0.935   0.694   6.281 -0.5091 -0.4759 -0.3703
    2MOL   C530 1192   0.859   0.822   7.308  0.0824 -0.0487  0.3253
    2MOL   C531 1193   0.955   0.775   7.422 -0.0142 -0.3985 -0.1198
    2MOL   C532 1194   1.073   0.692   7.363  0.4450 -0.0731  0.0177
    2MOL   C533 1195   1.034   0.556   7.290 -0.2233  0.5278 -0.6041
    2MOL   C534 1196   1.068   0.561   7.140  0.0932 -0.2469  0.2248
    2MOL   C535 1197   1.021   0.437   7.061 -0.6761  0.4009 -0.1057
    2MOL   C536 1198   1.090   0.307   7.107  0.1313  0.2008  0.4233
    2MOL   C537 1199   1.029   0.178   7.054 -0.1773  0.3192 -0.2245
    2MOL   C538 1200   1.073   0.050   7.133 -0.7055  0.6483 -0.3982
    2MOL   C539 1201   0.992   7.628   7.088  0.5580  0.2256 -0.1383
    2MOL   C540 1202   1.054   7.497   7.126 -0.3728  0.8237 -0.1134
    2MOL   H541 1203   0.769   0.863   7.354 -0.6993 -1.8978  0.5231
    2MOL   H542 1204   0.821   0.730   7.262  1.1683  1.2184 -3.2230
    2MOL   H543 1205   1.008   0.862   7.459 -1.1187  0.7406 -1.1793
    2MOL   H544 1206   1.135   0.673   7.451 -0.8133  1.0119  1.1509
    2MOL   H545 1207   1.150   0.741   7.303  2.4794 -0.6794  2.0920
    2MOL   H546 1208   0.929   0.543   7.317  0.6881  0.7172  3.2909
    2MOL   H547 1209   1.092   0.476   7.337  1.4793 -0.1691 -3.7358
    2MOL   H548 1210   1.176   0.563   7.128 -0.0149 -0.0094 -0.7232
    2MOL   H549 1211   1.028   0.653   7.097  0.2516 -0.1174  0.3559
    2MOL   H550 1212   1.028   0.465   6.956  3.3603  0.3091  0.0826
    2MOL   H551 1213   0.916   0.423   7.087 -0.5785 -0.4534 -0.1614
    2MOL   H552 1214   1.081   0.313   7.216 -1.1081 -0.6704  0.3795
    2MOL   H553 1215   1.195   0.322   7.081  0.2044  1.2179  1.2569
    2MOL   H554 1216   1.061   0.168   6.950 -0.3094  0.8412 -0.3164
    2MOL   H555 1217   0.921   0.180   7.063 -0.1885 -1.9513  0.4186
    2MOL   H556 1218   1.045   0.063   7.238 -0.0195 -0.7140 -0.0385
    2MOL   H557 1219   1.179   0.028   7.127 -0.8089 -0.4129  1.1114
    2MOL   H558 1220   0.985   7.624   6.980  0.1351 -2.4774 -0.0482
    2MOL   H559 1221   0.888   7.633   7.121  0.6155 -1.4078  0.3509
    2MOL   H560 1222   1.009   7.403   7.094  1.2467  0.4029 -1.2323
    2MOL   H561 1223   1.156   7.491   7.088 -0.3172 -2.6837  0.4179
    2MOL   H562 1224   1.066   7.489   7.234 -0.2195  0.7212 -0.1389
    2MOL   C563 1225   0.877   0.702   7.536  0.1569 -0.0880 -0.4285
    2MOL   C564 1226   0.955   0.689   7.675 -0.4546  0.7470  0.3478
    2MOL   C565 1227   0.897   0.586   0.062  0.4871  0.4888 -0.8398
    2MOL   C566 1228   0.895   0.444   0.005 -0.7254 -0.4916 -0.1401
    2MOL   C567 1229   1.033   0.399   7.646  0.4790  0.2313  0.4458
    2MOL   C568 1230   1.021   0.255   7.595  0.3811 -0.5903  0.4395
    2MOL   C569 1231   1.149   0.201   7.526  0.2660  0.0953 -0.4371
    2MOL   C570 1232   1.139   0.052   7.520 -0.1355 -0.8419 -0.2169
    2MOL   C571 1233   1.261   7.685   7.471 -0.3144 -0.3670  0.4915
    2MOL   C572 1234   1.226   7.532   7.478  0.0201  0.2024  0.5706
    2MOL   C573 1235   1.339   7.433   7.443 -1.2146 -0.2374 -0.4388
    2MOL   H574 1236   0.876   0.599   7.498 -2.2341 -0.1735 -0.2648
    2MOL   H575 1237   0.774   0.737   7.548  0.8388  1.2762  1.6429
    2MOL   H576 1238   1.059   0.662   7.656 -0.5925  0.0317  0.5802
    2MOL   H577 1239   0.797   0.617   0.094  0.0292 -1.1327 -0.6588
    2MOL   H578 1240   0.960   0.579   0.151  1.6321  2.3019 -1.4938
    2MOL   H579 1241   0.817   0.427   7.634 -0.3021 -0.1728 -0.6616
    2MOL   H580 1242   0.857   0.384   0.088  0.5649 -0.4466  0.4947
    2MOL   H581 1243   1.113   0.405   0.016  1.0545 -0.3500 -0.1306
    2MOL   H582 1244   1.047   0.467   7.562  0.0471 -1.7269 -1.2441
    2MOL   H583 1245   0.994   0.197   7.683  1.2527 -1.1862  0.3206
    2MOL   H584 1246   0.935   0.246   7.529  1.4764  0.6045 -1.1767
    2MOL   H585 1247   1.169   0.242   7.427 -0.2695 -0.1367 -0.6439
    2MOL   H586 1248   1.236   0.224   7.587 -1.4265  0.2750  1.9756
    2MOL   H587 1249   1.047   0.022   7.469 -0.7419 -0.0112  0.3563
    2MOL   H588 1250   1.122   0.022   7.623 -0.6470  0.6703  0.1571
    2MOL   H589 1251   1.351   0.002   7.529  0.7552  0.2548 -1.3206
    2MOL   H590 1252   1.287   0.023   7.373  0.3822  1.4917  1.4512
    2MOL   H591 1253   1.142   7.510   7.413 -0.4330  0.0638  1.1948
    2MOL   H592 1254   1.187   7.500   7.575 -0.8437  1.1776  0.5544
    2MOL   H593 1255   1.361   7.438   7.337 -0.9470 -1.1303 -0.4287
    2MOL   H594 1256   1.431   7.466   7.493 -0.6261 -1.3948 -0.7469
    2MOL   H595 1257   1.321   7.329   7.470 -0.8819 -0.3862 -0.7841
    2MOL   C596 1258   0.943   0.827   0.042  0.1789  0.2645 -0.5674
    2MOL   C597 1259   1.061   0.862   0.131  0.2758  0.2748 -0.1476
    2MOL   C598 1260   1.016   0.968   0.239  0.0682  0.1596  0.1094
    2MOL   C599 1261   0.925   0.898   0.348 -0.4220 -0.1801  0.5531
    2MOL   C600 1262   0.830   0.992   0.423  0.6268  0.3940 -0.0706
    2MOL   C601 1263   0.752   0.924   0.533 -0.2129  0.2958 -0.5377
    2MOL   C602 1264   0.712   1.024   0.636 -0.6761 -0.5956 -0.2408
    2MOL   C603 1265   0.634   0.977   0.751 -0.7620  0.5222  0.1363
    2MOL   C604 1266   0.623   1.072   0.859 -0.0636 -1.2959 -0.5683
    2MOL   C605 1267   0.528   1.012   0.968  0.3205  0.6489 -0.4638
    2MOL   C606 1268   0.471   1.110   1.066  0.1803 -0.4404 -0.5658
    2MOL   H607 1269   0.937   0.909   7.673  0.0139 -0.2224 -1.1067
    2MOL   H608 1270   0.855   0.837   0.104  2.0379  0.7205  2.0788
    2MOL   H609 1271   1.099   0.775   0.185  1.3349  0.7372 -0.1396
    2MOL   H610 1272   0.957   1.044   0.187  1.2009 -0.2319 -1.7883
    2MOL   H611 1273   1.097   1.020   0.290 -0.4797  1.5206 -0.4002
    2MOL   H612 1274   0.977   0.823   0.408 -1.2243 -1.0743  0.1408
    2MOL   H613 1275   0.854   0.829   0.302 -0.6173  0.2834  0.1596
    2MOL   H614 1276   0.767   1.040   0.348  1.9592  0.4374 -1.1768
    2MOL   H615 1277   0.883   1.074   0.471  0.4652  1.2711 -1.3747
    2MOL   H616 1278   0.664   0.879   0.487  0.1668  1.3234 -2.3208
    2MOL   H617 1279   0.814   0.842   0.568 -1.6887  0.1018  1.7531
    2MOL   H618 1280   0.648   1.094   0.583  1.1171  1.4052  0.1448
    2MOL   H619 1281   0.801   1.079   0.670 -0.6970 -0.2634 -0.7191
    2MOL   H620 1282   0.684   0.888   0.789 -0.8575  0.7598  0.8349
    2MOL   H621 1283   0.534   0.949   0.717 -0.0891 -0.5126 -1.0319
    2MOL   H622 1284   0.708   1.120   0.907 -1.5630  0.1291  0.6905
    2MOL   H623 1285   0.560   1.154   0.824 -1.0779 -2.3584 -1.2966
    2MOL   H624 1286   0.583   0.937   1.025  0.6501  2.2396  1.3412
    2MOL   H625 1287   0.443   0.961   0.923  1.1245 -1.1184 -0.0493
    2MOL   H626 1288   0.418   1.186   1.009  2.0528  0.2809 -1.3970
    2MOL   H627 1289   0.395   1.067   1.131 -0.4566  0.8733 -0.4284
    2MOL   H628 1290   0.554   1.155   1.121 -0.4172  2.9273 -2.2480
    2MOL   C629 1291   1.187   0.902   0.059 -0.8555 -0.0445  0.4369
    2MOL   C630 1292   1.307   0.926   0.146 -0.1493  0.0391  0.3225
    2MOL   C631 1293   1.442   0.917   0.069  0.1485  0.1117  0.4520
    2MOL   C632 1294   1.573   0.928   0.160  0.6250 -0.3957 -0.5313
    2MOL   C633 1295   1.707   0.900   0.093  0.3066  0.3454 -0.5820
    2MOL   C634 1296   1.748   0.988   7.678  0.3905  0.2349  0.6924
    2MOL   C635 1297   1.774   1.137   0.007  0.8993  0.1327 -0.4681
    2MOL   C636 1298   1.775   1.224   7.585 -0.1041 -0.8281 -0.0540
    2MOL   C637 1299   1.806   1.374   7.599 -0.0771 -0.0657 -0.1750
    2MOL   C638 1300   1.789   1.463   7.471  0.1546  0.8387 -0.5535
    2MOL   C639 1301   1.782   1.612   7.499  0.4168  0.3136 -0.3139
    2MOL   H640 1302   1.210   0.835   7.680 -0.2753 -0.0914  0.6339
    2MOL   H641 1303   1.170   0.994   0.003  0.0514 -0.9303 -1.3238
    2MOL   H642 1304   1.303   1.023   0.196 -1.7319 -0.0100  0.3170
    2MOL   H643 1305   1.460   0.823   0.017  0.5665  1.2331 -1.4997
    2MOL   H644 1306   1.455   0.987   7.689  0.7384 -0.0473  0.4052
    2MOL   H645 1307   1.557   0.863   0.246 -2.4109 -1.2152 -1.6351
    2MOL   H646 1308   1.568   1.023   0.214  0.3318 -0.7662  0.0964
    2MOL   H647 1309   1.701   0.800   0.050 -0.5486 -0.2363  0.8519
    2MOL   H648 1310   1.783   0.885   0.170 -1.7910 -4.7545  0.7440
    2MOL   H649 1311   1.662   0.987   7.611  0.9545 -1.6066 -0.0334
    2MOL   H650 1312   1.829   0.945   7.619  0.3429 -0.9290  1.4460
    2MOL   H651 1313   1.864   1.141   0.068 -0.0254 -0.8503  1.0017
    2MOL   H652 1314   1.702   1.168   0.083  3.9257 -1.3632  3.1869
    2MOL   H653 1315   1.689   1.204   7.520 -1.2809  5.2857 -0.6531
    2MOL   H654 1316   1.857   1.205   7.516 -0.6655 -0.3291 -0.8756
    2MOL   H655 1317   1.903   1.382   7.647 -0.9036  1.8685  1.2692
    2MOL   H656 1318   1.743   1.413   7.679  1.2016  0.3800  0.6140
    2MOL   H657 1319   1.706   1.423   7.413  0.9390 -0.4233 -0.8259
    2MOL   H658 1320   1.864   1.440   7.395  0.2439  1.9700 -0.8250
    2MOL   H659 1321   1.879   1.653   7.522  0.8153 -0.6013 -0.3286
    2MOL   H660 1322   1.731   1.616   7.595  0.2290  0.7335 -0.4323
    2MOL   H661 1323   1.739   1.666   7.415  0.7321 -1.1489 -1.4413
    2MOL   H662 1324   1.299   0.847   0.221  0.6281 -1.9598 -1.6372
    3MOL     C1 1325   6.597   6.153   2.925 -0.5784  0.1721  0.2411
    3MOL     C2 1326   6.716   6.048   2.935  0.3798  0.6987  0.0152
    3MOL     C3 1327   6.674   5.908   2.993 -0.4076  0.4118 -0.0424
    3MOL     C4 1328   6.738   5.862   3.124 -0.0726 -0.0013  0.6280
    3MOL     C5 1329   6.665   5.741   3.180  0.4879  0.4315  0.6410
    3MOL     C6 1330   6.696   5.687   3.322  0.0426  0.2844  0.1975
    3MOL     C7 1331   6.596   5.573   3.375 -0.2890  0.0934  0.6340
    3MOL     C8 1332   6.599   5.442   3.291 -0.2491  0.1250  0.0921
    3MOL     C9 1333   6.496   5.339   3.320  0.5373  0.1878 -0.0210
    3MOL    C10 1334   6.505   5.276   3.457  0.6179 -0.2053 -0.6609
    3MOL    C11 1335   6.404   5.159   3.475  0.5013 -0.0497 -0.0130
    3MOL    H12 1336   6.518   6.129   2.853 -2.0310  0.5373  1.6796
    3MOL    H13 1337   6.635   6.254   2.912 -2.5916  1.1366  1.6196
    3MOL    H14 1338   6.794   6.089   3.000  0.9638 -0.6303  0.1539
    3MOL    H15 1339   6.672   5.826   2.922  1.9865  0.1985  0.0922
    3MOL    H16 1340   6.570   5.926   3.018 -0.3301  0.9704 -0.1252
    3MOL    H17 1341   6.744   5.939   3.201 -0.9510  0.4959  0.2041
    3MOL    H18 1342   6.838   5.828   3.099 -0.0449  1.6346 -1.6334
    3MOL    H19 1343   6.557   5.754   3.175  0.4678 -0.4207 -2.2501
    3MOL    H20 1344   6.679   5.655   3.114  0.8954  0.5205  0.6078
    3MOL    H21 1345   6.685   5.764   3.398 -2.3196  2.4775 -2.2790
    3MOL    H22 1346   6.797   5.648   3.329 -0.1068  0.2299  2.3639
    3MOL    H23 1347   6.603   5.550   3.481 -1.3715 -0.1876  0.6494
    3MOL    H24 1348   6.495   5.615   3.369 -1.1710 -2.1937 -1.1928
    3MOL    H25 1349   6.699   5.397   3.291  0.0761  0.8414  0.7775
    3MOL    H26 1350   6.589   5.463   3.184 -0.6052  0.6293  0.2272
    3MOL    H27 1351   6.503   5.266   3.240  1.2369  1.0661 -0.7653
    3MOL    H28 1352   6.406   5.395   3.296  0.8328 -0.5983 -3.1382
    3MOL    H29 1353   6.493   5.351   3.535  3.4300  0.6670 -1.0296
    3MOL    H30 1354   6.605   5.234   3.465 -0.2301 -1.8231  2.3818
    3MOL    H31 1355   6.301   5.195   3.479  0.3451  0.1502 -4.1170
    3MOL    H32 1356   6.412   5.085   3.396 -1.2712  1.6380 -1.8154
    3MOL    H33 1357   6.420   5.103   3.567 -0.6154  1.7328  1.3153
    3MOL    H34 1358   6.553   6.157   3.024 -0.5836  0.5919  0.2222
    3MOL    C35 1359   6.784   6.035   2.796 -0.0321 -0.5349  0.1156
    3MOL    C36 1360   6.915   5.949   2.791 -0.3755 -0.1240 -0.3619
    3MOL    C37 1361   6.952   5.900   2.646 -0.3802  0.2913 -0.1596
    3MOL    C38 1362   6.844   5.809   2.570  0.6063 -0.7075  0.5061
    3MOL    C39 1363   6.910   5.727   2.451  0.5021 -0.1375 -0.5472
    3MOL    C40 1364   6.987   5.601   2.500  0.2655 -0.4060  0.8294
    3MOL    C41 1365   7.036   5.508   2.386 -0.2075 -0.0230 -0.2973
    3MOL    C42 1366   7.107   5.382   2.435  0.4921 -0.4640  0.2806
    3MOL    C43 1367   7.093   5.246   2.357 -0.2944  0.3818  0.0744
    3MOL    C44 1368   7.144   5.244   2.212  0.7341 -0.4910  0.0695
    3MOL    C45 1369   7.145   5.101   2.152  0.2544 -0.7442 -0.3393
    3MOL    H46 1370   6.798   6.138   2.764 -0.0802 -0.8502 -0.9330
    3MOL    H47 1371   6.712   5.992   2.726 -2.6688  0.7564  1.9529
    3MOL    H48 1372   6.895   5.856   2.845 -1.5630  0.1880 -0.2488
    3MOL    H49 1373   6.978   5.981   2.578  0.0338 -1.2006 -1.8022
    3MOL    H50 1374   7.047   5.846   2.648  0.3391  1.3975 -2.3446
    3MOL    H51 1375   6.768   5.872   2.525  0.3648 -0.6324  1.0085
    3MOL    H52 1376   6.804   5.746   2.649  0.0165 -1.4480 -0.3770
    3MOL    H53 1377   6.970   5.801   2.398 -1.4546  0.0329 -2.6084
    3MOL    H54 1378   6.830   5.689   2.386 -1.1636  0.3145  1.2031
    3MOL    H55 1379   6.933   5.538   2.571 -1.3282  2.2911  2.1070
    3MOL    H56 1380   7.078   5.629   2.553  0.2721 -1.6805  1.5092
    3MOL    H57 1381   6.952   5.479   2.322  0.1001  0.1435 -0.7806
    3MOL    H58 1382   7.097   5.570   2.321  0.9456  1.1720  1.8762
    3MOL    H59 1383   7.064   5.365   2.533  0.0003  1.9754  0.5306
    3MOL    H60 1384   7.213   5.395   2.458  0.6766 -1.5577  0.0858
    3MOL    H61 1385   6.990   5.212   2.354 -0.1492  0.0365 -1.2195
    3MOL    H62 1386   7.152   5.172   2.413  1.3166  0.8578 -0.9461
    3MOL    H63 1387   7.062   5.289   2.155  0.2948  0.0999  1.1618
    3MOL    H64 1388   7.237   5.298   2.197  0.3162  0.0874 -0.4740
    3MOL    H65 1389   7.056   5.048   2.187  0.0492 -0.8848 -1.0581
    3MOL    H66 1390   7.137   5.104   2.043  0.6805  0.3404 -0.3472
    3MOL    H67 1391   7.231   5.038   2.174 -0.2558 -1.5253 -0.5409
    3MOL    C68 1392   7.031   6.021   2.863  0.4027 -0.1640 -0.0029
    3MOL    C69 1393   7.075   6.160   2.805  0.7799  0.4595  0.1622
    3MOL    C70 1394   7.008   6.277   2.881 -0.2406  0.1227 -0.1469
    3MOL    C71 1395   6.976   6.391   2.772 -0.3314  0.6364 -0.3624
    3MOL    C72 1396   6.938   6.524   2.838 -0.4271  0.1695 -0.1804
    3MOL    C73 1397   6.910   6.638   2.733 -0.4153 -0.2665 -0.7557
    3MOL    C74 1398   7.033   6.684   2.667 -0.5735  0.6462 -0.2036
    3MOL    C75 1399   7.026   6.836   2.622  0.2789 -0.0181 -0.0899
    3MOL    C76 1400   7.170   6.895   2.595  0.1815 -0.3156 -0.2055
    3MOL    C77 1401   7.155   7.035   2.539 -0.0791 -0.1041  0.1219
    3MOL    C78 1402   7.294   7.093   2.494  0.0620 -0.5664  0.0278
    3MOL    H79 1403   7.119   5.956   2.860 -0.0268 -0.8172  1.3663
    3MOL    H80 1404   7.014   6.029   2.970  1.4666  0.8290  0.0972
    3MOL    H81 1405   7.039   6.163   2.702  1.2219 -0.9707 -0.0516
    3MOL    H82 1406   7.076   6.324   2.952  0.6601  1.0491 -1.5795
    3MOL    H83 1407   6.922   6.265   2.946  1.3459  2.0794  2.4044
    3MOL    H84 1408   7.068   6.397   2.714  1.8272 -1.1705  2.7244
    3MOL    H85 1409   6.889   6.357   2.716 -1.9261  1.2969  1.6432
    3MOL    H86 1410   7.026   6.554   2.895 -0.4805 -2.1764  1.1833
    3MOL    H87 1411   6.852   6.517   2.905 -1.4555  1.1946 -1.3386
    3MOL    H88 1412   6.839   6.598   2.660 -1.5073 -0.8423  0.5910
    3MOL    H89 1413   6.863   6.718   2.791 -0.3189 -2.0301  1.8283
    3MOL    H90 1414   7.053   6.624   2.579 -2.2478 -0.1085 -0.0899
    3MOL    H91 1415   7.121   6.661   2.728 -0.2476 -0.3223 -1.0260
    3MOL    H92 1416   6.950   6.846   2.544 -0.3509  0.0519  0.5322
    3MOL    H93 1417   6.995   6.894   2.709  0.6328 -1.1214  0.7814
    3MOL    H94 1418   7.241   6.879   2.677  2.9192 -0.7537 -2.5739
    3MOL    H95 1419   7.212   6.836   2.514 -0.0046 -1.5655  0.6011
    3MOL    H96 1420   7.093   7.028   2.449  2.3454 -2.3810 -1.4454
    3MOL    H97 1421   7.105   7.105   2.607  1.2639  0.8583  0.1299
    3MOL    H98 1422   7.353   7.013   2.448  3.0706  1.7999 -0.3930
    3MOL    H99 1423   7.367   7.134   2.564  0.5147 -0.2722 -0.6069
    3MOL   H100 1424   7.273   7.159   2.409  0.0572  0.4400  0.7960
    3MOL   C101 1425   7.228   6.170   2.818  0.4163 -0.1359  0.0862
    3MOL   C102 1426   7.317   6.094   2.714 -0.7194 -0.4347  0.1568
    3MOL   C103 1427   7.467   6.095   2.766  1.0407 -0.4951 -0.4007
    3MOL   C104 1428   7.490   6.015   2.898  0.2111  0.4725 -0.3165
    3MOL   C105 1429   7.631   5.972   2.918 -0.9397 -0.3989  0.0916
    3MOL   C106 1430   7.646   5.895   3.054  0.1159  0.1131  0.6065
    3MOL   C107 1431   7.645   5.994   3.168 -0.1394 -0.4376 -0.3322
    3MOL   C108 1432   7.649   5.930   3.312  0.2986 -0.3505 -0.1620
    3MOL   C109 1433   7.623   6.029   3.430  0.5972  0.4591  0.3088
    3MOL   C110 1434   0.042   6.101   3.479 -0.7829  0.5208 -0.1995
    3MOL   C111 1435   0.010   6.200   3.587 -0.4096 -0.7300  0.1127
    3MOL   H112 1436   7.258   6.275   2.829  0.4888 -0.3832  2.4128
    3MOL   H113 1437   7.260   6.124   2.911 -1.4175  0.2786  0.9395
    3MOL   H114 1438   7.291   5.989   2.707  1.5475 -1.1256  1.3984
    3MOL   H115 1439   7.534   6.039   2.702  0.7084  1.8217 -2.8646
    3MOL   H116 1440   7.515   6.192   2.779  0.6926 -0.4588  0.7509
    3MOL   H117 1441   7.469   6.084   2.979  1.0241 -1.2542  1.4200
    3MOL   H118 1442   7.425   5.927   2.908  0.4658  0.1912 -1.1207
    3MOL   H119 1443   7.648   5.907   2.832 -0.3318  3.5048 -2.8777
    3MOL   H120 1444   7.701   6.054   2.901 -1.6950  0.1198 -0.5409
    3MOL   H121 1445   7.582   5.807   3.065  0.5417 -0.2365  0.3124
    3MOL   H122 1446   0.039   5.845   3.051  0.9938  1.7017  1.5443
    3MOL   H123 1447   7.568   6.071   3.163  0.2107  0.0314  1.0696
    3MOL   H124 1448   0.033   6.055   3.160 -1.2789  1.3773  0.1360
    3MOL   H125 1449   7.564   5.863   3.296 -0.2960  0.3695 -0.0829
    3MOL   H126 1450   0.028   5.863   3.338 -0.8544 -2.1214 -0.9373
    3MOL   H127 1451   7.552   6.106   3.400  0.4374  0.3733  0.4694
    3MOL   H128 1452   7.565   5.977   3.507  0.9315 -2.2222 -1.1916
    3MOL   H129 1453   0.090   6.155   3.397  1.7137 -1.0570  0.1625
    3MOL   H130 1454   0.118   6.032   3.515 -0.3120  0.4896 -1.2049
    3MOL   H131 1455   7.663   6.156   3.673 -0.1383  0.6938  1.0029
    3MOL   H132 1456   0.097   6.259   3.615 -0.5159  0.4360 -1.9088
    3MOL   H133 1457   7.650   6.280   3.548 -1.6002 -0.6200  2.2074
    3MOL   C134 1458   7.307   6.165   2.579  0.3094 -0.3989  0.3059
    3MOL   C135 1459   7.381   6.101   2.456  0.8351  0.1981 -0.5385
    3MOL   C136 1460   7.446   6.208   2.364 -0.3625  0.0311  1.1596
    3MOL   C137 1461   7.577   6.274   2.423  0.2607 -0.1716  0.2891
    3MOL   C138 1462   7.661   6.335   2.312  0.9440  0.1668  0.1512
    3MOL   C139 1463   0.079   6.426   2.346  0.4939 -0.7388 -0.7291
    3MOL   C140 1464   0.146   6.475   2.220 -0.5394  0.4636 -0.8137
    3MOL   C141 1465   0.216   6.361   2.132 -0.1437 -0.2107 -0.7973
    3MOL   C142 1466   0.295   6.416   2.019 -0.0981 -0.5263  0.0435
    3MOL   C143 1467   0.384   6.315   1.943 -0.1961  0.1477  0.6304
    3MOL   C144 1468   0.476   6.230   2.028  0.6339 -0.1528 -0.0978
    3MOL   H145 1469   7.205   6.190   2.553  0.1233  1.6562  2.8531
    3MOL   H146 1470   7.355   6.259   2.604  1.3193 -0.6981 -0.4520
    3MOL   H147 1471   7.463   6.035   2.485 -0.2819 -0.3768  1.4337
    3MOL   H148 1472   7.375   6.289   2.352  2.5528  2.3133 -1.6385
    3MOL   H149 1473   7.465   6.171   2.264 -0.2385  0.6697  0.9485
    3MOL   H150 1474   7.544   6.362   2.479 -0.9953  0.1504 -0.9581
    3MOL   H151 1475   7.637   6.210   2.488 -0.5567  0.4604  1.7014
    3MOL   H152 1476   7.696   6.246   2.259  0.3486 -1.0239  1.7375
    3MOL   H153 1477   7.592   6.395   2.253  1.6486  0.0877 -0.7835
    3MOL   H154 1478   0.051   6.512   2.406  0.8709 -1.9883  1.3049
    3MOL   H155 1479   0.149   6.365   2.403  1.5588  0.0455 -1.1996
    3MOL   H156 1480   0.084   6.548   2.169 -1.5768 -0.1431 -0.4498
    3MOL   H157 1481   0.236   6.530   2.246 -0.5415  0.1060 -0.0356
    3MOL   H158 1482   0.282   6.299   2.193  1.2474  1.4340 -0.5947
    3MOL   H159 1483   0.127   6.304   2.104 -0.0704 -1.2861  1.1038
    3MOL   H160 1484   0.222   6.459   1.951 -1.5557 -0.1452  1.8198
    3MOL   H161 1485   0.363   6.493   2.054 -1.0107 -0.2974  1.3263
    3MOL   H162 1486   0.316   6.253   1.885  0.3343  0.1258  0.0280
    3MOL   H163 1487   0.446   6.366   1.869  3.1633 -0.4515  2.9377
    3MOL   H164 1488   0.551   6.176   1.969  0.9284 -0.6520  0.7227
    3MOL   H165 1489   0.411   6.159   2.078  0.4090 -0.0308 -0.2181
    3MOL   H166 1490   0.538   6.285   2.099  0.7779 -0.7878  0.2674
    3MOL   C167 1491   7.279   6.015   2.369 -0.1368 -0.0016 -0.0749
    3MOL   C168 1492   7.335   5.908   2.282  0.3029  0.1329 -0.1204
    3MOL   C169 1493   7.223   5.856   2.193  0.7544 -0.1354 -0.0684
    3MOL   C170 1494   7.264   5.758   2.089 -0.1052 -0.6298 -0.4271
    3MOL   C171 1495   7.352   5.811   1.974 -0.1622  0.3279  0.2313
    3MOL   C172 1496   7.335   5.714   1.851 -1.2084 -0.5035  0.1814
    3MOL   C173 1497   7.384   5.777   1.710  0.0206 -0.3987 -0.3011
    3MOL   C174 1498   7.390   5.677   1.594  0.2395  0.2074 -0.1151
    3MOL   C175 1499   7.257   5.621   1.543  0.1088  0.1541  0.1159
    3MOL   C176 1500   7.287   5.497   1.449 -0.0549 -0.6240  0.4640
    3MOL   C177 1501   7.168   5.447   1.353  0.0649  0.7100 -0.0561
    3MOL   H178 1502   7.219   5.961   2.442 -1.5439  2.5881  0.7346
    3MOL   H179 1503   7.204   6.073   2.316  0.1971  1.2943  0.8425
    3MOL   H180 1504   7.414   5.949   2.218  1.5053 -0.4958  0.9208
    3MOL   H181 1505   7.171   5.937   2.141 -0.9901 -2.3318 -1.8459
    3MOL   H182 1506   7.161   5.796   2.259 -1.9308  0.2691 -2.1284
    3MOL   H183 1507   7.305   5.671   2.141 -0.2357 -0.7094 -0.4565
    3MOL   H184 1508   7.168   5.720   2.055 -0.2207 -0.5277 -0.2190
    3MOL   H185 1509   7.454   5.825   2.007 -0.2779  1.8231 -0.0281
    3MOL   H186 1510   7.313   5.911   1.954  0.6006  0.1852 -2.2057
    3MOL   H187 1511   7.377   5.616   1.873  1.4769  0.4381 -0.5445
    3MOL   H188 1512   7.231   5.688   1.833 -1.2338  0.5882 -1.3435
    3MOL   H189 1513   7.480   5.824   1.732  0.4880 -1.0024 -1.0454
    3MOL   H190 1514   7.326   5.865   1.680 -0.5260 -0.9632 -0.9137
    3MOL   H191 1515   7.444   5.707   1.505  1.7237 -1.4125  0.2072
    3MOL   H192 1516   7.460   5.598   1.624  0.1525  0.6221  1.2053
    3MOL   H193 1517   7.196   5.695   1.491 -2.6694 -1.7562  0.5257
    3MOL   H194 1518   7.194   5.586   1.624 -2.6307 -1.7440 -2.7047
    3MOL   H195 1519   7.338   5.414   1.498 -0.9733 -1.3458  0.2107
    3MOL   H196 1520   7.363   5.533   1.379 -1.1818  0.6809 -0.0987
    3MOL   H197 1521   7.205   5.439   1.251  2.3871  2.1219  0.6392
    3MOL   H198 1522   7.086   5.518   1.347 -0.0980  0.4832 -0.5144
    3MOL   H199 1523   7.135   5.347   1.384  1.7113  0.7078  1.7750
    3MOL   C200 1524   7.404   5.789   2.366  0.2674  0.6098  0.2015
    3MOL   C201 1525   7.540   5.745   2.313  0.6576  0.3544  0.8278
    3MOL   C202 1526   7.593   5.611   2.364  0.2837 -0.1203 -0.2320
    3MOL   C203 1527   7.512   5.482   2.331 -0.6030  0.6280 -0.3085
    3MOL   C204 1528   7.607   5.358   2.329 -0.6191 -0.0282 -0.3336
    3MOL   C205 1529   7.530   5.228   2.317 -0.4344 -0.9472  0.6744
    3MOL   C206 1530   7.636   5.114   2.317  0.1379 -0.4912 -0.5214
    3MOL   C207 1531   7.570   4.978   2.344  0.0160 -0.1564  0.0582
    3MOL   C208 1532   7.662   4.854   2.332  0.2385 -0.1371  0.1332
    3MOL   C209 1533   0.004   4.818   2.188  0.0299 -0.2746  0.0991
    3MOL   C210 1534   0.106   4.702   2.186  0.6663 -0.2698 -0.1125
    3MOL   H211 1535   7.401   5.818   2.471  0.4835 -1.7460  0.8829
    3MOL   H212 1536   7.338   5.702   2.362  0.8935  0.1174  0.6647
    3MOL   H213 1537   7.525   5.730   2.206  0.6438  1.8209  0.6202
    3MOL   H214 1538   7.590   5.621   2.473 -0.9903  0.5620 -0.3169
    3MOL   H215 1539   7.697   5.589   2.341  0.0307 -1.5089 -0.0910
    3MOL   H216 1540   7.472   5.494   2.231  3.1284 -0.7381 -2.0870
    3MOL   H217 1541   7.428   5.461   2.397 -0.0711  0.7004  0.3916
    3MOL   H218 1542   7.667   5.356   2.420  0.0689 -0.1378 -0.7849
    3MOL   H219 1543   7.676   5.374   2.246 -0.8826 -2.7399 -1.1141
    3MOL   H220 1544   7.458   5.232   2.399 -0.7769 -1.1121  0.3789
    3MOL   H221 1545   7.474   5.217   2.225 -1.3219  0.4366  1.0440
    3MOL   H222 1546   0.016   5.124   2.386 -1.4843 -2.0865  1.7595
    3MOL   H223 1547   7.685   5.112   2.219  0.2732  1.1046 -0.4991
    3MOL   H224 1548   7.481   4.962   2.283 -0.2521 -0.7854  0.6080
    3MOL   H225 1549   7.540   4.992   2.447  1.0307  0.3133  0.2906
    3MOL   H226 1550   7.609   4.767   2.372  0.3020  0.2275  1.0184
    3MOL   H227 1551   0.046   4.863   2.397  0.4765  0.7959 -0.3089
    3MOL   H228 1552   7.623   4.790   2.125  1.1835 -1.7817 -0.8108
    3MOL   H229 1553   0.054   4.904   2.144 -0.8719 -0.4467 -1.2549
    3MOL   H230 1554   0.190   4.727   2.250 -0.5895 -0.2534  1.5507
    3MOL   H231 1555   0.136   4.690   2.082  1.5932  1.4536 -0.0705
    3MOL   H232 1556   0.058   4.612   2.223  1.3223 -1.3217 -1.7684
    3MOL   C233 1557   7.646   5.852   2.335 -0.1503  0.9089 -0.2552
    3MOL   C234 1558   0.077   5.833   2.256 -0.1608  0.8802 -0.2477
    3MOL   C235 1559   0.157   5.960   2.283 -0.2692 -0.1641 -0.2026
    3MOL   C236 1560   0.175   6.013   2.422  0.2712 -1.1156 -0.6370
    3MOL   C237 1561   0.244   5.911   2.513  0.5312  0.6777  0.8737
    3MOL   C238 1562   0.240   5.957   2.658  0.3215  0.1385  0.2366
    3MOL   C239 1563   0.337   5.892   2.755  0.5301 -0.3331 -0.2684
    3MOL   C240 1564   0.481   5.909   2.711 -0.3681  0.3528 -1.1356
    3MOL   C241 1565   0.589   5.828   2.796  0.1647  0.1130  0.1303
    3MOL   C242 1566   0.730   5.872   2.758 -0.1637 -0.8561 -0.2680
    3MOL   C243 1567   0.832   5.755   2.783  0.1741 -0.3531 -0.3417
    3MOL   H244 1568   7.656   5.854   2.444 -0.8706  2.6815 -0.2101
    3MOL   H245 1569   7.606   5.950   2.310 -0.6896  1.1399  1.4650
    3MOL   H246 1570   0.142   5.749   2.280 -0.3454  0.0355 -2.5358
    3MOL   H247 1571   0.256   5.952   2.238 -0.5799  0.0950 -0.9456
    3MOL   H248 1572   0.106   6.038   2.226 -0.1551 -0.4239 -0.6620
    3MOL   H249 1573   0.078   6.042   2.464  0.7265 -0.4055 -0.0774
    3MOL   H250 1574   0.231   6.106   2.421 -1.7828  0.1675 -3.5084
    3MOL   H251 1575   0.344   5.891   2.472  0.4481  0.4608  0.7746
    3MOL   H252 1576   0.203   5.812   2.494 -0.0181  0.9350  0.7129
    3MOL   H253 1577   0.140   5.957   2.702 -1.3752 -2.2273 -3.3538
    3MOL   H254 1578   0.254   6.065   2.659 -4.0494  0.8114  3.6944
    3MOL   H255 1579   0.323   5.945   2.849  1.3583 -1.4010  0.4578
    3MOL   H256 1580   0.303   5.789   2.758 -1.1575  0.2020 -0.1431
    3MOL   H257 1581   0.501   5.878   2.608  1.1140 -1.9276 -0.1871
    3MOL   H258 1582   0.514   6.012   2.726 -0.8954  0.0337  2.5717
    3MOL   H259 1583   0.575   5.842   2.903 -1.2496  0.4212 -0.0840
    3MOL   H260 1584   0.572   5.723   2.774  1.6721 -0.0293 -0.4260
    3MOL   H261 1585   0.755   5.953   2.826 -2.6175  0.0499 -0.3743
    3MOL   H262 1586   0.730   5.905   2.654  1.9982  1.3297  0.3819
    3MOL   H263 1587   0.813   5.719   2.884 -0.2858 -0.2654 -0.3965
    3MOL   H264 1588   0.930   5.801   2.772  1.9483 -3.3067  2.1665
    3MOL   H265 1589   0.814   5.680   2.706  1.8879 -1.0049 -0.1195
    3MOL   C266 1590   0.051   5.817   2.108 -0.1995 -0.1588  0.3228
    3MOL   C267 1591   0.161   5.830   2.001 -0.0978 -0.2059 -0.3921
    3MOL   C268 1592   0.091   5.857   1.857  0.6432  0.2471 -0.1171
    3MOL   C269 1593   0.200   5.906   1.764  0.1810 -0.1905  0.7379
    3MOL   C270 1594   0.147   6.014   1.663 -0.5064 -0.1482  0.5690
    3MOL   C271 1595   0.260   6.070   1.568 -0.0494 -0.2738 -0.1827
    3MOL   C272 1596   0.301   5.974   1.459 -0.0821 -0.3267 -0.1909
    3MOL   C273 1597   0.209   5.978   1.343 -0.0779 -0.0054  0.0389
    3MOL   C274 1598   0.202   6.114   1.271 -0.4531 -0.2991  0.0929
    3MOL   C275 1599   0.125   6.115   1.137 -0.2268  0.0098 -0.2930
    3MOL   C276 1600   0.130   6.248   1.061  0.0904 -0.2272  0.1795
    3MOL   H277 1601   7.675   5.888   2.080 -0.6408 -0.2132  1.4285
    3MOL   H278 1602   0.010   5.716   2.104 -0.4928 -0.0166 -0.6821
    3MOL   H279 1603   0.216   5.922   2.022 -1.9791  0.6559  0.9147
    3MOL   H280 1604   0.045   5.768   1.815  0.0133  0.7706 -0.5434
    3MOL   H281 1605   0.019   5.937   1.875  0.6854  0.0065  1.1147
    3MOL   H282 1606   0.231   5.824   1.700  0.0799  0.6315 -0.3711
    3MOL   H283 1607   0.294   5.936   1.810 -1.2707  0.9538  3.0426
    3MOL   H284 1608   0.090   6.092   1.715 -0.1995 -0.2059  0.9928
    3MOL   H285 1609   0.077   5.959   1.602  0.2327 -0.4019 -0.0580
    3MOL   H286 1610   0.347   6.090   1.630  0.4735 -1.1721 -0.6133
    3MOL   H287 1611   0.227   6.163   1.521  0.5348  0.2386  0.4169
    3MOL   H288 1612   0.406   5.989   1.434 -0.7149  0.2100 -2.6673
    3MOL   H289 1613   0.315   5.873   1.498 -2.2630 -0.3496  0.5923
    3MOL   H290 1614   0.108   5.949   1.371  0.5340 -3.5011 -1.2028
    3MOL   H291 1615   0.246   5.913   1.264 -0.3829 -1.8953  1.4105
    3MOL   H292 1616   0.144   6.172   1.342 -0.1825 -0.9055  0.8270
    3MOL   H293 1617   0.303   6.150   1.251 -1.3879  1.6113 -1.2923
    3MOL   H294 1618   0.023   6.085   1.163  0.0412 -0.1860  0.5245
    3MOL   H295 1619   0.159   6.039   1.066 -0.4402 -0.6524  0.3045
    3MOL   H296 1620   0.063   6.245   0.975 -0.6996  1.2348  0.7096
    3MOL   H297 1621   0.235   6.273   1.044  0.0871  0.9248  1.7559
    3MOL   H298 1622   0.107   6.335   1.124  0.2206 -0.7781  0.9921
    3MOL   C299 1623   0.262   5.715   1.991  0.1204 -0.4446  0.3567
    3MOL   C300 1624   0.375   5.700   2.093  0.5733 -0.0752 -0.4672
    3MOL   C301 1625   0.483   5.812   2.088 -0.5104 -0.4137  0.4850
    3MOL   C302 1626   0.583   5.823   2.205  0.8490 -0.4154 -0.3280
    3MOL   C303 1627   0.691   5.931   2.171  0.5038  0.0198 -0.4361
    3MOL   C304 1628   0.765   6.002   2.289  0.1705  0.3708 -0.7053
    3MOL   C305 1629   0.655   6.081   2.372  0.0606 -0.6661 -0.0266
    3MOL   C306 1630   0.692   6.209   2.444 -0.3022 -0.9541  0.4412
    3MOL   C307 1631   0.574   6.285   2.511 -0.4495 -0.3273 -0.0156
    3MOL   C308 1632   0.469   6.352   2.414 -0.8736  0.1070 -0.0041
    3MOL   C309 1633   0.540   6.466   2.331  0.2659  0.5765 -1.2064
    3MOL   H310 1634   0.313   5.727   1.896 -3.4747  0.3844 -1.5489
    3MOL   H311 1635   0.212   5.620   1.970  2.5531 -1.3396 -1.6113
    3MOL   H312 1636   0.337   5.716   2.194  0.2153  1.5012 -0.8365
    3MOL   H313 1637   0.536   5.798   1.994  2.7279  1.0654  2.0024
    3MOL   H314 1638   0.439   5.910   2.070  2.3352  0.8694  0.2365
    3MOL   H315 1639   0.531   5.869   2.289  1.3369 -1.8347  0.7701
    3MOL   H316 1640   0.614   5.726   2.241  1.1593 -0.5407 -0.9203
    3MOL   H317 1641   0.764   5.873   2.114  0.5472 -0.1166 -0.2385
    3MOL   H318 1642   0.660   6.003   2.094 -4.2093 -0.2855  1.0174
    3MOL   H319 1643   0.855   6.054   2.258  1.1196 -0.1856  1.0596
    3MOL   H320 1644   0.806   5.927   2.356  0.6395  0.4863 -0.8603
    3MOL   H321 1645   0.572   6.093   2.302 -0.0242  0.2274  0.2202
    3MOL   H322 1646   0.611   6.014   2.446  0.7605  0.2089  1.2120
    3MOL   H323 1647   0.744   6.274   2.374  2.0503 -1.7598  1.3846
    3MOL   H324 1648   0.764   6.170   2.517  1.8309  0.1265 -1.0149
    3MOL   H325 1649   0.630   6.353   2.574  0.7756 -2.2255  0.9872
    3MOL   H326 1650   0.519   6.218   2.577  0.2577 -2.6529 -1.7174
    3MOL   H327 1651   0.384   6.395   2.468  0.5648  2.0580  0.7924
    3MOL   H328 1652   0.426   6.275   2.351  2.0797  0.8258 -3.0256
    3MOL   H329 1653   0.576   6.541   2.401  1.2389 -2.4508  1.6198
    3MOL   H330 1654   0.624   6.427   2.274  0.2256 -0.1822 -0.7406
    3MOL   H331 1655   0.472   6.521   2.265 -0.6887 -0.2886 -0.9554
    3MOL   C332 1656   0.439   5.558   2.086 -0.2105 -0.9705  0.3052
    3MOL   C333 1657   0.358   5.436   2.126  0.4492 -0.6641 -0.7217
    3MOL   C334 1658   0.274   5.453   2.254  0.2691  0.4955 -0.9037
    3MOL   C335 1659   0.346   5.471   2.387  0.0633  0.1611  0.1641
    3MOL   C336 1660   0.247   5.488   2.504 -0.9241  0.4004 -0.5667
    3MOL   C337 1661   0.312   5.497   2.642 -0.1956  0.2702 -0.1185
    3MOL   C338 1662   0.195   5.504   2.743 -0.4554  0.1436 -0.2046
    3MOL   C339 1663   0.251   5.527   2.883 -0.7654 -0.4194  0.0797
    3MOL   C340 1664   0.136   5.530   2.990 -0.2615 -0.4911  0.8371
    3MOL   C341 1665   0.191   5.558   3.129  0.1847  0.0558 -0.1548
    3MOL   C342 1666   0.071   5.556   3.231  0.3826 -0.1888 -0.6382
    3MOL   H343 1667   0.471   5.534   1.985 -0.4591  0.6234 -0.1704
    3MOL   H344 1668   0.530   5.564   2.146  0.0367  1.9549 -0.2674
    3MOL   H345 1669   0.275   5.410   2.060 -0.1616  1.7707 -0.9692
    3MOL   H346 1670   0.196   5.377   2.260  0.0322  0.9238  2.0683
    3MOL   H347 1671   0.216   5.543   2.235 -0.9064 -0.3821 -1.5484
    3MOL   H348 1672   0.418   5.393   2.408  1.0233  0.8497 -0.5200
    3MOL   H349 1673   0.405   5.563   2.391 -0.4836  0.6008 -1.5342
    3MOL   H350 1674   0.185   5.575   2.484  0.9764  2.1712  0.9854
    3MOL   H351 1675   0.186   5.400   2.484 -0.4902  0.3335 -1.6107
    3MOL   H352 1676   0.378   5.584   2.637  0.0059  0.0193 -1.9773
    3MOL   H353 1677   0.371   5.410   2.671 -1.0187 -0.5777 -0.9214
    3MOL   H354 1678   0.143   5.409   2.742 -0.8951  0.3744  1.0410
    3MOL   H355 1679   0.119   5.578   2.715 -0.7397 -0.6638 -1.6421
    3MOL   H356 1680   0.328   5.453   2.905 -1.0661 -0.8875 -0.4285
    3MOL   H357 1681   0.296   5.626   2.891 -0.0591 -0.7869  0.7600
    3MOL   H358 1682   0.091   5.433   2.973  2.5629 -1.3291 -2.5505
    3MOL   H359 1683   0.071   5.608   2.951 -0.2737 -2.0341 -2.4255
    3MOL   H360 1684   0.257   5.642   3.151 -0.1157  0.9816 -2.6390
    3MOL   H361 1685   0.245   5.468   3.161  0.9917  1.0215  1.2948
    3MOL   H362 1686   0.006   5.471   3.209  0.5811 -0.3375 -0.6494
    3MOL   H363 1687   0.113   5.544   3.331 -1.0146  2.1390  0.2690
    3MOL   H364 1688   0.006   5.642   3.216  0.1705 -0.0761  0.8335
    3MOL   C365 1689   0.445   5.308   2.135 -0.6257 -0.2127 -0.6722
    3MOL   C366 1690   0.383   5.163   2.114  0.8033 -0.0934 -0.5594
    3MOL   C367 1691   0.352   5.131   1.967 -1.0061  0.3303  0.4974
    3MOL   C368 1692   0.262   5.009   1.951 -0.4843  0.9547  0.2134
    3MOL   C369 1693   0.251   4.959   1.801  0.2807 -0.5280 -0.2391
    3MOL   C370 1694   0.171   4.827   1.778  0.0928  0.2952 -0.2018
    3MOL   C371 1695   0.152   4.792   1.625  0.1150  0.4225 -0.2557
    3MOL   C372 1696   0.058   4.881   1.546 -0.8799  0.3997 -0.0091
    3MOL   C373 1697   0.050   4.834   1.404  0.3324 -0.0941  0.3098
    3MOL   C374 1698   7.628   4.892   1.330 -0.4348  0.1928 -0.2677
    3MOL   C375 1699   7.628   4.906   1.174  0.2976  0.0033  0.1533
    3MOL   H376 1700   0.529   5.307   2.065  0.2046  0.4400  0.2885
    3MOL   H377 1701   0.491   5.313   2.234  0.2079 -1.9912 -0.9482
    3MOL   H378 1702   0.283   5.157   2.158  1.3313  1.4301  0.9183
    3MOL   H379 1703   0.439   5.117   1.903 -1.2697 -1.9921  0.6028
    3MOL   H380 1704   0.303   5.214   1.918 -2.3638 -0.9575 -0.3706
    3MOL   H381 1705   0.162   5.035   1.984 -0.6468  0.8157 -0.1693
    3MOL   H382 1706   0.299   4.930   2.017 -1.9064 -0.2486 -0.4040
    3MOL   H383 1707   0.351   4.953   1.759  0.9624 -1.1092  1.3964
    3MOL   H384 1708   0.200   5.042   1.752 -0.2412 -0.9464 -0.4148
    3MOL   H385 1709   0.076   4.822   1.831 -0.0015  2.6945 -0.0985
    3MOL   H386 1710   0.227   4.749   1.828  1.3690  0.5614 -1.2013
    3MOL   H387 1711   0.253   4.811   1.587  1.6054  0.4887  3.5470
    3MOL   H388 1712   0.129   4.686   1.612  1.4671  0.3567 -2.5437
    3MOL   H389 1713   0.077   4.987   1.560  0.2395  0.5459 -2.4448
    3MOL   H390 1714   7.662   4.858   1.586 -0.6714 -0.5368 -0.0128
    3MOL   H391 1715   0.142   4.869   1.359  0.0181 -1.6717 -1.6623
    3MOL   H392 1716   0.055   4.725   1.401 -2.0283 -0.2216 -1.1859
    3MOL   H393 1717   7.543   4.831   1.361 -1.5786  3.3472  2.9724
    3MOL   H394 1718   7.604   4.992   1.366  1.9955  1.7524 -2.7822
    3MOL   H395 1719   7.665   4.817   1.124 -1.0559  0.6888 -2.1381
    3MOL   H396 1720   7.700   4.983   1.146  4.5150 -3.4889  0.8592
    3MOL   H397 1721   7.534   4.944   1.134  0.0750 -2.0765 -1.4193
    3MOL   C398 1722   0.468   5.059   2.184 -0.4369  0.2272  0.7169
    3MOL   C399 1723   0.395   4.983   2.300 -0.0506 -0.1058 -0.2947
    3MOL   C400 1724   0.398   5.065   2.432 -0.7722 -0.7300  0.2061
    3MOL   C401 1725   0.320   4.998   2.551  0.5503 -0.6635 -0.1267
    3MOL   C402 1726   0.320   5.099   2.672 -0.0937 -0.0464 -0.4589
    3MOL   C403 1727   0.273   5.035   2.798 -0.3629 -0.1167 -0.8591
    3MOL   C404 1728   0.219   5.135   2.905 -0.1956  0.0385 -0.7992
    3MOL   C405 1729   0.172   5.062   3.040  0.3009 -0.2259  0.4728
    3MOL   C406 1730   0.167   5.163   3.152  0.0213  0.1669 -0.0482
    3MOL   C407 1731   0.103   5.106   3.282  0.4047  0.1844 -0.1492
    3MOL   C408 1732   0.117   5.196   3.409  0.2185 -0.1802 -0.0989
    3MOL   H409 1733   0.570   5.087   2.211 -0.1336  0.1658 -0.3515
    3MOL   H410 1734   0.484   4.974   2.118  0.3296  1.0915 -0.2482
    3MOL   H411 1735   0.289   4.975   2.278 -0.5803  2.1996  1.2114
    3MOL   H412 1736   0.348   5.157   2.402 -2.5107 -1.1900  1.5766
    3MOL   H413 1737   0.500   5.097   2.452 -1.0849  0.6964 -0.4226
    3MOL   H414 1738   0.215   4.973   2.533  0.4639 -1.6247  1.5978
    3MOL   H415 1739   0.370   4.904   2.572 -0.0553 -1.6536 -2.8884
    3MOL   H416 1740   0.421   5.139   2.678 -0.2879  0.3883  0.0146
    3MOL   H417 1741   0.253   5.176   2.633  0.5316  1.3171  1.0703
    3MOL   H418 1742   0.355   4.973   2.835 -0.7187  1.0539  1.9652
    3MOL   H419 1743   0.200   4.955   2.784 -2.6081  1.1799  2.7507
    3MOL   H420 1744   0.288   5.219   2.913 -1.9077  1.2177  2.7955
    3MOL   H421 1745   0.130   5.178   2.858 -0.9176  0.0523  0.5431
    3MOL   H422 1746   0.241   4.981   3.064 -1.1971 -1.1405  1.7060
    3MOL   H423 1747   0.073   5.018   3.028 -0.1301  1.1049 -1.0458
    3MOL   H424 1748   0.270   5.179   3.182  0.0839 -1.9737  0.9940
    3MOL   H425 1749   0.124   5.257   3.118  0.6888  0.9336  1.1962
    3MOL   H426 1750   0.139   5.005   3.303  0.9367  0.5114  0.5195
    3MOL   H427 1751   7.698   5.096   3.268  0.6371  1.6112 -3.2323
    3MOL   H428 1752   0.086   5.134   3.493 -0.3145 -0.8774 -0.8081
    3MOL   H429 1753   0.047   5.280   3.411  0.4654  0.0449 -0.7430
    3MOL   H430 1754   0.217   5.235   3.429  0.1487  0.9044 -1.7785
    3MOL   C431 1755   0.452   4.837   2.315  0.3720 -0.5353 -0.2740
    3MOL   C432 1756   0.606   4.802   2.331  0.2067 -0.0953  0.6033
    3MOL   C433 1757   0.631   4.646   2.321 -0.0354 -0.8725  0.0509
    3MOL   C434 1758   0.623   4.600   2.176  0.7321  0.0104 -0.1345
    3MOL   C435 1759   0.674   4.463   2.140  0.0747  0.1614  0.6689
    3MOL   C436 1760   0.680   4.436   1.992 -0.5548  0.2709  0.8046
    3MOL   C437 1761   0.723   4.289   1.964  0.0152  0.3600  0.3771
    3MOL   C438 1762   0.734   4.257   1.817  0.2447 -0.1101 -0.1478
    3MOL   C439 1763   0.720   4.109   1.794 -0.6300  0.1380 -0.3740
    3MOL   C440 1764   0.676   4.068   1.649 -0.1091  0.0136  0.9222
    3MOL   C441 1765   0.775   4.114   1.540  0.1557  0.0600  0.1853
    3MOL   H442 1766   0.405   4.796   2.225  0.1616 -1.8546  0.4256
    3MOL   H443 1767   0.398   4.779   2.390 -1.5127 -0.6181 -1.6390
    3MOL   H444 1768   0.667   4.851   2.255  1.7809  0.3728  2.1396
    3MOL   H445 1769   0.735   4.625   2.347 -0.1239  0.0806  1.1804
    3MOL   H446 1770   0.559   4.603   2.390 -1.1354 -0.9217 -1.1084
    3MOL   H447 1771   0.682   4.670   2.116  0.7251 -1.4149 -1.8671
    3MOL   H448 1772   0.517   4.608   2.152  0.2527 -0.1243  1.8329
    3MOL   H449 1773   0.595   4.398   2.177 -1.9849  4.0060  3.2411
    3MOL   H450 1774   0.759   4.434   2.202 -0.8792  0.0643  1.9431
    3MOL   H451 1775   0.746   4.510   1.948 -0.1832  0.8263  2.2688
    3MOL   H452 1776   0.587   4.451   1.938  0.2644 -2.7017 -1.5666
    3MOL   H453 1777   0.649   4.225   2.012 -1.2010  0.1475 -1.7456
    3MOL   H454 1778   0.813   4.268   2.022 -0.2025  2.8115  1.6659
    3MOL   H455 1779   0.645   4.307   1.780  1.8474  2.8781 -0.1368
    3MOL   H456 1780   0.827   4.297   1.777  0.3941  0.2469  0.5378
    3MOL   H457 1781   0.659   4.059   1.868  0.5246 -1.4093 -0.4393
    3MOL   H458 1782   0.818   4.077   1.830 -0.2543  1.6913  0.0146
    3MOL   H459 1783   0.575   4.090   1.614 -0.4981 -1.3543  1.1579
    3MOL   H460 1784   0.683   3.959   1.641 -0.7291 -0.1392  2.2616
    3MOL   H461 1785   0.878   4.081   1.556  0.2135 -0.6960 -1.6574
    3MOL   H462 1786   0.755   4.083   1.438  0.0781  0.5288  0.0548
    3MOL   H463 1787   0.794   4.221   1.550 -0.3295  0.1515  0.1546
    3MOL   C464 1788   0.655   4.861   2.470  1.2285 -0.0568 -0.2704
    3MOL   C465 1789   0.788   4.802   2.543 -0.7810 -0.4022  0.4636
    3MOL   C466 1790   0.910   4.812   2.453  0.3909  0.0576  0.3429
    3MOL   C467 1791   1.037   4.733   2.486  0.1526  0.0698 -0.5935
    3MOL   C468 1792   1.039   4.591   2.437  0.5971 -0.8679  0.2413
    3MOL   C469 1793   1.171   4.505   2.451 -0.5192  0.4613 -0.0330
    3MOL   C470 1794   1.276   4.556   2.349  0.5392 -0.6394 -0.7332
    3MOL   C471 1795   1.389   4.460   2.338  0.5585  0.4376  0.8959
    3MOL   C472 1796   1.499   4.499   2.240  0.0267  0.3343  0.0994
    3MOL   C473 1797   1.589   4.618   2.280  0.2731  0.5567 -0.1598
    3MOL   C474 1798   1.711   4.633   2.187  0.2150  0.6210  0.1553
    3MOL   H475 1799   0.569   4.842   2.535  0.6350 -0.0437 -1.0333
    3MOL   H476 1800   0.667   4.970   2.468  1.5089 -0.0742  0.4956
    3MOL   H477 1801   0.771   4.695   2.557  1.4643 -1.2416 -2.6598
    3MOL   H478 1802   0.934   4.918   2.458 -1.0990  0.4644 -0.5154
    3MOL   H479 1803   0.877   4.788   2.351  0.9944 -0.1910  0.2045
    3MOL   H480 1804   1.112   4.785   2.426  1.3325 -1.2312 -0.2743
    3MOL   H481 1805   1.062   4.730   2.592 -0.3143 -1.7949 -0.5018
    3MOL   H482 1806   1.015   4.596   2.331  2.0349 -3.4218 -0.2390
    3MOL   H483 1807   0.959   4.541   2.490 -0.9072 -0.1419 -1.2938
    3MOL   H484 1808   1.208   4.513   2.554  0.6411  4.4367 -0.6991
    3MOL   H485 1809   1.130   4.404   2.438  0.5690 -0.1220  0.9281
    3MOL   H486 1810   1.233   4.574   2.251  1.8404  0.3028 -1.1409
    3MOL   H487 1811   1.317   4.653   2.376 -1.8815  0.8434 -2.1313
    3MOL   H488 1812   1.434   4.441   2.435  0.1827  3.3119  1.6877
    3MOL   H489 1813   1.356   4.362   2.301 -0.4401  0.9427  0.4020
    3MOL   H490 1814   1.555   4.406   2.239  0.8742  0.8154  1.3622
    3MOL   H491 1815   1.471   4.519   2.136 -0.9268 -0.1769  0.2508
    3MOL   H492 1816   1.522   4.704   2.277  1.4577  1.4736 -1.0821
    3MOL   H493 1817   1.624   4.618   2.384  1.0585 -1.4684 -0.3971
    3MOL   H494 1818   1.692   4.649   2.081  1.7030  0.1618 -0.1909
    3MOL   H495 1819   1.775   4.545   2.182  0.0171  0.4445  0.6792
    3MOL   H496 1820   1.770   4.722   2.209 -2.3294  1.7529  2.8777
    3MOL   C497 1821   0.805   4.864   2.683  0.1844  0.6536  0.7398
    3MOL   C498 1822   0.701   4.819   2.795 -0.7789 -0.8493 -0.5427
    3MOL   C499 1823   0.746   4.881   2.929  0.3746 -0.1429 -0.0211
    3MOL   C500 1824   0.634   4.872   3.031 -0.2029 -0.0384  0.4131
    3MOL   C501 1825   0.660   4.946   3.159  0.0868  0.2603 -0.2016
    3MOL   C502 1826   0.541   4.933   3.257  0.0685  1.0783 -0.1506
    3MOL   C503 1827   0.575   4.993   3.395  0.4233 -0.4553 -0.7821
    3MOL   C504 1828   0.459   4.981   3.491  0.5258  0.7090  0.4378
    3MOL   C505 1829   0.488   5.020   3.638 -0.1612  0.0742  0.2991
    3MOL   C506 1830   0.354   5.042   3.717  0.2110  0.6823  0.1725
    3MOL   C507 1831   0.371   5.034   3.866  0.2583 -0.7617 -0.6689
    3MOL   H508 1832   0.906   4.850   2.721  1.7901  2.4576 -2.6292
    3MOL   H509 1833   0.802   4.973   2.675 -3.3474  0.4711 -1.5983
    3MOL   H510 1834   0.606   4.857   2.756 -0.3752  1.6085  0.7796
    3MOL   H511 1835   0.778   4.984   2.913 -2.0361  0.6654  0.0783
    3MOL   H512 1836   0.839   4.839   2.967  0.1188  2.2338  3.5605
    3MOL   H513 1837   0.608   4.767   3.045  0.6313 -0.3369 -0.2430
    3MOL   H514 1838   0.550   4.922   2.983 -0.7593  0.3215  1.7220
    3MOL   H515 1839   0.747   4.902   3.207 -0.3833 -0.6080 -0.1497
    3MOL   H516 1840   0.679   5.052   3.138  0.1025  0.1929 -0.5332
    3MOL   H517 1841   0.451   4.965   3.205  0.6329 -1.9610 -3.1872
    3MOL   H518 1842   0.525   4.825   3.269  2.1844  0.6922 -0.5696
    3MOL   H519 1843   0.660   4.946   3.444  1.3643  0.7720 -1.2332
    3MOL   H520 1844   0.596   5.099   3.384  0.6323 -0.1616  1.9429
    3MOL   H521 1845   0.422   4.879   3.501 -0.2623  0.8982 -0.5094
    3MOL   H522 1846   0.385   5.046   3.445 -1.8825 -2.7505 -0.7910
    3MOL   H523 1847   0.541   5.115   3.631 -0.4552  0.1951 -0.2975
    3MOL   H524 1848   0.558   4.950   3.683  1.8252  1.9286  0.1865
    3MOL   H525 1849   0.286   4.958   3.696  0.9433  0.7293 -2.5144
    3MOL   H526 1850   0.299   5.126   3.674  0.5224  2.0620  2.4115
    3MOL   H527 1851   0.280   5.022   3.924  1.0874  0.8167  0.9853
    3MOL   H528 1852   0.421   5.126   3.896 -0.7559 -0.4049 -0.0491
    3MOL   H529 1853   0.432   4.948   3.894  0.6265 -0.2630  0.0626
    3MOL   C530 1854   0.692   4.669   2.818  0.1543 -0.2341 -0.1593
    3MOL   C531 1855   0.552   4.610   2.828 -1.1227  1.1140  0.1803
    3MOL   C532 1856   0.558   4.467   2.895  0.3159 -0.8381 -0.0620
    3MOL   C533 1857   0.620   4.454   3.039  0.1192 -0.1621 -0.4170
    3MOL   C534 1858   0.618   4.308   3.089 -0.2294  0.1085 -0.5850
    3MOL   C535 1859   0.684   4.281   3.217 -0.8184 -0.1546  0.2204
    3MOL   C536 1860   0.603   4.308   3.344  0.6871 -0.3355  0.5186
    3MOL   C537 1861   0.667   4.226   3.471 -0.2459 -0.0320 -0.3635
    3MOL   C538 1862   0.578   4.228   3.599 -0.2360 -0.5020  0.1395
    3MOL   C539 1863   0.620   4.142   3.713  0.4762 -0.3380  0.0171
    3MOL   C540 1864   0.520   4.161   3.827 -0.0600 -0.0661 -0.2920
    3MOL   H541 1865   0.761   4.616   2.752  0.4076 -1.0361  0.7427
    3MOL   H542 1866   0.744   4.648   2.911  2.3886  1.7986 -0.9027
    3MOL   H543 1867   0.502   4.682   2.893 -2.1645  1.0258 -0.5107
    3MOL   H544 1868   0.590   4.392   2.823 -0.4157  0.2402 -1.5340
    3MOL   H545 1869   0.454   4.445   2.916  0.8117 -4.4992 -1.2074
    3MOL   H546 1870   0.559   4.518   3.102  1.4155  1.4179 -0.7088
    3MOL   H547 1871   0.718   4.500   3.057 -0.2316  0.0426  1.0167
    3MOL   H548 1872   0.664   4.245   3.013 -0.4114 -2.0061  1.0074
    3MOL   H549 1873   0.513   4.281   3.103 -1.1368  3.1859 -1.2426
    3MOL   H550 1874   0.767   4.351   3.224 -0.4690 -0.6204  0.8064
    3MOL   H551 1875   0.730   4.182   3.212  1.8079  1.1473 -1.7504
    3MOL   H552 1876   0.497   4.289   3.330  0.3498  0.2434  2.1005
    3MOL   H553 1877   0.614   4.416   3.358  1.0153 -0.1118 -1.3603
    3MOL   H554 1878   0.766   4.268   3.489  0.9985 -2.5015 -1.3365
    3MOL   H555 1879   0.677   4.119   3.453 -2.1658 -0.5598  1.5664
    3MOL   H556 1880   0.475   4.197   3.578  0.5940 -2.0799 -1.7005
    3MOL   H557 1881   0.573   4.329   3.642 -0.9741  0.3427 -1.8653
    3MOL   H558 1882   0.721   4.159   3.751  0.4261 -0.3760  0.1674
    3MOL   H559 1883   0.621   4.036   3.689  2.0135 -0.0220 -1.4057
    3MOL   H560 1884   0.417   4.144   3.793 -0.8906 -0.9487  2.5325
    3MOL   H561 1885   0.539   4.095   3.911 -1.2947  0.9855  0.8395
    3MOL   H562 1886   0.510   4.262   3.866  1.9398  0.3997 -0.9201
    3MOL   C563 1887   0.469   4.614   2.693  0.3740  0.0400  0.2096
    3MOL   C564 1888   0.320   4.569   2.702  0.1886  0.2360 -0.6871
    3MOL   C565 1889   0.253   4.547   2.563 -0.4252  0.2794  0.5686
    3MOL   C566 1890   0.314   4.420   2.492  0.6482  0.7703 -0.2653
    3MOL   C567 1891   0.267   4.396   2.345  0.8059 -0.0337 -0.4588
    3MOL   C568 1892   0.317   4.269   2.278 -0.1178 -0.0112 -0.0151
    3MOL   C569 1893   0.282   4.247   2.125  0.1514 -0.5144 -0.1864
    3MOL   C570 1894   0.352   4.118   2.078 -0.0851 -0.3503 -0.1570
    3MOL   C571 1895   0.343   4.107   1.928 -0.3673 -0.1724  0.0777
    3MOL   C572 1896   0.337   3.972   1.864  0.3505  0.3803  0.6927
    3MOL   C573 1897   0.280   3.967   1.723  0.0739 -0.2644 -0.4797
    3MOL   H574 1898   0.519   4.559   2.613  0.4054  1.2056 -0.5870
    3MOL   H575 1899   0.467   4.716   2.654 -0.3243 -0.1361 -0.2263
    3MOL   H576 1900   0.305   4.476   2.757 -0.5807  1.7527  1.7826
    3MOL   H577 1901   0.278   4.634   2.503 -1.0291  0.5453  0.6973
    3MOL   H578 1902   0.144   4.540   2.566 -0.6239  1.6542 -2.0352
    3MOL   H579 1903   0.270   4.329   2.533  0.3793  1.5285  1.1484
    3MOL   H580 1904   0.423   4.424   2.488  0.7546 -2.1718 -1.6775
    3MOL   H581 1905   0.297   4.486   2.292 -2.2957  0.9100 -0.6887
    3MOL   H582 1906   0.159   4.397   2.352  0.8924  0.0133  1.1359
    3MOL   H583 1907   0.424   4.284   2.288  0.0586 -1.4972  0.4111
    3MOL   H584 1908   0.285   4.187   2.342 -1.9822  1.1344  0.5768
    3MOL   H585 1909   0.175   4.244   2.105 -0.1784 -1.1214  1.5489
    3MOL   H586 1910   0.318   4.335   2.072  1.1977 -0.3428  0.7862
    3MOL   H587 1911   0.300   4.031   2.118  0.1647 -0.7595 -0.7170
    3MOL   H588 1912   0.459   4.107   2.095 -1.0572 -4.6175  4.6667
    3MOL   H589 1913   0.404   4.173   1.867  1.3637 -1.8730 -0.0709
    3MOL   H590 1914   0.246   4.145   1.898 -0.6278 -0.0527  1.0627
    3MOL   H591 1915   0.277   3.919   1.939 -0.1678  1.8895  1.3662
    3MOL   H592 1916   0.438   3.934   1.853 -0.2490 -1.0265 -0.2282
    3MOL   H593 1917   0.326   4.043   1.659 -1.7350  0.2611 -1.1920
    3MOL   H594 1918   0.307   3.868   1.686 -0.7711 -0.6929  0.0298
    3MOL   H595 1919   0.173   3.986   1.724  0.2514  0.8421 -1.5835
    3MOL   C596 1920   0.233   4.674   2.775 -0.7892 -0.3337 -0.1933
    3MOL   C597 1921   0.115   4.605   2.839 -0.7501 -0.0383 -0.2906
    3MOL   C598 1922   0.005   4.708   2.862  0.1738 -0.1894  0.5674
    3MOL   C599 1923   7.605   4.721   2.750 -0.1523  0.0753 -0.6729
    3MOL   C600 1924   7.506   4.839   2.752  0.3607  0.4203 -0.1716
    3MOL   C601 1925   7.571   4.979   2.756 -0.6157  0.4555  0.3533
    3MOL   C602 1926   7.479   5.097   2.749  0.5747 -0.0674 -0.2770
    3MOL   C603 1927   7.545   5.237   2.760 -0.2262  0.5929  0.2049
    3MOL   C604 1928   7.445   5.347   2.714  0.4097 -0.2989  0.6579
    3MOL   C605 1929   7.501   5.488   2.726  0.1958 -0.4481  0.3163
    3MOL   C606 1930   7.399   5.592   2.680 -0.7468 -0.0074 -0.5004
    3MOL   H607 1931   0.285   4.732   2.852  0.5274 -2.0623  0.2729
    3MOL   H608 1932   0.193   4.747   2.706 -0.7806  0.1263  0.2832
    3MOL   H609 1933   0.071   4.538   2.765 -2.5646  1.6585 -0.7965
    3MOL   H610 1934   0.043   4.806   2.893 -1.8968  1.1781 -1.0761
    3MOL   H611 1935   7.647   4.677   2.947  0.7408  1.3519  1.5562
    3MOL   H612 1936   7.544   4.631   2.748 -0.1234  0.0838 -2.0000
    3MOL   H613 1937   7.647   4.713   2.650 -1.5063 -0.3020 -1.2086
    3MOL   H614 1938   7.432   4.835   2.832 -0.4545 -0.2139 -0.9575
    3MOL   H615 1939   7.433   4.828   2.672 -1.6229  1.4117  1.4358
    3MOL   H616 1940   7.639   4.984   2.841 -0.3243  1.7456  0.0512
    3MOL   H617 1941   7.639   4.997   2.673 -0.1587  1.7263  0.9920
    3MOL   H618 1942   7.415   5.090   2.837  0.8631  1.2634  0.0430
    3MOL   H619 1943   7.409   5.092   2.665  0.5625 -0.1322 -0.2628
    3MOL   H620 1944   7.634   5.247   2.699  0.5808  1.2127  1.4584
    3MOL   H621 1945   7.582   5.261   2.860  1.7318 -0.7080 -0.2002
    3MOL   H622 1946   7.443   5.334   2.605  2.0815  0.8895  0.4660
    3MOL   H623 1947   7.358   5.332   2.778 -0.0507 -0.7900 -0.0697
    3MOL   H624 1948   7.599   5.494   2.678 -0.0729 -2.7624 -0.5878
    3MOL   H625 1949   7.516   5.501   2.833 -1.4620  1.8015  0.3109
    3MOL   H626 1950   7.430   5.696   2.688  1.0044 -0.5860  0.7217
    3MOL   H627 1951   7.369   5.567   2.579  0.0030  1.1308 -1.0142
    3MOL   H628 1952   7.313   5.576   2.745 -1.8996 -0.9744 -2.2345
    3MOL   C629 1953   0.145   4.526   2.970  0.3544 -0.3373  0.1493
    3MOL   C630 1954   0.229   4.600   3.077  0.2858 -0.4023  0.6894
    3MOL   C631 1955   0.207   4.547   3.220 -0.1729  0.5280 -0.5102
    3MOL   C632 1956   0.281   4.641   3.313  0.2911  0.2419 -0.6429
    3MOL   C633 1957   0.276   4.592   3.457  0.0236 -1.4378 -0.4963
    3MOL   C634 1958   0.143   4.618   3.536 -0.1167  0.1029 -0.2838
    3MOL   C635 1959   0.078   4.755   3.516 -0.1967  0.2931  0.4086
    3MOL   C636 1960   7.646   4.777   3.580  0.9619 -0.1255  0.4623
    3MOL   C637 1961   7.595   4.925   3.589 -0.0869 -0.6237 -0.1982
    3MOL   C638 1962   7.452   4.929   3.644  0.3294 -0.0940 -0.3726
    3MOL   C639 1963   7.386   5.076   3.629  0.0958  0.4324 -0.3166
    3MOL   H640 1964   0.050   4.494   3.014 -0.6389  1.2902 -0.7901
    3MOL   H641 1965   0.187   4.429   2.942  1.5048 -0.1545  1.1807
    3MOL   H642 1966   0.331   4.601   3.038  0.3719  2.0735  0.8735
    3MOL   H643 1967   0.099   4.541   3.238  0.3973 -0.3957  3.0135
    3MOL   H644 1968   0.254   4.450   3.236  1.1528  0.6976 -3.1035
    3MOL   H645 1969   0.254   4.746   3.298  1.3024  0.3552 -1.7983
    3MOL   H646 1970   0.384   4.649   3.279 -0.0263  0.6612 -1.5483
    3MOL   H647 1971   0.349   4.649   3.514  1.7922 -1.7430 -2.4196
    3MOL   H648 1972   0.300   4.487   3.468  0.1763 -1.1811  1.8250
    3MOL   H649 1973   0.147   4.622   3.644 -1.7957 -1.7815 -0.1259
    3MOL   H650 1974   0.065   4.548   3.508  0.1283 -0.0648 -0.5453
    3MOL   H651 1975   0.072   4.781   3.410  1.7652 -1.9115 -0.2759
    3MOL   H652 1976   0.154   4.825   3.549 -0.1644  0.9949 -1.0723
    3MOL   H653 1977   7.643   4.734   3.680  2.3523 -0.1826  0.4788
    3MOL   H654 1978   7.576   4.720   3.519  1.2607  0.3184 -0.2948
    3MOL   H655 1979   7.605   4.961   3.486  2.2037  0.5258  0.4025
    3MOL   H656 1980   7.662   4.972   3.660  0.6168  0.9209 -1.8462
    3MOL   H657 1981   7.453   4.919   3.753  0.9847  2.1743 -0.1417
    3MOL   H658 1982   7.379   4.859   3.605  0.1817  1.2739 -2.6079
    3MOL   H659 1983   7.282   5.074   3.663  0.1033 -1.9709 -0.3263
    3MOL   H660 1984   7.394   5.104   3.524  1.0959 -0.8793 -0.6061
    3MOL   H661 1985   7.435   5.149   3.694 -2.5533 -0.1337  2.4328
    3MOL   H662 1986   0.185   4.699   3.079 -1.1033 -0.9983  0.0283
    4MOL     C1 1987   4.339   4.458   4.230  0.0141  0.4122  0.3034
    4MOL     C2 1988   4.324   4.341   4.331  0.4126 -0.2249 -0.8952
    4MOL     C3 1989   4.391   4.366   4.468  0.0606  0.3159 -0.1217
    4MOL     C4 1990   4.542   4.405   4.467  0.3053 -0.2594  0.4217
    4MOL     C5 1991   4.622   4.396   4.593 -0.5897  0.3056  0.3127
    4MOL     C6 1992   4.767   4.439   4.587  0.3569  0.5334 -0.4721
    4MOL     C7 1993   4.837   4.442   4.724  0.8843  0.1148  1.0893
    4MOL     C8 1994   4.980   4.470   4.715 -0.3981 -0.2896 -0.2020
    4MOL     C9 1995   5.053   4.489   4.850  0.0669  0.1574 -0.0144
    4MOL    C10 1996   5.067   4.356   4.932 -0.5013  0.1690  0.1745
    4MOL    C11 1997   4.977   4.366   5.062 -0.0341  0.2316 -0.1134
    4MOL    H12 1998   4.308   4.553   4.273  0.7128 -0.2632  2.3765
    4MOL    H13 1999   4.289   4.441   4.134 -0.8884 -0.1396  0.8669
    4MOL    H14 2000   4.364   4.248   4.291 -0.1531 -0.9124  0.1240
    4MOL    H15 2001   4.395   4.275   4.528 -1.7204  0.8102  0.7925
    4MOL    H16 2002   4.338   4.435   4.533 -0.4331 -0.3847  0.2238
    4MOL    H17 2003   4.557   4.506   4.427 -0.9800 -0.6068 -0.9832
    4MOL    H18 2004   4.586   4.343   4.389  2.3692  0.6540  0.8385
    4MOL    H19 2005   4.568   4.454   4.669  0.8737 -0.1397  1.7220
    4MOL    H20 2006   4.625   4.294   4.632  0.8662  0.0740 -0.3753
    4MOL    H21 2007   4.777   4.543   4.555 -0.0111  0.8481  0.3949
    4MOL    H22 2008   4.838   4.383   4.527  0.6604  0.8254 -0.3830
    4MOL    H23 2009   4.788   4.511   4.793 -2.1904  1.2562 -2.0734
    4MOL    H24 2010   4.830   4.343   4.768  3.7485 -1.6280 -2.2006
    4MOL    H25 2011   4.996   4.558   4.653  0.3927 -0.5618 -0.3917
    4MOL    H26 2012   5.026   4.385   4.666  0.2660  0.6356 -1.2141
    4MOL    H27 2013   5.007   4.575   4.899  1.6554  1.2146 -0.3160
    4MOL    H28 2014   5.154   4.517   4.819 -1.0579  1.4558 -2.6420
    4MOL    H29 2015   5.173   4.346   4.955 -0.6156  0.4546  0.8439
    4MOL    H30 2016   5.044   4.267   4.874 -1.9967  1.5457 -1.4087
    4MOL    H31 2017   4.872   4.386   5.043 -0.1307 -1.5466 -1.5611
    4MOL    H32 2018   4.992   4.279   5.126  0.9630  0.1670 -0.4220
    4MOL    H33 2019   5.015   4.443   5.130 -3.1108  0.8139  1.0394
    4MOL    H34 2020   4.444   4.471   4.201  0.1086 -2.2198 -0.7245
    4MOL    C35 2021   4.175   4.316   4.341 -0.6331  0.7071 -0.3092
    4MOL    C36 2022   4.140   4.168   4.358  0.2889 -0.0688 -0.0517
    4MOL    C37 2023   3.996   4.137   4.412 -0.2233 -0.6396 -0.4793
    4MOL    C38 2024   3.875   4.217   4.356 -0.4701 -0.6648 -0.3579
    4MOL    C39 2025   3.738   4.162   4.389 -0.6218  0.1156  0.0795
    4MOL    C40 2026   3.712   4.025   4.345  0.6517  0.0749  0.0535
    4MOL    C41 2027   3.732   4.012   4.194 -0.7518 -0.7703 -0.0158
    4MOL    C42 2028   3.693   3.883   4.123 -0.5680 -0.3373  0.2940
    4MOL    C43 2029   3.672   3.916   3.975 -0.2895  0.2442 -0.0514
    4MOL    C44 2030   3.674   3.794   3.890  0.2223 -0.6954  0.2120
    4MOL    C45 2031   3.687   3.809   3.737 -0.2063  0.4632 -0.0089
    4MOL    H46 2032   4.122   4.339   4.248 -1.1155 -0.0925 -0.2324
    4MOL    H47 2033   4.136   4.382   4.419  1.0552  0.9187  0.3788
    4MOL    H48 2034   4.200   4.131   4.441  0.8754 -0.0558 -0.4759
    4MOL    H49 2035   3.984   4.029   4.406 -0.2627 -0.6415 -0.3793
    4MOL    H50 2036   3.999   4.168   4.517  1.6528  1.9411 -1.2501
    4MOL    H51 2037   3.893   4.245   4.252 -0.6588  1.5097  0.1593
    4MOL    H52 2038   3.876   4.309   4.414 -0.8806 -1.3233  0.7002
    4MOL    H53 2039   3.673   4.246   4.362  0.2685  0.7711 -0.0336
    4MOL    H54 2040   3.710   4.152   4.494  0.5353 -1.6046  0.2328
    4MOL    H55 2041   3.612   3.993   4.373  0.7262  1.2606  1.6885
    4MOL    H56 2042   3.776   3.956   4.399 -1.7503 -1.8937  0.4892
    4MOL    H57 2043   3.683   4.090   4.137 -0.6633 -0.8625 -0.2185
    4MOL    H58 2044   3.838   4.035   4.181 -1.3222  2.0715  0.1015
    4MOL    H59 2045   3.602   3.842   4.165 -0.5361  0.7936  1.4980
    4MOL    H60 2046   3.775   3.812   4.131  0.5944  1.1955  2.7503
    4MOL    H61 2047   3.754   3.979   3.941  1.6033 -0.9061  2.2387
    4MOL    H62 2048   3.575   3.963   3.961 -1.0238 -1.6091 -1.4605
    4MOL    H63 2049   3.753   3.730   3.929  0.1175 -0.3029  1.0696
    4MOL    H64 2050   3.582   3.736   3.901 -0.0055 -0.4852 -0.5613
    4MOL    H65 2051   3.587   3.837   3.704 -0.2997  0.7106  0.4938
    4MOL    H66 2052   3.763   3.880   3.706  0.9384 -0.7517 -0.0167
    4MOL    H67 2053   3.716   3.716   3.688 -1.1415 -0.0606  0.4091
    4MOL    C68 2054   4.165   4.089   4.226 -0.2348 -0.4425 -0.2965
    4MOL    C69 2055   4.198   3.937   4.239  0.1197 -0.1515  0.4607
    4MOL    C70 2056   4.150   3.857   4.119 -0.4527  0.2524 -0.4422
    4MOL    C71 2057   4.200   3.903   3.987  0.0410  0.2558 -1.0314
    4MOL    C72 2058   4.117   3.844   3.873  0.1811 -0.2015 -0.2332
    4MOL    C73 2059   4.169   3.872   3.735  0.6821 -0.0871 -0.1256
    4MOL    C74 2060   4.082   3.805   3.629 -0.0099  0.2110  0.3715
    4MOL    C75 2061   4.039   3.655   3.658  0.1859  0.1191 -0.5634
    4MOL    C76 2062   4.003   3.575   3.534 -0.5315  0.4100  0.7568
    4MOL    C77 2063   3.918   3.446   3.571 -0.3261  0.1241  0.8906
    4MOL    C78 2064   3.891   3.374   3.438  0.1075 -0.4348  0.4822
    4MOL    H79 2065   4.250   4.125   4.168 -1.8927 -0.0934 -2.5282
    4MOL    H80 2066   4.077   4.114   4.168 -1.7351  0.5245  2.3311
    4MOL    H81 2067   4.143   3.896   4.324 -0.7230  2.3093  1.1439
    4MOL    H82 2068   4.041   3.863   4.122 -0.4437  0.0271  0.5658
    4MOL    H83 2069   4.175   3.751   4.116  1.3150  0.6566 -0.3045
    4MOL    H84 2070   4.181   4.009   3.973  0.9389  0.4382 -0.8802
    4MOL    H85 2071   4.307   3.881   3.980  0.7319  1.9646  3.0986
    4MOL    H86 2072   4.015   3.883   3.879  1.0924  2.2041  0.0921
    4MOL    H87 2073   4.105   3.738   3.897 -0.7477 -0.2383 -0.8205
    4MOL    H88 2074   4.175   3.979   3.718  2.0196 -0.4331 -2.0526
    4MOL    H89 2075   4.268   3.829   3.719 -0.2468 -1.9532 -1.0124
    4MOL    H90 2076   4.119   3.828   3.529 -0.9187  2.7107  0.5678
    4MOL    H91 2077   3.997   3.873   3.633  0.2494  0.5476  0.1459
    4MOL    H92 2078   4.113   3.596   3.712 -0.4694 -1.4724 -1.3877
    4MOL    H93 2079   3.952   3.652   3.723  1.6848 -0.1956  1.4478
    4MOL    H94 2080   3.938   3.634   3.469  1.2834  0.5363 -0.9987
    4MOL    H95 2081   4.090   3.551   3.472 -0.3494  3.6217 -0.3417
    4MOL    H96 2082   3.981   3.384   3.635 -0.6585 -3.4832 -2.0605
    4MOL    H97 2083   3.829   3.472   3.628 -1.3743 -0.3524 -0.5013
    4MOL    H98 2084   3.963   3.375   3.357  2.4484 -0.6795  2.5073
    4MOL    H99 2085   3.796   3.408   3.398  0.2596 -0.3577  0.1935
    4MOL   H100 2086   3.872   3.267   3.449  0.9269 -0.7629 -1.1821
    4MOL   C101 2087   4.353   3.896   4.265  0.5703 -0.1278  0.1108
    4MOL   C102 2088   4.401   3.889   4.412 -0.0756  0.0574  0.7447
    4MOL   C103 2089   4.555   3.888   4.418 -0.3883 -0.0204 -0.0574
    4MOL   C104 2090   4.628   4.020   4.457 -0.6136  0.0809 -1.0459
    4MOL   C105 2091   4.762   3.972   4.524 -0.0296  0.2725 -0.1650
    4MOL   C106 2092   4.856   4.080   4.584 -0.1585 -0.2828  0.0643
    4MOL   C107 2093   4.986   4.026   4.638  0.3193 -0.2271 -0.6245
    4MOL   C108 2094   5.097   4.009   4.534 -0.1430 -0.2777 -0.4612
    4MOL   C109 2095   5.219   3.935   4.586  0.3571  0.1246 -0.0702
    4MOL   C110 2096   5.208   3.784   4.602  0.2313 -0.6186 -0.1421
    4MOL   C111 2097   5.342   3.709   4.636  0.3817 -0.9503  0.0444
    4MOL   H112 2098   4.387   3.808   4.211  0.9067  0.0939 -0.0397
    4MOL   H113 2099   4.425   3.969   4.227 -0.6267  0.4965 -0.9993
    4MOL   H114 2100   4.363   3.973   4.470 -0.0869  1.4562 -1.2646
    4MOL   H115 2101   4.571   3.814   4.497  0.7112 -0.6908 -0.8944
    4MOL   H116 2102   4.604   3.849   4.329 -0.1847  2.5921 -1.1534
    4MOL   H117 2103   4.650   4.078   4.367 -2.6822  1.1369 -0.8872
    4MOL   H118 2104   4.575   4.085   4.527  0.2465 -0.7028  0.3505
    4MOL   H119 2105   4.730   3.908   4.606 -1.2054  1.7248  0.5256
    4MOL   H120 2106   4.816   3.907   4.454 -0.3793  0.8284 -0.9467
    4MOL   H121 2107   4.881   4.161   4.515 -0.1343 -0.2900  0.0633
    4MOL   H122 2108   4.797   4.129   4.662 -0.5651  0.5112 -0.7284
    4MOL   H123 2109   4.968   3.930   4.687  0.9793  0.0851  0.2434
    4MOL   H124 2110   5.028   4.084   4.721 -2.3819  1.9771 -0.7430
    4MOL   H125 2111   5.064   3.968   4.439  0.7547  3.3745 -2.4466
    4MOL   H126 2112   5.125   4.108   4.498 -0.5360 -0.2950 -0.8226
    4MOL   H127 2113   5.306   3.948   4.521 -1.2684  1.8693 -1.9500
    4MOL   H128 2114   5.256   3.962   4.685  2.3675 -1.7085 -0.2871
    4MOL   H129 2115   5.172   3.751   4.504 -0.2589  0.2212 -0.2545
    4MOL   H130 2116   5.129   3.753   4.670 -0.7288  0.3990 -0.7703
    4MOL   H131 2117   5.413   3.700   4.554  0.3395  0.6038 -0.1816
    4MOL   H132 2118   5.386   3.727   4.734 -1.9361  0.0598  0.9331
    4MOL   H133 2119   5.300   3.611   4.661 -1.6918 -0.1373 -0.1245
    4MOL   C134 2120   4.344   3.766   4.491  1.0071 -0.3990  0.2167
    4MOL   C135 2121   4.328   3.789   4.646 -0.4187 -0.5297 -0.2980
    4MOL   C136 2122   4.349   3.665   4.739 -0.7508  0.2854 -0.5245
    4MOL   C137 2123   4.495   3.613   4.760 -0.0555  1.3681 -0.0983
    4MOL   C138 2124   4.585   3.695   4.855  0.2831 -0.2193  0.4011
    4MOL   C139 2125   4.714   3.614   4.914  0.4503 -0.3262 -0.7388
    4MOL   C140 2126   4.835   3.611   4.821 -0.0633  0.1365 -1.0174
    4MOL   C141 2127   4.966   3.551   4.886  0.6198 -0.7222  0.4534
    4MOL   C142 2128   4.968   3.402   4.892 -0.0201 -0.0662 -0.0382
    4MOL   C143 2129   5.106   3.349   4.924 -0.1794 -0.3636  0.3008
    4MOL   C144 2130   5.108   3.200   4.933 -0.4693  0.5906 -0.0682
    4MOL   H145 2131   4.248   3.738   4.448  0.8526  1.0690 -0.4012
    4MOL   H146 2132   4.397   3.676   4.460 -0.2986 -1.4939  1.1204
    4MOL   H147 2133   4.403   3.866   4.666 -1.2637  0.3465 -0.4983
    4MOL   H148 2134   4.294   3.581   4.697 -1.5463 -0.4618  1.9292
    4MOL   H149 2135   4.304   3.683   4.836  2.0890 -2.6883  1.4806
    4MOL   H150 2136   4.475   3.518   4.810  1.8358  2.0006  1.9605
    4MOL   H151 2137   4.544   3.589   4.666 -0.5332 -0.6208  0.1160
    4MOL   H152 2138   4.613   3.788   4.805 -0.3019 -0.9412 -1.3065
    4MOL   H153 2139   4.527   3.729   4.941 -1.6006 -1.2160 -0.4580
    4MOL   H154 2140   4.758   3.665   5.000  0.7163 -0.0926 -1.0128
    4MOL   H155 2141   4.691   3.512   4.944 -1.7196  0.1888 -0.6217
    4MOL   H156 2142   4.808   3.545   4.738  0.9511 -1.1805 -0.3172
    4MOL   H157 2143   4.852   3.712   4.784  0.4147  0.8023  0.9795
    4MOL   H158 2144   5.051   3.586   4.828  0.4675 -0.7045  0.2428
    4MOL   H159 2145   4.974   3.588   4.989  3.2340 -1.3731  0.5008
    4MOL   H160 2146   4.909   3.361   4.974  0.4266 -1.0841 -0.2087
    4MOL   H161 2147   4.924   3.351   4.806  2.5686 -1.0950 -0.7919
    4MOL   H162 2148   5.179   3.377   4.847 -0.6334  2.1969  0.7453
    4MOL   H163 2149   5.139   3.392   5.019 -1.3921  1.4855 -0.0945
    4MOL   H164 2150   5.044   3.167   5.015  2.0387  0.2020  1.7853
    4MOL   H165 2151   5.203   3.163   4.972 -1.5353 -0.5099  1.5400
    4MOL   H166 2152   5.084   3.146   4.841 -0.4894 -2.3454  1.5765
    4MOL   C167 2153   4.186   3.856   4.674 -0.6162  0.0129 -0.3337
    4MOL   C168 2154   4.186   3.936   4.806  0.5601 -0.3981  0.0998
    4MOL   C169 2155   4.043   3.932   4.865 -0.7294  0.5458 -0.6524
    4MOL   C170 2156   3.927   4.018   4.800  0.5505 -0.3539  0.2472
    4MOL   C171 2157   3.783   3.965   4.849 -0.0826 -0.5040  0.1863
    4MOL   C172 2158   3.721   3.841   4.786 -0.5476 -0.0860 -0.1911
    4MOL   C173 2159   3.684   3.824   4.632  0.6937  0.5512 -0.0673
    4MOL   C174 2160   3.611   3.693   4.616 -0.1194  0.2962  0.0638
    4MOL   C175 2161   3.561   3.669   4.472  0.1809  0.5777 -0.3889
    4MOL   C176 2162   3.495   3.529   4.454  0.4966  0.4418 -0.6222
    4MOL   C177 2163   3.416   3.512   4.319  0.1217  0.5476 -0.3368
    4MOL   H178 2164   4.141   3.917   4.597 -0.7450  1.8418  1.1495
    4MOL   H179 2165   4.112   3.776   4.683  0.4068 -1.0772 -1.4337
    4MOL   H180 2166   4.246   3.895   4.888  0.4168  0.5318  0.6782
    4MOL   H181 2167   4.064   3.967   4.966 -1.1601 -0.0962 -0.3348
    4MOL   H182 2168   3.998   3.833   4.874  0.0092  0.2920  0.3372
    4MOL   H183 2169   3.964   4.119   4.817 -0.3751  0.1770 -0.8360
    4MOL   H184 2170   3.936   4.000   4.693  1.4463  0.9966  0.0787
    4MOL   H185 2171   3.716   4.050   4.835  1.4719  0.7523  0.1954
    4MOL   H186 2172   3.797   3.961   4.957  1.4234  2.8911  0.1986
    4MOL   H187 2173   3.778   3.750   4.805 -1.7928 -0.9475 -0.5450
    4MOL   H188 2174   3.620   3.822   4.824 -1.3145  1.3831 -1.4449
    4MOL   H189 2175   3.774   3.834   4.572  0.4342  1.1378 -0.3691
    4MOL   H190 2176   3.625   3.912   4.606  1.6430  0.6650 -1.9303
    4MOL   H191 2177   3.686   3.619   4.645 -0.1959  0.7820  1.5820
    4MOL   H192 2178   3.523   3.679   4.680  0.8184 -0.1615  1.2762
    4MOL   H193 2179   3.644   3.674   4.401  0.4257 -0.7078 -0.2045
    4MOL   H194 2180   3.501   3.758   4.450  1.0478  0.7067 -2.3245
    4MOL   H195 2181   3.421   3.516   4.533  1.5537 -0.4422  0.2602
    4MOL   H196 2182   3.570   3.452   4.475  0.9873  1.0661 -0.0448
    4MOL   H197 2183   3.378   3.410   4.312 -1.4385  1.1789 -1.2900
    4MOL   H198 2184   3.485   3.534   4.238 -1.6393  0.9981 -1.7322
    4MOL   H199 2185   3.321   3.565   4.314 -0.2835 -0.0839  0.4560
    4MOL   C200 2186   4.233   4.079   4.787 -0.7394 -0.3976  0.4396
    4MOL   C201 2187   4.296   4.146   4.913 -0.1691  0.1618 -0.6256
    4MOL   C202 2188   4.289   4.298   4.905  0.0311  0.4874  0.1594
    4MOL   C203 2189   4.329   4.376   5.024  0.1943 -0.0425  0.2776
    4MOL   C204 2190   4.270   4.514   5.009 -0.3628  0.1057 -0.1143
    4MOL   C205 2191   4.309   4.604   5.129 -0.3496 -0.7892  0.2702
    4MOL   C206 2192   4.278   4.751   5.109 -0.2114 -0.5618 -0.2942
    4MOL   C207 2193   4.298   4.828   5.236 -0.4051  0.0871  0.1828
    4MOL   C208 2194   4.279   4.981   5.216 -0.2093 -0.2758  0.5329
    4MOL   C209 2195   4.320   5.052   5.347  0.1501 -0.5881  0.5125
    4MOL   C210 2196   4.305   5.210   5.328  0.7171 -0.3583 -0.6329
    4MOL   H211 2197   4.318   4.082   4.719 -0.6012  2.7802  0.6946
    4MOL   H212 2198   4.162   4.138   4.729  0.6992 -0.2127 -1.1678
    4MOL   H213 2199   4.233   4.111   4.995  1.6830 -3.6197 -0.7146
    4MOL   H214 2200   4.189   4.329   4.876 -0.3791  0.2007  1.2223
    4MOL   H215 2201   4.357   4.316   4.822  0.2923 -1.2885 -0.0266
    4MOL   H216 2202   4.437   4.376   5.033  0.3282  0.8943 -1.2692
    4MOL   H217 2203   4.295   4.328   5.116  2.0302 -1.0628  0.4487
    4MOL   H218 2204   4.162   4.526   5.003 -0.2568  0.5727 -1.1792
    4MOL   H219 2205   4.315   4.562   4.923  1.2332 -0.3326  0.4575
    4MOL   H220 2206   4.263   4.567   5.220  0.0086  2.0466  1.6409
    4MOL   H221 2207   4.416   4.582   5.135 -0.3276 -0.7711 -0.0387
    4MOL   H222 2208   4.174   4.765   5.079 -0.7234 -2.2483  0.6631
    4MOL   H223 2209   4.342   4.801   5.037 -1.0073  0.4598 -0.3089
    4MOL   H224 2210   4.401   4.823   5.271  0.0282 -0.9085 -1.1727
    4MOL   H225 2211   4.234   4.786   5.313 -0.9352 -0.9079 -0.7818
    4MOL   H226 2212   4.173   5.003   5.199 -0.1055 -0.0110  0.2297
    4MOL   H227 2213   4.327   5.018   5.126  0.8116  0.9596  1.5623
    4MOL   H228 2214   4.253   5.020   5.427 -2.1941  1.2081 -0.6491
    4MOL   H229 2215   4.422   5.023   5.368  0.6026  1.0265  0.5824
    4MOL   H230 2216   4.368   5.248   5.248  1.6248 -2.2345 -0.8520
    4MOL   H231 2217   4.314   5.271   5.418 -0.9686  1.7164 -1.8340
    4MOL   H232 2218   4.204   5.233   5.294  0.9646 -1.3411 -2.0946
    4MOL   C233 2219   4.440   4.084   4.938  0.7280 -0.6630  0.1236
    4MOL   C234 2220   4.484   4.072   5.090  0.4414 -0.1900 -0.4087
    4MOL   C235 2221   4.639   4.099   5.116 -0.6221  0.0178 -0.3704
    4MOL   C236 2222   4.727   3.994   5.040 -0.4088 -0.0875 -0.1701
    4MOL   C237 2223   4.871   4.033   5.052 -0.0332  0.2564  0.3611
    4MOL   C238 2224   4.970   3.924   5.004  0.3932  0.2408  0.2327
    4MOL   C239 2225   5.115   3.972   5.014 -0.3369  0.0238 -0.5523
    4MOL   C240 2226   5.213   3.858   5.009 -0.0987  0.7043  0.2652
    4MOL   C241 2227   5.362   3.897   5.028  0.3677  0.0900  0.0014
    4MOL   C242 2228   5.451   3.776   5.048 -0.0234  0.0652 -0.0829
    4MOL   C243 2229   5.592   3.822   5.074 -0.3204  0.3300  0.4655
    4MOL   H244 2230   4.505   4.158   4.891 -1.2310  0.1690 -1.3170
    4MOL   H245 2231   4.453   3.992   4.880  1.9050 -0.1682 -0.4161
    4MOL   H246 2232   4.424   4.148   5.141  0.4327 -1.4629  1.5265
    4MOL   H247 2233   4.661   4.201   5.086 -0.8891  0.6195  1.3911
    4MOL   H248 2234   4.670   4.102   5.221  1.8238 -0.5597 -1.0373
    4MOL   H249 2235   4.697   3.987   4.935 -0.6803 -0.6285 -0.0562
    4MOL   H250 2236   4.704   3.896   5.081 -2.0943  0.1636 -0.4751
    4MOL   H251 2237   4.889   4.068   5.153 -3.0547  1.1964  0.6205
    4MOL   H252 2238   4.894   4.120   4.990 -0.6217 -0.0030 -0.2257
    4MOL   H253 2239   4.940   3.894   4.903 -2.0402 -0.9293  1.2680
    4MOL   H254 2240   4.949   3.837   5.065  1.7844  0.1752  0.6368
    4MOL   H255 2241   5.138   4.045   4.936 -1.4711  1.7428  0.6856
    4MOL   H256 2242   5.127   4.034   5.103 -1.5447 -0.4549 -0.0502
    4MOL   H257 2243   5.180   3.793   5.090  0.7336 -0.3368 -0.2307
    4MOL   H258 2244   5.193   3.804   4.917  0.6636  2.2333 -0.8125
    4MOL   H259 2245   5.393   3.965   4.948 -0.0631  0.9035  0.5276
    4MOL   H260 2246   5.368   3.943   5.126  1.5401  2.1612 -0.9849
    4MOL   H261 2247   5.444   3.714   4.959 -2.7043  2.4857 -1.6102
    4MOL   H262 2248   5.415   3.708   5.126 -3.0341  0.9272 -0.6658
    4MOL   H263 2249   5.598   3.897   5.153  2.8885  0.1061  0.4917
    4MOL   H264 2250   5.631   3.871   4.985  0.6116 -0.8679  0.2137
    4MOL   H265 2251   5.660   3.739   5.091 -0.6290  0.4912  2.6179
    4MOL   C266 2252   4.435   3.944   5.154  0.4685 -0.4146 -0.6831
    4MOL   C267 2253   4.446   3.929   5.307  0.1730 -0.0391 -1.1396
    4MOL   C268 2254   4.516   3.797   5.358 -0.4141  0.0058  0.9297
    4MOL   C269 2255   4.538   3.771   5.506  0.6741 -0.8742 -0.2922
    4MOL   C270 2256   4.615   3.887   5.569 -0.0282 -0.5381  0.0360
    4MOL   C271 2257   4.674   3.862   5.704 -0.0550  0.1401 -0.6942
    4MOL   C272 2258   4.770   3.971   5.752  0.0529 -0.2317 -0.0280
    4MOL   C273 2259   4.827   3.951   5.888  0.2720  0.6524  0.6254
    4MOL   C274 2260   4.881   4.075   5.942  0.0873 -0.4004 -0.2739
    4MOL   C275 2261   4.935   4.060   6.089  0.2634 -0.3888  0.5954
    4MOL   C276 2262   5.015   4.184   6.125 -0.0811  0.0905 -0.1263
    4MOL   H277 2263   4.503   3.873   5.107  2.3474 -1.1610  2.9886
    4MOL   H278 2264   4.338   3.914   5.115  0.6317  0.5008 -1.8408
    4MOL   H279 2265   4.505   4.015   5.340  2.1856 -2.6226  2.4166
    4MOL   H280 2266   4.452   3.720   5.313  0.1601  0.8614 -1.4273
    4MOL   H281 2267   4.614   3.789   5.313 -0.3207 -2.1219  1.4379
    4MOL   H282 2268   4.606   3.686   5.510  1.4799 -0.2244  0.1141
    4MOL   H283 2269   4.442   3.743   5.549  0.0005 -0.6969 -1.6478
    4MOL   H284 2270   4.548   3.973   5.577 -0.3969 -0.7849 -0.4057
    4MOL   H285 2271   4.692   3.913   5.496 -0.2771  0.4988  0.1287
    4MOL   H286 2272   4.721   3.764   5.698 -0.9458 -0.2386 -1.3897
    4MOL   H287 2273   4.596   3.846   5.778 -0.6691 -0.2097 -1.4193
    4MOL   H288 2274   4.858   3.970   5.688  0.7964 -3.8083  0.9245
    4MOL   H289 2275   4.729   4.072   5.746  2.6181  0.8508  0.0471
    4MOL   H290 2276   4.907   3.878   5.871  3.2143  3.7808  0.4057
    4MOL   H291 2277   4.747   3.909   5.949 -1.3450 -0.6693 -2.3243
    4MOL   H292 2278   4.957   4.119   5.877 -1.7778 -0.2380 -2.3767
    4MOL   H293 2279   4.816   4.162   5.947  1.3839  0.8071 -3.2694
    4MOL   H294 2280   5.002   3.975   6.099  0.8084  0.0288  0.5435
    4MOL   H295 2281   4.848   4.047   6.153 -1.1976  0.4460 -1.1526
    4MOL   H296 2282   5.022   4.196   6.233  2.8873  1.6453 -0.4437
    4MOL   H297 2283   4.982   4.279   6.084 -0.4861  0.9397  2.1049
    4MOL   H298 2284   5.118   4.172   6.091  0.9510  2.9478  1.8449
    4MOL   C299 2285   4.304   3.939   5.373  0.8490 -0.0218  0.4899
    4MOL   C300 2286   4.238   4.083   5.369 -0.5962  0.0067 -0.7002
    4MOL   C301 2287   4.304   4.192   5.457  0.8134  0.3027 -0.0245
    4MOL   C302 2288   4.314   4.164   5.607  0.2739 -0.2252 -0.6753
    4MOL   C303 2289   4.398   4.266   5.682 -0.4877 -0.9710 -0.1445
    4MOL   C304 2290   4.364   4.241   5.829 -0.7001  0.3478 -0.5995
    4MOL   C305 2291   4.448   4.301   5.933  0.1399  0.2074  0.1457
    4MOL   C306 2292   4.424   4.236   6.071 -0.4958 -0.0382  0.3798
    4MOL   C307 2293   4.495   4.318   6.180 -0.3546  0.0014  0.1186
    4MOL   C308 2294   4.643   4.283   6.193  0.4977 -0.2510 -0.5402
    4MOL   C309 2295   4.716   4.391   6.279  0.2532 -0.1336 -0.1153
    4MOL   H310 2296   4.315   3.914   5.478 -0.1150  1.2102  0.9033
    4MOL   H311 2297   4.234   3.873   5.321  1.3648 -2.1412  2.4316
    4MOL   H312 2298   4.245   4.121   5.267 -0.0233 -1.8948 -1.3920
    4MOL   H313 2299   4.407   4.196   5.423  0.4008 -1.7925 -1.5937
    4MOL   H314 2300   4.258   4.290   5.443 -1.0540 -0.8918 -2.7842
    4MOL   H315 2301   4.214   4.158   5.648  1.5955  1.0367  2.8896
    4MOL   H316 2302   4.359   4.066   5.623  2.1945  0.8469  0.5998
    4MOL   H317 2303   4.506   4.255   5.669 -0.2096  1.6185 -0.1983
    4MOL   H318 2304   4.370   4.364   5.643  3.9681 -0.2646 -1.9236
    4MOL   H319 2305   4.361   4.133   5.847 -0.5838  0.2341 -1.2545
    4MOL   H320 2306   4.264   4.279   5.853 -0.0463  1.5397  0.2668
    4MOL   H321 2307   4.551   4.308   5.899  0.0665  3.5584  0.4156
    4MOL   H322 2308   4.413   4.403   5.949  0.8389  0.6487 -1.1012
    4MOL   H323 2309   4.458   4.132   6.072  1.6002  0.6274  1.8465
    4MOL   H324 2310   4.319   4.228   6.098 -0.2654 -2.8324  0.5878
    4MOL   H325 2311   4.456   4.288   6.277 -0.4353 -0.8967 -0.1898
    4MOL   H326 2312   4.477   4.425   6.167 -1.0684 -0.4040 -2.3527
    4MOL   H327 2313   4.683   4.300   6.094  0.3644  3.2799 -0.0404
    4MOL   H328 2314   4.655   4.180   6.229 -0.1696 -0.5674 -1.2018
    4MOL   H329 2315   4.818   4.406   6.243  0.4336 -0.5428  0.2124
    4MOL   H330 2316   4.664   4.486   6.271  0.6850  0.0651 -0.6252
    4MOL   H331 2317   4.718   4.374   6.386 -0.2835 -1.2375 -0.2769
    4MOL   C332 2318   4.082   4.071   5.409  0.0381  0.8834 -0.0708
    4MOL   C333 2319   3.977   4.083   5.292  0.5219  0.0366  0.1960
    4MOL   C334 2320   3.964   4.227   5.244 -0.5565 -0.0243 -0.1086
    4MOL   C335 2321   3.926   4.244   5.100 -0.0750  0.0170 -0.3668
    4MOL   C336 2322   3.870   4.384   5.059 -0.5804  0.1193 -0.2433
    4MOL   C337 2323   3.837   4.401   4.906  0.8997 -0.1045  0.0874
    4MOL   C338 2324   3.777   4.539   4.869  0.4426 -0.6694 -0.3637
    4MOL   C339 2325   3.748   4.542   4.716 -0.1422 -0.0559  0.6491
    4MOL   C340 2326   3.659   4.660   4.683 -0.0262 -0.0698 -0.4318
    4MOL   C341 2327   3.591   4.666   4.548  0.9937  0.0795  0.0404
    4MOL   C342 2328   3.699   4.684   4.438  0.3302  0.2211 -0.4214
    4MOL   H343 2329   4.059   3.984   5.471  0.6543  0.8231  0.0756
    4MOL   H344 2330   4.060   4.157   5.473  1.2747  0.9369  0.2984
    4MOL   H345 2331   4.005   4.012   5.214  2.3739  0.8957  0.0556
    4MOL   H346 2332   4.063   4.269   5.256 -1.5591  2.1260  0.9493
    4MOL   H347 2333   3.896   4.283   5.309 -2.3020 -1.6173 -0.5226
    4MOL   H348 2334   4.013   4.219   5.039  0.9326 -1.1132  1.4683
    4MOL   H349 2335   3.844   4.179   5.072 -1.1803  1.7360 -1.1920
    4MOL   H350 2336   3.784   4.415   5.118 -0.6146 -0.5202  0.0477
    4MOL   H351 2337   3.951   4.451   5.088 -0.2227  1.3161 -3.7505
    4MOL   H352 2338   3.763   4.322   4.892  1.6676 -0.8115 -0.0130
    4MOL   H353 2339   3.923   4.376   4.844  0.8124 -0.9490  0.3032
    4MOL   H354 2340   3.843   4.619   4.903 -1.3694  0.6009  0.2602
    4MOL   H355 2341   3.682   4.554   4.920  0.9974  0.6334  0.3259
    4MOL   H356 2342   3.843   4.542   4.661 -1.3427 -0.1676 -1.4653
    4MOL   H357 2343   3.710   4.445   4.685 -0.8670  0.4921 -0.1952
    4MOL   H358 2344   3.727   4.741   4.709  1.8142 -2.3914  2.4551
    4MOL   H359 2345   3.581   4.673   4.758 -1.4126 -0.6361 -1.7595
    4MOL   H360 2346   3.524   4.751   4.534  1.7010  0.5149 -0.8050
    4MOL   H361 2347   3.522   4.583   4.531 -0.6798  0.6742  3.5774
    4MOL   H362 2348   3.776   4.758   4.455 -0.3697  1.0381 -0.7760
    4MOL   H363 2349   3.742   4.585   4.419 -2.6143 -1.6783  2.2162
    4MOL   H364 2350   3.647   4.704   4.344 -1.8490  1.2188  0.9634
    4MOL   C365 2351   3.836   4.037   5.343  0.4268 -0.0584 -0.1473
    4MOL   C366 2352   3.826   3.882   5.357 -0.3258  0.3599  0.2817
    4MOL   C367 2353   3.747   3.834   5.476  0.2815 -0.6283  0.1288
    4MOL   C368 2354   3.809   3.860   5.619  0.3113 -0.4534 -0.0884
    4MOL   C369 2355   3.937   3.775   5.653 -0.3965  0.1105 -0.3188
    4MOL   C370 2356   4.028   3.829   5.762  0.2371  0.3619  0.1329
    4MOL   C371 2357   4.154   3.742   5.764 -0.0380  0.8188  1.0171
    4MOL   C372 2358   4.235   3.777   5.890  0.0283  0.0096  0.2707
    4MOL   C373 2359   4.366   3.702   5.909  0.4856  0.0798 -0.0785
    4MOL   C374 2360   4.457   3.760   6.024 -0.4269 -0.0340  0.5196
    4MOL   C375 2361   4.591   3.674   6.029  0.7778  0.4266 -0.6206
    4MOL   H376 2362   3.819   4.082   5.441 -3.2556  0.4469 -0.9425
    4MOL   H377 2363   3.762   4.074   5.272 -0.6569 -0.9767  0.5069
    4MOL   H378 2364   3.923   3.835   5.371  0.0867  0.9268 -0.6293
    4MOL   H379 2365   3.734   3.727   5.464 -0.7350 -0.4087 -0.8152
    4MOL   H380 2366   3.647   3.875   5.479  0.0627 -1.1364 -0.1280
    4MOL   H381 2367   3.725   3.844   5.687  1.5213  0.5739  1.6767
    4MOL   H382 2368   3.831   3.966   5.635  2.4229 -1.1158  1.5506
    4MOL   H383 2369   3.991   3.755   5.560 -0.5736 -2.0312  0.0200
    4MOL   H384 2370   3.907   3.675   5.683 -1.9457  0.1879 -1.5686
    4MOL   H385 2371   3.985   3.839   5.862 -1.2343  0.2664 -0.4853
    4MOL   H386 2372   4.061   3.926   5.726  4.3596  0.2158  3.0582
    4MOL   H387 2373   4.130   3.636   5.756 -1.9818  1.2502  0.6708
    4MOL   H388 2374   4.213   3.771   5.677  2.2488 -1.2999  1.8414
    4MOL   H389 2375   4.179   3.747   5.979  0.3387 -0.9378  0.1432
    4MOL   H390 2376   4.252   3.885   5.894 -1.3541  0.2107  1.5739
    4MOL   H391 2377   4.359   3.594   5.909  0.0129  0.1052  1.8024
    4MOL   H392 2378   4.411   3.714   5.810  0.7795 -1.5092 -0.1524
    4MOL   H393 2379   4.469   3.867   6.009  0.1767 -0.2963 -0.9120
    4MOL   H394 2380   4.408   3.752   6.121  0.3873  0.8447  1.0154
    4MOL   H395 2381   4.561   3.570   6.039  4.1206 -0.3966  1.5924
    4MOL   H396 2382   4.654   3.710   6.111 -0.0725 -0.0465  0.2378
    4MOL   H397 2383   4.656   3.684   5.941 -0.5167 -0.9261 -1.7580
    4MOL   C398 2384   3.770   3.821   5.227 -0.4526  0.3938 -0.0794
    4MOL   C399 2385   3.802   3.670   5.199 -0.4186  0.4840  0.1841
    4MOL   C400 2386   3.940   3.662   5.123  0.7087 -0.5190  0.5213
    4MOL   C401 2387   4.011   3.533   5.148 -0.3089 -1.0115 -0.7072
    4MOL   C402 2388   4.158   3.536   5.128  0.2021 -0.7446  0.4032
    4MOL   C403 2389   4.225   3.405   5.160  0.5482 -0.1067 -0.0986
    4MOL   C404 2390   4.381   3.414   5.136  0.5869 -0.2120 -0.2788
    4MOL   C405 2391   4.464   3.284   5.173  0.3752 -0.5138 -0.0458
    4MOL   C406 2392   4.613   3.308   5.158 -0.4221  0.5264 -0.7010
    4MOL   C407 2393   4.702   3.211   5.238  0.4451  0.3771  0.5572
    4MOL   C408 2394   4.678   3.193   5.385 -0.4183  0.1664  0.3233
    4MOL   H409 2395   3.821   3.875   5.146  1.0680 -2.4653 -1.0826
    4MOL   H410 2396   3.665   3.840   5.204  0.0456  0.3620 -2.5695
    4MOL   H411 2397   3.818   3.623   5.296  0.3863 -0.2609 -0.3024
    4MOL   H412 2398   4.009   3.738   5.160  0.5313  0.0530 -0.3023
    4MOL   H413 2399   3.923   3.693   5.020 -1.2131  2.0150  1.5407
    4MOL   H414 2400   3.993   3.501   5.250  0.5815 -0.7923 -0.4809
    4MOL   H415 2401   3.977   3.457   5.077 -0.0158 -1.2480 -0.5972
    4MOL   H416 2402   4.176   3.563   5.024  0.4984 -2.3982  0.0035
    4MOL   H417 2403   4.208   3.618   5.180  0.0203  0.8883 -1.8981
    4MOL   H418 2404   4.182   3.322   5.104  0.1101 -1.2627  1.8897
    4MOL   H419 2405   4.210   3.378   5.265  0.9859  0.6038  0.1452
    4MOL   H420 2406   4.407   3.449   5.036 -2.2640 -1.4521 -1.5099
    4MOL   H421 2407   4.408   3.490   5.209  2.1859 -0.7450 -0.2973
    4MOL   H422 2408   4.431   3.198   5.115 -1.2583  0.3893 -0.4678
    4MOL   H423 2409   4.424   3.275   5.274  1.3188 -0.5033  0.3398
    4MOL   H424 2410   4.639   3.298   5.052 -1.5369 -2.5317 -0.7465
    4MOL   H425 2411   4.635   3.409   5.192 -1.2527  0.5502 -0.2061
    4MOL   H426 2412   4.809   3.234   5.229  0.6738  0.1362  2.3633
    4MOL   H427 2413   4.691   3.121   5.178 -0.6347  0.2225  0.9789
    4MOL   H428 2414   4.594   3.127   5.407  1.0258 -1.1996  1.8776
    4MOL   H429 2415   4.662   3.290   5.433  1.5303  1.2358 -1.0885
    4MOL   H430 2416   4.763   3.152   5.440  1.1272  2.7303 -0.0471
    4MOL   C431 2417   3.697   3.596   5.110  0.8222  0.1286  0.1100
    4MOL   C432 2418   3.664   3.451   5.149  0.2349 -0.5626  0.2302
    4MOL   C433 2419   3.581   3.379   5.036 -0.3945  0.2476 -0.8039
    4MOL   C434 2420   3.672   3.340   4.913  0.0156  0.0166 -0.1534
    4MOL   C435 2421   3.615   3.221   4.835 -0.1996 -0.5158 -0.0520
    4MOL   C436 2422   3.489   3.246   4.756  0.2467  0.3185 -0.3914
    4MOL   C437 2423   3.463   3.139   4.641 -0.1118 -0.5512 -0.6723
    4MOL   C438 2424   3.464   2.987   4.683 -0.9956 -0.2301 -0.7462
    4MOL   C439 2425   3.406   2.887   4.585 -0.1497  0.2754  0.0008
    4MOL   C440 2426   3.458   2.743   4.601  0.0580 -0.1492 -0.1965
    4MOL   C441 2427   3.438   2.698   4.746 -0.9654 -0.4736 -0.8402
    4MOL   H442 2428   3.728   3.610   5.006  3.3167  0.6269  0.8650
    4MOL   H443 2429   3.610   3.656   5.135  1.4820  0.2932  2.1084
    4MOL   H444 2430   3.757   3.393   5.148  0.1342 -0.7172 -0.1927
    4MOL   H445 2431   3.523   3.294   5.073  2.6277 -1.7565 -0.4730
    4MOL   H446 2432   3.511   3.451   4.995  1.6495  1.5081 -2.1544
    4MOL   H447 2433   3.774   3.328   4.949 -0.6490 -0.0448  1.8068
    4MOL   H448 2434   3.667   3.426   4.846  1.2456 -0.4017 -0.7776
    4MOL   H449 2435   3.589   3.138   4.900  0.9006 -2.3815 -1.9650
    4MOL   H450 2436   3.700   3.194   4.772 -0.0414 -0.3608  0.0941
    4MOL   H451 2437   3.499   3.339   4.700 -1.7426  0.0838 -1.1769
    4MOL   H452 2438   3.399   3.272   4.812  0.6307  1.7890 -0.4217
    4MOL   H453 2439   3.530   3.156   4.556 -0.9868 -0.0637 -1.2719
    4MOL   H454 2440   3.362   3.158   4.605 -0.4450 -2.5439 -0.8107
    4MOL   H455 2441   3.570   2.965   4.700 -0.4623  0.7211 -2.6425
    4MOL   H456 2442   3.429   2.972   4.785 -0.4986  1.3856 -0.3108
    4MOL   H457 2443   3.436   2.920   4.486  1.2678  0.0002  0.3222
    4MOL   H458 2444   3.298   2.878   4.579 -0.1390 -1.4950  1.6171
    4MOL   H459 2445   3.563   2.739   4.573  0.5004 -0.4476  1.4750
    4MOL   H460 2446   3.402   2.664   4.550  1.7562 -1.4033 -0.1484
    4MOL   H461 2447   3.335   2.712   4.776 -0.7835 -0.0804 -0.3861
    4MOL   H462 2448   3.435   2.590   4.762 -1.0734 -0.1059  1.8075
    4MOL   H463 2449   3.499   2.745   4.824 -2.0622 -1.2370  0.4984
    4MOL   C464 2450   3.591   3.450   5.284 -0.0943 -0.3083 -0.4246
    4MOL   C465 2451   3.584   3.320   5.372  0.1633 -0.5905 -0.0779
    4MOL   C466 2452   3.730   3.260   5.378 -0.0890  0.0360 -0.4397
    4MOL   C467 2453   3.830   3.339   5.472 -0.5639 -0.0384 -0.0424
    4MOL   C468 2454   3.974   3.273   5.491  0.8981  0.3246  0.0510
    4MOL   C469 2455   4.067   3.340   5.589  0.0392 -0.1276  0.3466
    4MOL   C470 2456   4.214   3.298   5.583  0.4108 -0.2587 -0.4419
    4MOL   C471 2457   4.302   3.354   5.696 -0.0268  0.0351  0.1239
    4MOL   C472 2458   4.455   3.320   5.676 -0.0180  0.1701  0.5337
    4MOL   C473 2459   4.535   3.381   5.799 -0.7226 -0.4453 -0.3583
    4MOL   C474 2460   4.668   3.313   5.825 -0.2766  0.5586 -0.7801
    4MOL   H475 2461   3.489   3.488   5.275  0.2677  0.9134  0.5149
    4MOL   H476 2462   3.646   3.522   5.344  0.3246  0.2359 -1.4546
    4MOL   H477 2463   3.520   3.249   5.319  0.3659 -2.0835  1.6191
    4MOL   H478 2464   3.778   3.249   5.281 -2.1541 -0.2655 -1.4760
    4MOL   H479 2465   3.732   3.161   5.423 -3.9810 -0.3098 -0.7739
    4MOL   H480 2466   3.843   3.442   5.439 -1.0726 -0.1295 -0.5356
    4MOL   H481 2467   3.787   3.339   5.572  0.3416 -1.4189  0.3557
    4MOL   H482 2468   4.014   3.271   5.389 -1.5311  1.3104 -0.9410
    4MOL   H483 2469   3.969   3.168   5.522 -0.1625  0.5342  0.6063
    4MOL   H484 2470   4.063   3.448   5.599  4.5253  0.2741 -1.1983
    4MOL   H485 2471   4.028   3.311   5.687 -2.9337 -1.2460 -1.0785
    4MOL   H486 2472   4.222   3.190   5.585 -1.5772 -0.4229  2.8048
    4MOL   H487 2473   4.254   3.325   5.485  0.3665 -0.5248 -0.5334
    4MOL   H488 2474   4.282   3.461   5.697  0.5962  0.1423  1.6488
    4MOL   H489 2475   4.258   3.325   5.791 -2.4584  0.3790 -0.8546
    4MOL   H490 2476   4.466   3.211   5.676  0.5804  0.2282  0.0036
    4MOL   H491 2477   4.491   3.363   5.583 -1.4156  0.5211  0.1384
    4MOL   H492 2478   4.562   3.486   5.781 -1.6416  0.2895  2.4112
    4MOL   H493 2479   4.470   3.374   5.885 -1.9933 -0.3107 -1.2899
    4MOL   H494 2480   4.726   3.305   5.733  1.9650 -1.3477  0.7215
    4MOL   H495 2481   4.657   3.207   5.850  3.1828  0.1721 -0.6806
    4MOL   H496 2482   4.715   3.370   5.905  0.6159  0.2080 -1.0463
    4MOL   C497 2483   3.523   3.347   5.514  0.0410  0.8917 -0.3325
    4MOL   C498 2484   3.369   3.388   5.514  0.0161  0.5895  0.2269
    4MOL   C499 2485   3.348   3.490   5.625  0.4503  0.4472 -0.0210
    4MOL   C500 2486   3.404   3.629   5.595 -0.4923 -0.1704 -0.6961
    4MOL   C501 2487   3.355   3.741   5.691  0.0371  0.4892 -0.1560
    4MOL   C502 2488   3.202   3.761   5.714 -0.1947  0.0045 -0.0711
    4MOL   C503 2489   3.178   3.867   5.821 -0.7472  0.6886 -0.3123
    4MOL   C504 2490   3.031   3.889   5.846 -0.5427 -0.2442  0.3567
    4MOL   C505 2491   3.000   3.997   5.949 -0.0767 -0.4443  0.3236
    4MOL   C506 2492   2.863   4.062   5.925  0.0852  0.5248  0.3533
    4MOL   C507 2493   2.808   4.167   6.013 -0.0078  0.2484  0.1447
    4MOL   H508 2494   3.547   3.268   5.585  2.1850  2.0368  0.2513
    4MOL   H509 2495   3.583   3.419   5.569  1.0417  0.3596 -0.7167
    4MOL   H510 2496   3.339   3.421   5.415  0.6646 -0.9233 -0.5005
    4MOL   H511 2497   3.399   3.445   5.710 -2.8140  2.3021  3.0584
    4MOL   H512 2498   3.241   3.500   5.644  0.3160  0.7076 -0.8747
    4MOL   H513 2499   3.354   3.654   5.501 -1.7333 -0.5704 -0.1605
    4MOL   H514 2500   3.512   3.623   5.586 -0.4791  1.4355 -1.7609
    4MOL   H515 2501   3.393   3.711   5.789  0.5423 -0.7446 -0.7210
    4MOL   H516 2502   3.417   3.831   5.686  0.1232  0.6979  3.3871
    4MOL   H517 2503   3.166   3.797   5.618 -0.6196 -0.4748 -0.0923
    4MOL   H518 2504   3.148   3.669   5.735 -0.7748  0.2244 -0.5957
    4MOL   H519 2505   3.222   3.835   5.916  1.2221  0.4736 -1.2706
    4MOL   H520 2506   3.233   3.956   5.792  0.2315 -1.1307 -4.4268
    4MOL   H521 2507   2.985   3.795   5.875  0.8583 -0.8356  0.7304
    4MOL   H522 2508   2.980   3.905   5.751 -1.2696 -0.2216  0.7522
    4MOL   H523 2509   3.069   4.081   5.945 -1.3776  0.5777 -1.1403
    4MOL   H524 2510   3.003   3.954   6.049 -0.4849 -0.4391  0.3410
    4MOL   H525 2511   2.789   3.981   5.923 -0.9788  1.5007 -0.2891
    4MOL   H526 2512   2.859   4.117   5.831  1.1399  2.4628  1.4236
    4MOL   H527 2513   2.707   4.203   5.994  0.0944  1.3512  1.6584
    4MOL   H528 2514   2.870   4.256   6.010  0.7468 -0.3067 -1.2645
    4MOL   H529 2515   2.800   4.126   6.114 -0.5465  1.5919  0.6596
    4MOL   C530 2516   3.278   3.270   5.545 -0.2597  0.3203  0.1982
    4MOL   C531 2517   3.274   3.149   5.447  0.7409 -1.0324  0.3324
    4MOL   C532 2518   3.211   3.182   5.312 -0.9604 -0.0040 -0.4079
    4MOL   C533 2519   3.243   3.075   5.203  0.2351  0.0614 -0.2963
    4MOL   C534 2520   3.178   3.114   5.066  0.1579 -0.4129  0.0053
    4MOL   C535 2521   3.165   3.005   4.957  0.2990  0.2773 -0.6128
    4MOL   C536 2522   3.090   3.061   4.834 -0.1045 -0.2418 -0.3221
    4MOL   C537 2523   2.944   3.040   4.850  0.1426 -0.1468 -0.1953
    4MOL   C538 2524   2.859   3.074   4.723  0.0729  0.2392  0.2445
    4MOL   C539 2525   2.711   3.103   4.743  0.8555 -0.7969 -0.4869
    4MOL   C540 2526   2.625   2.976   4.752 -0.4927  0.4189 -0.0602
    4MOL   H541 2527   3.329   3.237   5.635  0.0047 -1.9310 -0.7392
    4MOL   H542 2528   3.179   3.300   5.580  0.1409 -1.0230  2.5644
    4MOL   H543 2529   3.378   3.119   5.443  1.2834  0.4065  2.9202
    4MOL   H544 2530   3.261   3.275   5.283 -1.9947  0.4013 -0.9403
    4MOL   H545 2531   3.107   3.212   5.322 -0.7518  0.2976  0.8540
    4MOL   H546 2532   3.203   2.979   5.233  1.4625 -0.5740 -0.6787
    4MOL   H547 2533   3.351   3.060   5.193 -0.2488 -2.5468 -2.1063
    4MOL   H548 2534   3.225   3.202   5.022  1.4693 -1.3383 -0.4681
    4MOL   H549 2535   3.075   3.145   5.085  0.0374 -1.6653  1.4758
    4MOL   H550 2536   3.126   2.915   5.003  0.5144  0.4439 -0.0984
    4MOL   H551 2537   3.265   2.982   4.919  0.2070  0.8696 -1.2282
    4MOL   H552 2538   3.131   3.015   4.744 -0.5852 -1.1951 -0.0595
    4MOL   H553 2539   3.126   3.163   4.820 -0.5040  0.1810  1.6988
    4MOL   H554 2540   2.902   3.084   4.941 -0.7263  1.6661 -1.4461
    4MOL   H555 2541   2.927   2.937   4.880  2.6173 -0.6737 -0.5171
    4MOL   H556 2542   2.873   2.986   4.661 -1.7426 -1.1788  1.8164
    4MOL   H557 2543   2.904   3.160   4.674  2.3464 -2.0660 -1.8645
    4MOL   H558 2544   2.668   3.170   4.668  0.5187 -0.4946 -0.0239
    4MOL   H559 2545   2.694   3.151   4.839 -0.5023 -1.1651 -0.5331
    4MOL   H560 2546   2.640   2.912   4.840 -1.8854 -1.4216 -1.1278
    4MOL   H561 2547   2.521   3.007   4.757 -0.4340  0.6143 -0.0702
    4MOL   H562 2548   2.639   2.912   4.665 -3.4994 -2.3733  1.3888
    4MOL   C563 2549   3.211   3.020   5.513  0.4658  0.9182 -0.1131
    4MOL   C564 2550   3.288   2.893   5.489 -0.4509 -0.7097 -0.3279
    4MOL   C565 2551   3.192   2.775   5.494  0.3419 -0.2339 -0.5588
    4MOL   C566 2552   3.241   2.664   5.396 -0.8217  0.1094 -0.3775
    4MOL   C567 2553   3.168   2.525   5.402 -0.3668  0.0946 -0.3042
    4MOL   C568 2554   3.218   2.431   5.297  0.6422 -0.0879 -0.5733
    4MOL   C569 2555   3.174   2.462   5.156 -0.0289 -0.2080  0.4257
    4MOL   C570 2556   3.214   2.350   5.057 -0.0000  0.1343 -0.0390
    4MOL   C571 2557   3.242   2.412   4.920 -0.2565  0.5330 -0.2121
    4MOL   C572 2558   3.248   2.298   4.811 -0.0996  0.1561 -0.5801
    4MOL   C573 2559   3.279   2.363   4.672  0.6081 -0.6276 -0.4976
    4MOL   H574 2560   3.111   3.015   5.471  0.9050 -2.2688 -0.9067
    4MOL   H575 2561   3.198   3.044   5.619  2.2488 -0.5846  0.4640
    4MOL   H576 2562   3.333   2.898   5.390  0.5904 -0.9287  0.1280
    4MOL   H577 2563   3.092   2.806   5.465  0.0894 -1.5515 -1.1294
    4MOL   H578 2564   3.173   2.750   5.598  1.7329  1.5819  0.1796
    4MOL   H579 2565   3.346   2.641   5.415 -0.7736  1.6024  1.1586
    4MOL   H580 2566   3.242   2.699   5.292 -1.1934 -0.4728 -0.5829
    4MOL   H581 2567   3.062   2.539   5.384 -0.5633 -2.0338 -0.8936
    4MOL   H582 2568   3.175   2.487   5.504  1.4824  1.4064  0.1007
    4MOL   H583 2569   3.326   2.424   5.312  0.2904 -1.5794  1.3156
    4MOL   H584 2570   3.183   2.332   5.326 -2.0110  0.6078 -1.2202
    4MOL   H585 2571   3.067   2.486   5.162  0.6131  2.8988  0.5852
    4MOL   H586 2572   3.226   2.557   5.143 -0.4601  0.1153  0.9860
    4MOL   H587 2573   3.141   2.269   5.045 -0.3510  0.2281  1.3802
    4MOL   H588 2574   3.300   2.300   5.100 -0.1308 -1.8028 -1.9361
    4MOL   H589 2575   3.333   2.472   4.921  0.0278  0.1593  2.7925
    4MOL   H590 2576   3.165   2.483   4.891  0.6120  0.6247 -2.3514
    4MOL   H591 2577   3.156   2.239   4.809 -0.4221  0.6757 -1.2223
    4MOL   H592 2578   3.324   2.224   4.834 -0.7225 -0.6315 -1.0107
    4MOL   H593 2579   3.365   2.430   4.670 -0.5077  0.8622  0.0953
    4MOL   H594 2580   3.313   2.286   4.602  0.9099 -1.3884  0.4735
    4MOL   H595 2581   3.192   2.416   4.634  0.2275 -1.6079 -0.9921
    4MOL   C596 2582   3.408   2.865   5.577  0.3473 -0.2480  0.2494
    4MOL   C597 2583   3.551   2.917   5.546 -1.0689 -0.4095  0.0735
    4MOL   C598 2584   3.621   2.853   5.424  0.1728  0.3262 -0.1634
    4MOL   C599 2585   3.661   2.711   5.445 -0.0384 -0.1458  0.1142
    4MOL   C600 2586   3.664   2.612   5.328 -0.0484  0.2373  0.1668
    4MOL   C601 2587   3.660   2.466   5.358 -0.1130 -0.5866  0.0190
    4MOL   C602 2588   3.689   2.386   5.233  0.7224  0.0935  0.2018
    4MOL   C603 2589   3.630   2.248   5.234  0.7458 -0.2647 -0.3431
    4MOL   C604 2590   3.656   2.164   5.360  0.8311 -0.2400 -0.3291
    4MOL   C605 2591   3.604   2.016   5.359 -0.1483 -1.5433 -0.5057
    4MOL   C606 2592   3.657   1.925   5.247 -0.3344  0.3270 -0.2282
    4MOL   H607 2593   3.373   2.897   5.675 -1.9103 -0.3187 -0.5074
    4MOL   H608 2594   3.418   2.757   5.589  1.3229  0.0579  2.4006
    4MOL   H609 2595   3.547   3.024   5.525  0.0876 -0.7716 -2.1233
    4MOL   H610 2596   3.718   2.902   5.409  0.8976 -0.8121  0.7330
    4MOL   H611 2597   3.558   2.860   5.335 -0.5916 -0.5998  0.2981
    4MOL   H612 2598   3.605   2.674   5.531 -0.1985  1.2717  0.6252
    4MOL   H613 2599   3.756   2.703   5.497  0.0614 -0.0323 -0.0513
    4MOL   H614 2600   3.750   2.636   5.265  0.3494 -0.7733  0.2977
    4MOL   H615 2601   3.574   2.619   5.267 -0.0247  1.2875  0.2483
    4MOL   H616 2602   3.734   2.435   5.431  0.2863  1.2133  0.3986
    4MOL   H617 2603   3.561   2.446   5.401 -0.6861  2.4317  0.2636
    4MOL   H618 2604   3.797   2.373   5.234  0.8234  0.9757  0.3675
    4MOL   H619 2605   3.656   2.431   5.139  3.1903 -3.5670 -2.5723
    4MOL   H620 2606   3.679   2.198   5.150  1.1035  1.1006 -0.9536
    4MOL   H621 2607   3.521   2.245   5.227  0.5496 -1.3365  2.5994
    4MOL   H622 2608   3.761   2.162   5.389  0.6611  0.7344  0.4016
    4MOL   H623 2609   3.612   2.208   5.449  1.4274 -0.3257  0.0151
    4MOL   H624 2610   3.495   2.025   5.359 -0.0095  0.3186 -0.8409
    4MOL   H625 2611   3.642   1.980   5.455  0.4339 -2.0093 -0.9084
    4MOL   H626 2612   3.635   1.964   5.148 -0.9437 -1.2795 -0.7501
    4MOL   H627 2613   3.764   1.908   5.256 -0.3499  0.7372  0.7623
    4MOL   H628 2614   3.599   1.834   5.265  0.5984 -0.1358  0.4498
    4MOL   C629 2615   3.651   2.917   5.668  0.1235  0.5967 -0.7419
    4MOL   C630 2616   3.634   3.034   5.775  0.6735  0.9422 -0.2960
    4MOL   C631 2617   3.679   2.999   5.914  0.5896 -0.5420 -0.6060
    4MOL   C632 2618   3.581   2.893   5.988  0.0529 -0.9298  0.5965
    4MOL   C633 2619   3.655   2.792   6.078  0.3045 -0.0066  0.3675
    4MOL   C634 2620   3.571   2.683   6.142 -0.0238  0.7647  0.9003
    4MOL   C635 2621   3.494   2.731   6.261  0.4778  0.2223 -0.0227
    4MOL   C636 2622   3.377   2.639   6.306 -0.8521 -0.6394  0.1681
    4MOL   C637 2623   3.301   2.697   6.424  0.1898  0.3201  0.0419
    4MOL   C638 2624   3.166   2.633   6.458 -0.3650 -0.0327 -0.3122
    4MOL   C639 2625   3.061   2.605   6.358  1.3274 -0.6063  0.5198
    4MOL   H640 2626   3.643   2.819   5.715  0.8180  0.5083 -0.7984
    4MOL   H641 2627   3.756   2.923   5.639  0.0626 -0.3197 -1.1649
    4MOL   H642 2628   3.698   3.116   5.742  2.9664  0.5216  2.8553
    4MOL   H643 2629   3.781   2.960   5.910  0.9773  0.6090 -3.0121
    4MOL   H644 2630   3.678   3.089   5.976  0.8884  1.1181 -2.9496
    4MOL   H645 2631   3.515   2.845   5.915 -0.0956  2.2091 -1.4265
    4MOL   H646 2632   3.513   2.953   6.049 -0.2667  0.8582 -1.4527
    4MOL   H647 2633   3.704   2.851   6.155 -2.0478  0.9137  1.2042
    4MOL   H648 2634   3.727   2.737   6.017 -0.7828 -1.0173 -0.0322
    4MOL   H649 2635   3.638   2.603   6.175 -0.5753  0.1944  0.6575
    4MOL   H650 2636   3.509   2.639   6.064  1.0866  0.7515 -0.0060
    4MOL   H651 2637   3.461   2.832   6.237  1.9923  0.2760 -2.0138
    4MOL   H652 2638   3.560   2.737   6.348 -0.5151 -0.5249  0.8087
    4MOL   H653 2639   3.423   2.543   6.328  0.4914 -0.3224 -1.1556
    4MOL   H654 2640   3.311   2.629   6.220 -1.8331  0.1016  0.8149
    4MOL   H655 2641   3.279   2.803   6.414 -0.9711  0.4166  3.0219
    4MOL   H656 2642   3.372   2.699   6.508  0.0428  0.2604  0.1669
    4MOL   H657 2643   3.115   2.685   6.538  2.0502  0.6245  0.8543
    4MOL   H658 2644   3.195   2.531   6.483 -0.4965  0.2785  1.1575
    4MOL   H659 2645   2.982   2.546   6.405  0.0797  0.2976 -0.4023
    4MOL   H660 2646   3.091   2.571   6.259 -0.6005  0.0088 -0.2971
    4MOL   H661 2647   3.005   2.694   6.331 -0.1190 -0.1984  4.5228
    4MOL   H662 2648   3.529   3.063   5.776  0.1837 -0.8278  0.8705
    5MOL     C1 2649   4.799   4.618   0.148 -0.5916  0.4765  0.0454
    5MOL     C2 2650   4.851   4.748   0.215 -0.0521 -0.1568  0.2975
    5MOL     C3 2651   4.986   4.726   0.297 -0.0059  0.2510  0.6165
    5MOL     C4 2652   5.108   4.670   0.209  0.4287  0.5910 -0.3981
    5MOL     C5 2653   5.185   4.779   0.134 -0.1049 -0.2178  0.1014
    5MOL     C6 2654   5.331   4.736   0.100 -0.1153 -0.1740  0.0963
    5MOL     C7 2655   5.396   4.847   0.022 -0.0078 -0.4361  0.2503
    5MOL     C8 2656   5.371   4.829   7.581  0.2680  0.1135 -0.5638
    5MOL     C9 2657   5.476   4.898   7.496  0.0826  0.2293  1.0525
    5MOL    C10 2658   5.430   4.915   7.346  0.3948  0.1739 -0.1969
    5MOL    C11 2659   5.533   4.966   7.243  0.1270  0.0191  0.2668
    5MOL    H12 2660   4.833   4.605   0.045  0.9756  0.3801  0.5624
    5MOL    H13 2661   4.694   4.645   0.141 -1.2362 -1.5583  1.5255
    5MOL    H14 2662   4.771   4.765   0.287  0.4190  0.7929  0.5968
    5MOL    H15 2663   4.948   4.645   0.360  0.4711 -1.1615 -0.8631
    5MOL    H16 2664   5.019   4.810   0.358  3.4267  0.2142 -1.0767
    5MOL    H17 2665   5.082   4.589   0.140  0.1441  1.0154 -0.8007
    5MOL    H18 2666   5.177   4.632   0.284 -1.2421  0.9291  1.3610
    5MOL    H19 2667   5.129   4.804   0.044  1.7488  1.9602 -0.4999
    5MOL    H20 2668   5.190   4.862   0.204 -0.5496 -0.8173  0.8494
    5MOL    H21 2669   5.327   4.647   0.038  0.8047  0.4749 -0.8970
    5MOL    H22 2670   5.389   4.715   0.189  2.1723 -0.0477 -1.3422
    5MOL    H23 2671   5.371   4.950   0.047 -1.2049  0.2550 -3.4973
    5MOL    H24 2672   5.503   4.844   0.041 -0.2562 -0.1604  1.7663
    5MOL    H25 2673   5.272   4.867   7.559  1.3581  2.6664 -1.1896
    5MOL    H26 2674   5.375   4.724   7.551 -1.9014 -0.7021  1.8436
    5MOL    H27 2675   5.568   4.838   7.494 -0.2762 -0.3002  0.1551
    5MOL    H28 2676   5.486   4.998   7.537  1.3712 -0.6759  3.0633
    5MOL    H29 2677   5.345   4.983   7.343  0.9062  0.7991 -0.7474
    5MOL    H30 2678   5.403   4.817   7.306  0.1997 -0.6399  1.8805
    5MOL    H31 2679   5.543   5.074   7.243 -0.1100  0.0472 -1.1083
    5MOL    H32 2680   5.627   4.915   7.266  0.7021  1.0674  0.2431
    5MOL    H33 2681   5.494   4.940   7.145  0.5867  0.1462  0.0506
    5MOL    H34 2682   4.807   4.524   0.203 -0.3475 -0.6924 -1.9517
    5MOL    C35 2683   4.856   4.872   0.112 -0.1046  0.6241  0.1508
    5MOL    C36 2684   4.894   5.013   0.178 -0.3406  0.2078  0.4852
    5MOL    C37 2685   4.917   5.115   0.057  0.0278  0.3305 -0.4447
    5MOL    C38 2686   5.065   5.130   0.027 -0.0588  0.0054 -0.9086
    5MOL    C39 2687   5.090   5.241   7.621  0.6134 -0.2318 -0.1467
    5MOL    C40 2688   5.240   5.240   7.582  0.7057  0.1554 -0.3151
    5MOL    C41 2689   5.285   5.273   7.440  0.3428 -0.1320 -0.5787
    5MOL    C42 2690   5.436   5.289   7.427  0.5361 -0.1525  0.5130
    5MOL    C43 2691   5.472   5.335   7.286 -0.0815 -0.2120 -0.1223
    5MOL    C44 2692   5.624   5.350   7.268 -0.1616  0.4441  0.0184
    5MOL    C45 2693   5.656   5.367   7.115  0.5491  0.1010 -0.6709
    5MOL    H46 2694   4.759   4.881   0.064 -0.0125  1.0787  0.0497
    5MOL    H47 2695   4.926   4.855   0.031  2.1456 -0.5710  2.2648
    5MOL    H48 2696   4.993   4.992   0.220 -0.0807  1.2076  0.3982
    5MOL    H49 2697   4.860   5.085   7.672  0.3155 -2.8958  0.4147
    5MOL    H50 2698   4.881   5.215   0.084 -2.2295 -0.3824 -0.7316
    5MOL    H51 2699   5.108   5.034   7.702 -0.6833 -1.0533  1.5906
    5MOL    H52 2700   5.118   5.170   0.113 -0.8472 -0.6758 -0.0964
    5MOL    H53 2701   5.056   5.340   7.653 -1.0505 -0.3552 -1.4726
    5MOL    H54 2702   5.039   5.218   7.527  1.7373  2.8333 -1.5790
    5MOL    H55 2703   5.283   5.144   7.612  1.8337  0.8536  0.3087
    5MOL    H56 2704   5.289   5.314   7.645  1.6347  2.4013 -3.5319
    5MOL    H57 2705   5.245   5.206   7.364 -1.3698  1.7001 -1.3461
    5MOL    H58 2706   5.240   5.370   7.418  0.1507 -0.0720  0.0509
    5MOL    H59 2707   5.471   5.186   7.437  1.2629  0.1566  1.1495
    5MOL    H60 2708   5.475   5.358   7.501  3.6614 -0.4297 -0.8222
    5MOL    H61 2709   5.417   5.424   7.253 -1.3740 -0.2280  1.8930
    5MOL    H62 2710   5.444   5.251   7.222 -1.2151 -1.4232  1.9126
    5MOL    H63 2711   5.671   5.430   7.326 -0.7641  0.3641  0.6306
    5MOL    H64 2712   5.670   5.254   7.293  0.1565  0.5683 -0.0861
    5MOL    H65 2713   5.635   5.276   7.058  0.8063  0.2055 -0.9284
    5MOL    H66 2714   5.590   5.441   7.070  1.1478  2.0774  1.6276
    5MOL    H67 2715   5.762   5.387   7.099  0.8641  1.1311  2.4286
    5MOL    C68 2716   4.793   5.058   0.284  0.3922 -0.2376  0.2191
    5MOL    C69 2717   4.819   5.191   0.358  0.0183 -1.2282  0.4971
    5MOL    C70 2718   4.691   5.245   0.428 -0.5406  0.0587 -0.7954
    5MOL    C71 2719   4.578   5.280   0.330 -0.2756  0.4634  0.3626
    5MOL    C72 2720   4.470   5.355   0.403 -0.2942 -0.0201 -0.4357
    5MOL    C73 2721   4.352   5.364   0.311  0.1682 -0.1907 -0.1929
    5MOL    C74 2722   4.235   5.422   0.388  0.2343 -0.4496  0.3626
    5MOL    C75 2723   4.116   5.443   0.292  0.2409  1.0725  0.1988
    5MOL    C76 2724   4.136   5.553   0.189  0.2801  0.6679  0.2678
    5MOL    C77 2725   4.014   5.583   0.106  0.8196 -0.3620 -0.1639
    5MOL    C78 2726   4.023   5.711   0.026 -0.2897  0.4821 -0.0988
    5MOL    H79 2727   4.777   4.984   0.362 -1.2897 -0.6342 -0.4761
    5MOL    H80 2728   4.697   5.066   0.233 -0.0402  0.2343  1.0996
    5MOL    H81 2729   4.845   5.268   0.286  0.4100 -1.0098  0.8689
    5MOL    H82 2730   4.723   5.335   0.479 -1.4248  0.5380 -1.0822
    5MOL    H83 2731   4.648   5.176   0.501  0.5883  1.0291  0.8102
    5MOL    H84 2732   4.617   5.344   0.251  0.9738  0.1192  0.6832
    5MOL    H85 2733   4.537   5.196   0.274 -1.4260 -0.0286  1.8893
    5MOL    H86 2734   4.498   5.458   0.426  1.6385 -0.4489 -0.8050
    5MOL    H87 2735   4.438   5.298   0.491 -0.5895 -0.0753 -0.5768
    5MOL    H88 2736   4.375   5.419   0.220 -1.9563 -0.0922 -0.7139
    5MOL    H89 2737   4.332   5.263   0.274 -1.2241 -0.7013  1.8791
    5MOL    H90 2738   4.255   5.516   0.439  1.9744  0.6456 -2.2232
    5MOL    H91 2739   4.211   5.355   0.471 -1.3236 -1.2879 -0.7484
    5MOL    H92 2740   4.110   5.346   0.241 -0.4095  0.9066  0.5806
    5MOL    H93 2741   4.026   5.446   0.353  0.0040  0.5202 -0.1106
    5MOL    H94 2742   4.173   5.636   0.249 -0.8821 -0.1633  2.2024
    5MOL    H95 2743   4.212   5.536   0.113 -1.9053  1.5772 -2.2185
    5MOL    H96 2744   3.996   5.492   0.049 -0.0012  0.1039 -0.6664
    5MOL    H97 2745   3.931   5.587   0.175 -0.5463  0.8441 -1.8342
    5MOL    H98 2746   3.923   5.720   7.686  0.3705 -1.4367 -2.1569
    5MOL    H99 2747   4.098   5.704   7.650  2.9417  3.4039  2.5684
    5MOL   H100 2748   4.041   5.795   0.092  0.8517  0.4771 -0.3888
    5MOL   C101 2749   4.951   5.184   0.442 -0.1336 -0.1010  0.1922
    5MOL   C102 2750   4.984   5.317   0.524 -0.0669  0.4813 -0.4515
    5MOL   C103 2751   5.014   5.439   0.431 -0.5958  0.2761 -0.0485
    5MOL   C104 2752   5.158   5.440   0.369  0.7663  0.2397 -0.1239
    5MOL   C105 2753   5.156   5.543   0.262  0.0558 -0.3949 -0.4125
    5MOL   C106 2754   5.298   5.560   0.195  0.0809  0.5302 -0.3259
    5MOL   C107 2755   5.283   5.658   0.076  0.3734  0.3775  0.4193
    5MOL   C108 2756   5.271   5.811   0.099  0.6755  0.4946 -0.4482
    5MOL   C109 2757   5.250   5.898   7.678 -0.0407 -0.1299  0.7457
    5MOL   C110 2758   5.203   6.041   0.010  0.5905 -0.6061 -0.2396
    5MOL   C111 2759   5.184   6.127   7.586 -0.1189  0.0543  0.3611
    5MOL   H112 2760   4.950   5.103   0.515 -0.2993 -1.1194 -0.9184
    5MOL   H113 2761   5.031   5.169   0.369  0.6811  1.9978  0.6282
    5MOL   H114 2762   4.903   5.351   0.589  0.6580 -2.1108  1.9324
    5MOL   H115 2763   4.936   5.446   0.356  0.9105 -0.3065 -1.7080
    5MOL   H116 2764   5.015   5.534   0.485  1.4666  0.5251 -0.4620
    5MOL   H117 2765   5.236   5.460   0.442 -0.4741  0.3930  1.1820
    5MOL   H118 2766   5.188   5.346   0.323 -1.2627  0.5109 -2.1177
    5MOL   H119 2767   5.090   5.510   0.182  0.0472 -1.2652 -0.0559
    5MOL   H120 2768   5.126   5.639   0.304 -2.5409 -1.2871 -0.1449
    5MOL   H121 2769   5.371   5.596   0.267 -1.4495  0.8937  1.0657
    5MOL   H122 2770   5.337   5.466   0.155  0.6389 -0.1836  1.8205
    5MOL   H123 2771   5.192   5.635   0.022 -0.6297  1.4786  1.5958
    5MOL   H124 2772   5.358   5.636   0.001 -2.8729 -0.9547 -2.5542
    5MOL   H125 2773   5.200   5.829   0.179 -0.2848 -1.0814 -0.9209
    5MOL   H126 2774   5.374   5.822   0.132  0.4521  0.2393  0.3290
    5MOL   H127 2775   5.338   5.902   7.615 -0.9530  1.0891 -0.4920
    5MOL   H128 2776   5.171   5.840   7.628  0.9169  0.2561 -1.2449
    5MOL   H129 2777   5.277   6.079   0.081  1.7600 -0.0585 -1.7342
    5MOL   H130 2778   5.111   6.042   0.068  0.8199 -2.9735  0.2289
    5MOL   H131 2779   5.266   6.130   7.514  1.0731 -0.4384  1.6733
    5MOL   H132 2780   5.105   6.088   7.522  0.4710 -2.2982  1.0517
    5MOL   H133 2781   5.153   6.230   7.606 -0.0764  0.2024 -0.2933
    5MOL   C134 2782   5.097   5.301   0.625 -0.4701 -0.7957  0.4508
    5MOL   C135 2783   5.078   5.231   0.761  0.7901  0.1505 -0.1705
    5MOL   C136 2784   4.990   5.316   0.852  0.1839  0.3946 -0.1467
    5MOL   C137 2785   5.025   5.459   0.876  0.7534 -0.1518  0.1793
    5MOL   C138 2786   4.962   5.513   1.009  0.1067  0.2664 -0.1326
    5MOL   C139 2787   4.809   5.530   0.992  0.1670  0.2389  0.0874
    5MOL   C140 2788   4.738   5.590   1.113 -0.4899 -0.2119 -0.5544
    5MOL   C141 2789   4.589   5.559   1.125 -0.8171 -0.1397 -0.3874
    5MOL   C142 2790   4.500   5.620   1.022  0.6494  0.0334 -0.0669
    5MOL   C143 2791   4.486   5.524   0.898  0.1978  0.5891  0.4431
    5MOL   C144 2792   4.386   5.583   0.798  0.0246 -0.7671  0.4799
    5MOL   H145 2793   5.173   5.242   0.574 -0.6752 -0.5744 -0.1172
    5MOL   H146 2794   5.140   5.401   0.636 -0.9197 -0.3371 -1.7403
    5MOL   H147 2795   5.032   5.134   0.743  0.5419  0.4318 -1.0827
    5MOL   H148 2796   4.961   5.267   0.945  1.8937  1.1353  0.7894
    5MOL   H149 2797   4.888   5.319   0.813 -0.1650 -1.5904  0.5442
    5MOL   H150 2798   5.131   5.477   0.895  0.6209 -0.7961  1.5819
    5MOL   H151 2799   4.996   5.526   0.795  1.3792 -0.3535 -0.2199
    5MOL   H152 2800   4.984   5.439   1.086  1.9922  0.8475 -0.1016
    5MOL   H153 2801   5.017   5.597   1.050  0.8457 -0.1761 -0.2072
    5MOL   H154 2802   4.789   5.592   0.905 -0.3585 -1.0513 -0.7360
    5MOL   H155 2803   4.764   5.432   0.970  0.7463  0.2649 -1.2516
    5MOL   H156 2804   4.789   5.558   1.204 -0.6301  0.0244 -0.3943
    5MOL   H157 2805   4.752   5.698   1.101  2.9585 -0.6781 -1.5244
    5MOL   H158 2806   4.578   5.452   1.138 -3.6328  0.3642  2.0803
    5MOL   H159 2807   4.558   5.601   1.221  1.8045  1.6671 -0.2783
    5MOL   H160 2808   4.400   5.626   1.065  0.8136  1.1051  0.1598
    5MOL   H161 2809   4.518   5.722   0.990  0.0861 -0.2716 -1.3831
    5MOL   H162 2810   4.579   5.523   0.841  0.3313  2.1823  0.6295
    5MOL   H163 2811   4.449   5.426   0.930 -1.1674  0.6411 -0.9273
    5MOL   H164 2812   4.296   5.617   0.850 -1.4145 -3.3268 -0.2588
    5MOL   H165 2813   4.367   5.510   0.719  0.5457 -1.6467  1.1539
    5MOL   H166 2814   4.417   5.675   0.749  0.2902 -1.3245 -0.4239
    5MOL   C167 2815   5.216   5.207   0.824  0.1415  0.3806 -1.3669
    5MOL   C168 2816   5.238   5.113   0.948  0.7463 -0.6236 -0.2408
    5MOL   C169 2817   5.364   5.184   1.010  0.3991  0.0444 -0.1977
    5MOL   C170 2818   5.335   5.316   1.081  0.1094 -0.8660 -0.8116
    5MOL   C171 2819   5.456   5.368   1.157 -0.3593  0.1798  0.0241
    5MOL   C172 2820   5.439   5.504   1.224 -0.5091  0.9175  0.9645
    5MOL   C173 2821   5.574   5.563   1.268  0.3745 -0.0439  0.2009
    5MOL   C174 2822   5.561   5.707   1.331 -0.0235  0.2671 -0.0791
    5MOL   C175 2823   5.697   5.765   1.364  0.1355  0.1623  0.4057
    5MOL   C176 2824   5.683   5.916   1.397  0.0435  0.4833  0.4367
    5MOL   C177 2825   5.819   5.978   1.419  0.3863 -0.1698  0.2991
    5MOL   H178 2826   5.296   5.183   0.754 -0.1085 -2.2736 -0.8166
    5MOL   H179 2827   5.246   5.309   0.844  0.6641  0.3159 -1.8169
    5MOL   H180 2828   5.158   5.111   1.021 -0.8833  0.3031 -1.9647
    5MOL   H181 2829   5.452   5.188   0.946  0.6955  0.1821  0.2138
    5MOL   H182 2830   5.397   5.116   1.088 -0.7557 -2.3856 -1.7498
    5MOL   H183 2831   5.296   5.397   1.019  1.3184 -0.2207 -0.7569
    5MOL   H184 2832   5.255   5.294   1.151  0.7224  1.6082  0.7233
    5MOL   H185 2833   5.548   5.375   1.099 -1.3967 -1.0462 -1.8032
    5MOL   H186 2834   5.486   5.299   1.236  0.5389  0.6399  0.0931
    5MOL   H187 2835   5.393   5.577   1.158  2.1813  1.6967 -0.1097
    5MOL   H188 2836   5.379   5.501   1.315 -0.7237 -1.9607  0.7659
    5MOL   H189 2837   5.643   5.568   1.184  0.6592 -0.5656  0.3988
    5MOL   H190 2838   5.626   5.497   1.338  0.9790 -0.6047 -0.7716
    5MOL   H191 2839   5.503   5.773   1.266  0.4676  0.8028  0.0210
    5MOL   H192 2840   5.500   5.701   1.422  0.5900 -0.8167  0.2718
    5MOL   H193 2841   5.763   5.757   1.277  0.3924  0.6633  0.5533
    5MOL   H194 2842   5.757   5.708   1.435 -0.3380 -1.1621 -0.2314
    5MOL   H195 2843   5.630   5.918   1.492  0.2713 -1.9842  0.6308
    5MOL   H196 2844   5.628   5.964   1.316  2.1850  2.4458  0.0649
    5MOL   H197 2845   5.856   5.999   1.318  2.7152  0.6412  1.3002
    5MOL   H198 2846   5.886   5.904   1.463 -0.0108 -0.4193  0.4913
    5MOL   H199 2847   5.820   6.071   1.475 -0.5445 -0.2758  0.4990
    5MOL   C200 2848   5.262   4.971   0.896  0.1690  0.4909  0.4579
    5MOL   C201 2849   5.162   4.900   0.806 -0.3930  0.0085 -0.4302
    5MOL   C202 2850   5.038   4.871   0.906 -0.0932  0.4722  0.4441
    5MOL   C203 2851   4.923   4.790   0.842  0.6423  0.5195  0.7741
    5MOL   C204 2852   4.820   4.863   0.757  0.1156 -0.1774  0.3484
    5MOL   C205 2853   4.714   4.940   0.841  0.2062  0.3177  0.4286
    5MOL   C206 2854   4.614   4.999   0.750  0.0366 -0.0024  0.0511
    5MOL   C207 2855   4.489   5.047   0.831 -0.0371 -0.0735  0.2021
    5MOL   C208 2856   4.384   5.112   0.727 -0.7601 -0.4962 -0.0092
    5MOL   C209 2857   4.335   5.030   0.600 -0.9459 -0.6121 -0.0754
    5MOL   C210 2858   4.294   4.888   0.628 -0.3636 -0.1180 -0.0812
    5MOL   H211 2859   5.361   4.980   0.849  0.7191 -2.9562  0.8017
    5MOL   H212 2860   5.293   4.904   0.976  0.2346 -1.5888 -1.2304
    5MOL   H213 2861   5.123   4.966   0.728  1.6638  0.4968 -1.0647
    5MOL   H214 2862   4.999   4.964   0.947 -0.8367  0.3765 -0.0299
    5MOL   H215 2863   5.082   4.811   0.985 -0.2028 -0.9068 -0.5188
    5MOL   H216 2864   4.865   4.752   0.926  0.7359  1.3625  1.2274
    5MOL   H217 2865   4.963   4.702   0.792  0.3453  0.0853  1.2885
    5MOL   H218 2866   4.765   4.789   0.699  0.4434  0.9238 -1.4099
    5MOL   H219 2867   4.853   4.942   0.690 -0.6557  1.0587  1.3951
    5MOL   H220 2868   4.654   4.883   0.912 -1.9782 -0.3402 -1.8884
    5MOL   H221 2869   4.762   5.030   0.880 -1.7839  1.5975 -0.0133
    5MOL   H222 2870   4.575   4.935   0.670 -0.2124 -1.5536  1.3985
    5MOL   H223 2871   4.660   5.079   0.692  2.4747  0.5034  2.6145
    5MOL   H224 2872   4.525   5.118   0.905 -0.6110  0.5719 -0.1315
    5MOL   H225 2873   4.442   4.969   0.891  1.3559  0.1176  1.5876
    5MOL   H226 2874   4.421   5.209   0.696  1.4393 -0.8153  1.4689
    5MOL   H227 2875   4.291   5.129   0.782 -0.2392  0.4866  0.5798
    5MOL   H228 2876   4.253   5.083   0.553 -1.3721  0.0217  1.3609
    5MOL   H229 2877   4.406   5.022   0.518 -1.6241 -1.7697 -0.5576
    5MOL   H230 2878   4.265   4.832   0.539 -1.7694  0.4368  0.0242
    5MOL   H231 2879   4.214   4.891   0.702 -0.2302  0.8067  0.0259
    5MOL   H232 2880   4.374   4.830   0.674 -0.0319 -1.3068 -2.1223
    5MOL   C233 2881   5.211   4.765   0.737 -0.1376  0.6367 -0.0425
    5MOL   C234 2882   5.354   4.758   0.688  0.1973 -0.4077  0.3988
    5MOL   C235 2883   5.387   4.874   0.596  0.3767 -0.3851  0.4033
    5MOL   C236 2884   5.310   4.899   0.464 -0.2704 -0.1032  0.1790
    5MOL   C237 2885   5.339   5.037   0.397  0.0258 -1.3588  0.7092
    5MOL   C238 2886   5.469   5.043   0.311  0.2596 -0.5220  0.1220
    5MOL   C239 2887   5.488   5.175   0.242 -0.2973 -0.2855 -0.0062
    5MOL   C240 2888   5.638   5.179   0.175  0.8406 -0.3282 -0.8471
    5MOL   C241 2889   5.648   5.301   0.077 -0.3571 -0.1382 -0.4573
    5MOL   C242 2890   5.665   5.436   0.151  0.8422  0.1517 -0.1018
    5MOL   C243 2891   5.697   5.550   0.051 -0.3535 -0.2089 -0.4035
    5MOL   H244 2892   5.146   4.748   0.652 -0.0070 -0.5591  0.0889
    5MOL   H245 2893   5.200   4.678   0.802 -2.4368 -0.3444 -1.7132
    5MOL   H246 2894   5.429   4.771   0.766  1.2659  1.5166 -0.8996
    5MOL   H247 2895   5.381   4.968   0.652  2.5009  0.8242 -1.2937
    5MOL   H248 2896   5.492   4.890   0.569  0.5999 -1.3948  0.6342
    5MOL   H249 2897   5.202   4.898   0.477 -0.1787 -0.2965  0.9492
    5MOL   H250 2898   5.341   4.821   0.394 -1.3109  0.4874 -0.9648
    5MOL   H251 2899   5.333   5.106   0.481 -1.4885 -0.6164  0.0215
    5MOL   H252 2900   5.253   5.062   0.335  0.4255 -0.2682  0.5962
    5MOL   H253 2901   5.463   4.959   0.242 -2.2028  0.9716 -1.5506
    5MOL   H254 2902   5.545   5.028   0.387  1.4902 -0.4818 -1.0839
    5MOL   H255 2903   5.422   5.178   0.155 -0.9855  1.7478  0.5522
    5MOL   H256 2904   5.459   5.253   0.312 -1.0717 -1.2055  0.7048
    5MOL   H257 2905   5.708   5.179   0.258 -0.5153  1.1689  0.3542
    5MOL   H258 2906   5.649   5.093   0.109 -1.0167  0.0872 -1.7658
    5MOL   H259 2907   5.740   5.290   0.020 -1.2339 -3.1984 -1.3771
    5MOL   H260 2908   5.567   5.306   0.005  1.5205  0.1380 -2.6317
    5MOL   H261 2909   5.744   5.420   0.224  1.0666  0.4494 -0.2813
    5MOL   H262 2910   5.578   5.456   0.214 -0.3677 -1.1370 -1.3465
    5MOL   H263 2911   5.718   5.642   0.106  2.8801 -0.7087 -0.6992
    5MOL   H264 2912   5.619   5.562   7.679 -1.3654  1.1243  0.8201
    5MOL   H265 2913   5.791   5.536   7.701  0.4067  2.6630  0.0960
    5MOL   C266 2914   5.382   4.620   0.622 -0.0483  0.4743  0.3802
    5MOL   C267 2915   5.525   4.588   0.576  0.5556 -0.4492 -0.1529
    5MOL   C268 2916   5.529   4.454   0.505  0.3273 -0.2645  0.7390
    5MOL   C269 2917   5.511   4.327   0.598  0.3141  0.7222  0.2944
    5MOL   C270 2918   5.499   4.204   0.512 -0.1846  0.5365  0.2922
    5MOL   C271 2919   5.512   4.073   0.593  0.5078 -0.5814  0.3443
    5MOL   C272 2920   5.508   3.943   0.517  0.8286 -0.1362 -0.2027
    5MOL   C273 2921   5.367   3.885   0.543 -0.4728 -0.2242  0.8297
    5MOL   C274 2922   5.364   3.754   0.472 -0.4885 -0.1184  0.4051
    5MOL   C275 2923   5.223   3.688   0.470 -0.8493 -0.0151 -0.4079
    5MOL   C276 2924   5.168   3.631   0.602  0.3336 -0.1027  0.1354
    5MOL   H277 2925   5.321   4.598   0.534  1.6898  1.4034 -1.0844
    5MOL   H278 2926   5.353   4.543   0.694 -1.1664  0.1324 -0.4246
    5MOL   H279 2927   5.552   4.662   0.501 -3.5458  1.7137  0.3309
    5MOL   H280 2928   5.442   4.455   0.439  0.6007 -0.1847  0.3718
    5MOL   H281 2929   5.618   4.449   0.441  0.4767 -1.6268  1.0428
    5MOL   H282 2930   5.419   4.312   0.655 -0.5723  0.9493 -1.0631
    5MOL   H283 2931   5.601   4.318   0.659  1.0718  1.0050 -0.7504
    5MOL   H284 2932   5.579   4.198   0.438  0.0108  1.2965  0.4310
    5MOL   H285 2933   5.408   4.208   0.452  0.1341  0.5079 -0.1975
    5MOL   H286 2934   5.433   4.072   0.668  0.0942  0.4443 -0.0653
    5MOL   H287 2935   5.610   4.083   0.641  0.6410  1.4465 -0.2913
    5MOL   H288 2936   5.527   3.959   0.411 -0.4193  0.4182 -0.3620
    5MOL   H289 2937   5.581   3.875   0.560  0.4160 -0.3274  0.2068
    5MOL   H290 2938   5.288   3.944   0.497  0.5111  1.7883  1.6449
    5MOL   H291 2939   5.342   3.874   0.649 -1.0121  0.5259  0.7811
    5MOL   H292 2940   5.392   3.771   0.368 -0.0062 -3.1961 -0.0388
    5MOL   H293 2941   5.442   3.681   0.496 -0.3010 -0.1162 -0.1911
    5MOL   H294 2942   5.222   3.602   0.404 -0.7674  0.4321 -0.9965
    5MOL   H295 2943   5.160   3.766   0.427 -2.4251 -0.1635  1.5406
    5MOL   H296 2944   5.068   3.595   0.581  0.6757 -1.7183  1.2079
    5MOL   H297 2945   5.179   3.717   0.669  1.7138  0.5606 -0.9057
    5MOL   H298 2946   5.232   3.550   0.639  0.3483 -0.3889 -0.5130
    5MOL   C299 2947   5.636   4.609   0.688 -0.0684  0.2335 -0.6762
    5MOL   C300 2948   5.786   4.579   0.643 -0.0032 -0.0351 -0.2764
    5MOL   C301 2949   5.877   4.550   0.759 -0.5593  0.4540  1.1832
    5MOL   C302 2950   5.987   4.447   0.723  0.1826  0.1577 -0.0016
    5MOL   C303 2951   6.074   4.415   0.846  0.7821  0.9070 -0.4955
    5MOL   C304 2952   6.209   4.354   0.796 -0.3623  0.5294  0.1216
    5MOL   C305 2953   6.314   4.315   0.899 -0.0154 -0.0966  0.7407
    5MOL   C306 2954   6.419   4.218   0.840 -0.5653  0.1414 -0.5934
    5MOL   C307 2955   6.534   4.182   0.937 -0.1363 -0.4838  0.0652
    5MOL   C308 2956   6.641   4.099   0.872 -0.1050 -0.0432  0.6520
    5MOL   C309 2957   6.719   4.026   0.983  0.1978 -0.4498 -0.1187
    5MOL   H310 2958   5.604   4.550   0.774  1.5592 -2.7986 -2.0831
    5MOL   H311 2959   5.637   4.713   0.719  1.1741  0.4903 -1.5132
    5MOL   H312 2960   5.771   4.483   0.594  0.0588  0.6382 -1.6350
    5MOL   H313 2961   5.922   4.646   0.786 -0.4168  1.7712 -3.3678
    5MOL   H314 2962   5.821   4.518   0.847  0.1091 -3.4874  0.2696
    5MOL   H315 2963   5.941   4.357   0.684 -0.1411  0.5604 -0.5495
    5MOL   H316 2964   6.041   4.489   0.638  1.1588  0.8761  0.9611
    5MOL   H317 2965   6.106   4.501   0.905 -1.0487  0.5258  1.1134
    5MOL   H318 2966   6.019   4.350   0.914  1.3327  2.1484  1.1912
    5MOL   H319 2967   6.269   4.416   0.730 -1.7953  0.3731 -1.3347
    5MOL   H320 2968   6.197   4.274   0.723 -1.8818  0.2420  0.6750
    5MOL   H321 2969   6.356   4.405   0.943  1.3620  0.2271 -1.1861
    5MOL   H322 2970   6.260   4.278   0.987 -2.3173  3.6435  0.9870
    5MOL   H323 2971   6.451   4.267   0.749 -2.2040  0.1463 -1.1852
    5MOL   H324 2972   6.368   4.128   0.806 -1.2438  0.0372  0.6712
    5MOL   H325 2973   6.490   4.136   1.026  0.4869 -1.0709  0.0738
    5MOL   H326 2974   6.577   4.276   0.973  1.1393 -0.3174 -1.8205
    5MOL   H327 2975   6.701   4.163   0.806  0.0988 -0.5479  0.3470
    5MOL   H328 2976   6.597   4.023   0.807  1.3325  0.0214 -0.4330
    5MOL   H329 2977   6.658   3.971   1.055  0.9283  0.7355  1.4405
    5MOL   H330 2978   6.797   3.959   0.948 -0.9531 -3.2481  2.4540
    5MOL   H331 2979   6.790   4.089   1.037 -1.2762  1.6376 -0.5432
    5MOL   C332 2980   5.850   4.671   0.530  0.1975  0.2873 -0.3689
    5MOL   C333 2981   5.840   4.830   0.534  0.2173 -0.5852 -0.7825
    5MOL   C334 2982   5.826   4.894   0.391 -1.0233 -0.1486  0.1804
    5MOL   C335 2983   5.951   4.872   0.311 -0.0259 -0.1227 -0.0114
    5MOL   C336 2984   5.926   4.893   0.159 -0.1953  0.1156 -0.0320
    5MOL   C337 2985   5.803   4.821   0.097  0.1178  0.6445 -0.1233
    5MOL   C338 2986   5.818   4.667   0.107  0.7373 -0.9514 -0.2211
    5MOL   C339 2987   5.686   4.599   0.085 -0.8217  0.3708  0.5905
    5MOL   C340 2988   5.699   4.453   0.052 -0.0345  0.0850  0.2411
    5MOL   C341 2989   5.560   4.402   0.004  0.4122  0.0635 -0.1891
    5MOL   C342 2990   5.458   4.396   0.117  0.5171 -0.1344  0.3409
    5MOL   H343 2991   5.956   4.648   0.519  0.1771 -0.7710  1.4632
    5MOL   H344 2992   5.813   4.638   0.434 -0.5906 -0.8288  0.3105
    5MOL   H345 2993   5.738   4.844   0.570  0.3914 -0.4664 -0.3317
    5MOL   H346 2994   5.791   4.997   0.401  2.5415  0.9676  2.2774
    5MOL   H347 2995   5.744   4.841   0.344  0.3333  0.0846 -2.6181
    5MOL   H348 2996   6.031   4.943   0.334 -0.8793  1.4954 -1.8913
    5MOL   H349 2997   6.002   4.779   0.337  0.6507  0.8912  2.4159
    5MOL   H350 2998   5.912   4.999   0.137  0.5784  0.0508 -0.8691
    5MOL   H351 2999   6.019   4.867   0.109 -1.1270 -1.1051 -1.1592
    5MOL   H352 3000   5.790   4.855   7.698 -0.6982 -1.3844 -0.7340
    5MOL   H353 3001   5.708   4.854   0.139  1.0814  0.5344  2.2214
    5MOL   H354 3002   5.861   4.634   0.202  0.8807 -1.7832 -0.5650
    5MOL   H355 3003   5.894   4.634   0.036  0.0562 -1.7303 -0.5964
    5MOL   H356 3004   5.625   4.633   0.168 -1.3949 -0.8751  0.6952
    5MOL   H357 3005   5.640   4.636   7.696 -1.3701 -3.1221 -0.6308
    5MOL   H358 3006   5.741   4.392   0.132 -0.2666 -1.4306 -0.7882
    5MOL   H359 3007   5.766   4.456   7.670 -0.8358  1.8444 -0.3433
    5MOL   H360 3008   5.566   4.305   7.660  0.6287 -0.1045  0.1782
    5MOL   H361 3009   5.509   4.455   7.627 -2.6836 -2.2492  0.1366
    5MOL   H362 3010   5.478   4.311   0.183  0.9348 -1.2606 -1.2066
    5MOL   H363 3011   5.436   4.481   0.181  1.1818  1.8338 -1.9843
    5MOL   H364 3012   5.367   4.354   0.074 -0.4046  1.4711  0.6902
    5MOL   C365 3013   5.942   4.902   0.622  0.2450  0.0979 -0.1113
    5MOL   C366 3014   5.918   5.055   0.653 -0.6050  0.2385  0.5141
    5MOL   C367 3015   5.770   5.102   0.691  0.3993  0.4100 -0.1263
    5MOL   C368 3016   5.742   5.252   0.663  0.7647  0.0457 -0.1600
    5MOL   C369 3017   5.608   5.295   0.698  0.1059 -0.0389  0.0870
    5MOL   C370 3018   5.582   5.446   0.691 -0.3871 -0.4524  0.5927
    5MOL   C371 3019   5.444   5.497   0.731 -0.0800  0.4551  0.4860
    5MOL   C372 3020   5.440   5.648   0.751 -0.5024 -0.5051  0.0706
    5MOL   C373 3021   5.309   5.699   0.824 -0.5302  0.2585  1.0994
    5MOL   C374 3022   5.309   5.834   0.888 -1.1290  0.5457 -0.0716
    5MOL   C375 3023   5.184   5.859   0.975  0.3205 -0.4985  0.2039
    5MOL   H376 3024   5.933   4.857   0.721 -1.6019  0.7271  0.0152
    5MOL   H377 3025   6.043   4.895   0.582 -0.1876  4.0634 -2.0482
    5MOL   H378 3026   5.940   5.097   0.555  0.9976  0.9521  1.1733
    5MOL   H379 3027   5.760   5.085   0.799 -1.8222  0.5614 -0.2838
    5MOL   H380 3028   5.690   5.040   0.650  1.3527 -0.5583 -0.5602
    5MOL   H381 3029   5.739   5.276   0.557  0.7673 -1.6547 -0.5564
    5MOL   H382 3030   5.823   5.310   0.708  1.1452 -0.3576 -0.3262
    5MOL   H383 3031   5.587   5.261   0.800  2.2551 -1.1381  0.1801
    5MOL   H384 3032   5.529   5.238   0.648 -1.0385  0.4981  1.2304
    5MOL   H385 3033   5.605   5.489   0.593 -0.4703 -0.6137  0.5012
    5MOL   H386 3034   5.658   5.489   0.756 -1.0441 -0.7555  1.5665
    5MOL   H387 3035   5.380   5.460   0.651  0.3417  0.0387  0.3406
    5MOL   H388 3036   5.408   5.451   0.824  0.5441 -0.9784  0.0323
    5MOL   H389 3037   5.438   5.699   0.655 -0.1690  1.3922  1.0526
    5MOL   H390 3038   5.526   5.678   0.812 -0.3609 -0.8187  0.0308
    5MOL   H391 3039   5.223   5.703   0.758 -1.2148  2.1527  2.0706
    5MOL   H392 3040   5.286   5.625   0.900  0.0966  1.0119  2.0333
    5MOL   H393 3041   5.397   5.844   0.951 -1.3092 -1.6084  0.5554
    5MOL   H394 3042   5.310   5.899   0.800 -0.2913 -0.1764 -0.6138
    5MOL   H395 3043   5.165   5.773   1.040 -0.6075 -1.6615 -1.5909
    5MOL   H396 3044   5.094   5.881   0.919 -0.0620  0.6597  1.2210
    5MOL   H397 3045   5.202   5.948   1.036 -2.6912  0.1526  0.2215
    5MOL   C398 3046   6.027   5.109   0.757  0.4188  0.0888 -0.2739
    5MOL   C399 3047   6.162   5.145   0.711  0.5556 -0.5210  0.1421
    5MOL   C400 3048   6.259   5.175   0.829 -0.2279  0.2978 -0.5142
    5MOL   C401 3049   6.371   5.073   0.847 -0.1573  0.2696 -0.7854
    5MOL   C402 3050   6.327   4.939   0.909 -0.4162 -0.0522 -0.6107
    5MOL   C403 3051   6.455   4.872   0.963  0.2003  0.8548 -0.5012
    5MOL   C404 3052   6.422   4.737   1.023 -0.0943  0.2897 -0.3898
    5MOL   C405 3053   6.547   4.666   1.086 -0.4512  0.5238 -0.0093
    5MOL   C406 3054   6.605   4.728   1.217  0.2149  0.3652  0.0748
    5MOL   C407 3055   6.505   4.709   1.339  0.1032 -0.0443  0.1556
    5MOL   C408 3056   6.557   4.779   1.464  0.2694  0.3833 -0.0493
    5MOL   H409 3057   6.035   5.029   0.831 -3.3193 -0.1920 -0.0712
    5MOL   H410 3058   5.986   5.181   0.828  1.6056  0.1374  0.3806
    5MOL   H411 3059   6.206   5.063   0.656 -0.3012  0.2706 -1.7457
    5MOL   H412 3060   6.199   5.194   0.918 -0.3044  2.3979 -0.9808
    5MOL   H413 3061   6.303   5.274   0.812  0.2129  0.3680  0.9495
    5MOL   H414 3062   6.421   5.053   0.753  0.1902  3.1178 -1.2248
    5MOL   H415 3063   6.449   5.120   0.906  0.5217  0.4287 -1.8020
    5MOL   H416 3064   6.268   4.960   0.998 -0.2119 -0.8233 -0.2901
    5MOL   H417 3065   6.270   4.880   0.838 -1.7879  0.4715  0.0313
    5MOL   H418 3066   6.488   4.938   1.043 -0.2346  1.8153 -1.1140
    5MOL   H419 3067   6.526   4.853   0.882  0.1542 -0.9801 -0.1275
    5MOL   H420 3068   6.330   4.732   1.081 -0.9384 -1.6572 -1.8160
    5MOL   H421 3069   6.397   4.678   0.935  1.8768 -1.4095  0.1608
    5MOL   H422 3070   6.626   4.670   1.011  0.9749 -2.2286  1.2667
    5MOL   H423 3071   6.535   4.558   1.097  1.9486  0.3720  1.4972
    5MOL   H424 3072   6.695   4.672   1.237  1.3098  2.7046  1.9658
    5MOL   H425 3073   6.641   4.830   1.203 -1.1313  0.7725 -0.5357
    5MOL   H426 3074   6.497   4.602   1.359 -0.0343  0.0381  0.5373
    5MOL   H427 3075   6.408   4.744   1.305 -0.0770 -0.7986 -0.1081
    5MOL   H428 3076   6.478   4.757   1.537 -1.2264 -1.2726 -2.1095
    5MOL   H429 3077   6.580   4.885   1.461 -1.6224  0.7617 -2.0576
    5MOL   H430 3078   6.648   4.726   1.492 -0.7485 -2.7410 -2.3621
    5MOL   C431 3079   6.171   5.262   0.604  0.0322 -0.0792  0.0360
    5MOL   C432 3080   6.296   5.247   0.510 -0.1916  0.0818  0.2388
    5MOL   C433 3081   6.340   5.384   0.461  0.1012 -0.1763  0.2234
    5MOL   C434 3082   6.424   5.469   0.565  0.1595  0.1797  0.1130
    5MOL   C435 3083   6.554   5.396   0.614 -0.7797  0.0254  0.3138
    5MOL   C436 3084   6.657   5.494   0.663 -0.2621  0.5995  0.2351
    5MOL   C437 3085   6.639   5.539   0.807 -0.2119 -0.0984 -0.5134
    5MOL   C438 3086   6.769   5.594   0.872  0.4646  0.3495 -0.4862
    5MOL   C439 3087   6.759   5.600   1.029  0.4784 -0.4709 -0.7570
    5MOL   C440 3088   6.817   5.471   1.079  0.5279  0.0677  0.5079
    5MOL   C441 3089   6.850   5.469   1.224 -0.1265  0.2894  0.7348
    5MOL   H442 3090   6.182   5.350   0.667 -0.0973  0.5373 -0.7936
    5MOL   H443 3091   6.082   5.274   0.544 -0.4515 -2.7681  0.1287
    5MOL   H444 3092   6.376   5.208   0.573  2.1402  0.9197 -2.0844
    5MOL   H445 3093   6.406   5.387   0.374  0.1188 -0.0323  0.2418
    5MOL   H446 3094   6.254   5.444   0.433  1.7298  1.9059 -0.4179
    5MOL   H447 3095   6.361   5.484   0.652  2.0388 -1.7826  1.8757
    5MOL   H448 3096   6.432   5.569   0.522  0.4907 -0.4318 -1.2628
    5MOL   H449 3097   6.596   5.360   0.521 -0.2203  1.9505 -0.2084
    5MOL   H450 3098   6.527   5.313   0.679 -2.6247  0.8090  0.5766
    5MOL   H451 3099   6.666   5.580   0.597 -0.3233 -1.3060 -2.3379
    5MOL   H452 3100   6.749   5.436   0.652 -0.1439  0.9195 -0.5362
    5MOL   H453 3101   6.604   5.450   0.858  0.9442  0.6238  1.6374
    5MOL   H454 3102   6.553   5.606   0.806  1.0629  1.5754 -1.3741
    5MOL   H455 3103   6.857   5.541   0.836 -1.1866 -1.7387 -1.5868
    5MOL   H456 3104   6.780   5.693   0.828 -0.5852  0.6548 -0.0707
    5MOL   H457 3105   6.659   5.619   1.067  0.5293 -0.6320 -0.5423
    5MOL   H458 3106   6.818   5.685   1.063  1.8562 -1.0731 -1.6178
    5MOL   H459 3107   6.910   5.459   1.024  1.5854  0.8139  2.0801
    5MOL   H460 3108   6.756   5.387   1.047 -0.3041  1.1327 -0.7652
    5MOL   H461 3109   6.904   5.381   1.258  0.8836  0.3592 -0.6338
    5MOL   H462 3110   6.905   5.559   1.254 -0.8046  1.4398 -1.3188
    5MOL   H463 3111   6.755   5.480   1.275 -0.6625  2.2435 -0.5804
    5MOL   C464 3112   6.258   5.155   0.398 -0.4972  0.1865 -0.0566
    5MOL   C465 3113   6.377   5.100   0.315 -0.4795  0.1683 -0.1307
    5MOL   C466 3114   6.466   5.011   0.402 -0.3840  0.1207 -0.3871
    5MOL   C467 3115   6.400   4.894   0.474 -0.0199 -0.0130 -1.1158
    5MOL   C468 3116   6.506   4.785   0.534  0.2680 -0.1130  1.0738
    5MOL   C469 3117   6.429   4.653   0.575  0.5029  0.5357 -0.5709
    5MOL   C470 3118   6.519   4.535   0.608 -0.2006  0.8637  0.8916
    5MOL   C471 3119   6.586   4.545   0.746 -0.1299  0.1347  0.5135
    5MOL   C472 3120   6.703   4.447   0.776  0.2579  0.1234 -0.0730
    5MOL   C473 3121   6.836   4.505   0.722 -0.3189 -0.1956  0.7854
    5MOL   C474 3122   6.972   4.428   0.746  0.0087  0.2733  0.0008
    5MOL   H475 3123   6.192   5.209   0.330  0.0031  1.7341  0.6675
    5MOL   H476 3124   6.195   5.076   0.440 -0.3811 -0.2698 -0.7340
    5MOL   H477 3125   6.432   5.184   0.273 -0.3635 -0.3522 -1.0444
    5MOL   H478 3126   6.523   5.070   0.473 -0.3084 -1.7061  1.0900
    5MOL   H479 3127   6.546   4.979   0.336 -0.4604 -0.7091 -0.0787
    5MOL   H480 3128   6.344   4.932   0.560  0.0043  1.5267 -1.7715
    5MOL   H481 3129   6.338   4.832   0.409 -2.3252 -1.3511  2.1958
    5MOL   H482 3130   6.545   4.833   0.624  0.3143  2.0935 -0.0738
    5MOL   H483 3131   6.586   4.769   0.461 -0.8275  0.4094 -0.2544
    5MOL   H484 3132   6.355   4.655   0.655  0.6009  2.2877 -0.5180
    5MOL   H485 3133   6.372   4.615   0.490 -2.0623  2.5005  0.1729
    5MOL   H486 3134   6.468   4.439   0.598 -1.6523  1.5696  1.4410
    5MOL   H487 3135   6.594   4.538   0.529  0.5038  0.2754  1.5183
    5MOL   H488 3136   6.609   4.647   0.778 -0.6657  0.3295  0.2899
    5MOL   H489 3137   6.499   4.524   0.809  0.6190 -2.7265  0.6493
    5MOL   H490 3138   6.699   4.416   0.880 -1.2855 -4.0906 -1.2669
    5MOL   H491 3139   6.678   4.355   0.722  1.4844  0.3142 -0.9964
    5MOL   H492 3140   6.811   4.504   0.616 -0.8273 -2.6290  0.8852
    5MOL   H493 3141   6.845   4.612   0.735 -1.3531  0.3035 -2.1692
    5MOL   H494 3142   7.038   4.441   0.661 -0.3278 -2.0544 -0.6486
    5MOL   H495 3143   6.946   4.322   0.750 -2.3049  0.7413 -1.5958
    5MOL   H496 3144   7.017   4.458   0.841 -1.1839 -1.9050  1.3098
    5MOL   C497 3145   6.322   5.033   0.185  0.4991 -0.2559  0.2518
    5MOL   C498 3146   6.421   5.010   0.064 -0.0105  0.0453 -0.1591
    5MOL   C499 3147   6.433   5.137   7.674  0.4556 -0.4751  0.2439
    5MOL   C500 3148   6.554   5.147   7.580  0.4594 -0.1368  0.2385
    5MOL   C501 3149   6.505   5.205   7.449 -0.0112 -0.3580  0.0372
    5MOL   C502 3150   6.599   5.197   7.333 -0.0465  0.1875  0.4981
    5MOL   C503 3151   6.547   5.297   7.230  0.1639 -0.8327 -0.6002
    5MOL   C504 3152   6.608   5.304   7.091 -0.0551  0.4762  0.1609
    5MOL   C505 3153   6.741   5.377   7.097 -0.4356  0.1476 -0.0253
    5MOL   C506 3154   6.809   5.399   6.956 -0.2063 -0.4074 -0.2344
    5MOL   C507 3155   6.939   5.474   6.979 -0.3121 -0.2528 -0.6981
    5MOL   H508 3156   6.284   4.935   0.215  0.2484  0.3715  2.0313
    5MOL   H509 3157   6.237   5.092   0.150  0.4031 -0.6335 -0.1705
    5MOL   H510 3158   6.515   4.989   0.115 -0.3507  0.7333  0.7654
    5MOL   H511 3159   6.420   5.228   0.029 -0.1351 -1.4755  1.7157
    5MOL   H512 3160   6.343   5.140   7.612  2.8514 -1.8957 -3.4666
    5MOL   H513 3161   6.584   5.042   7.578 -1.1408 -0.5916 -1.3203
    5MOL   H514 3162   6.639   5.201   7.621  0.3470 -0.2763  0.6580
    5MOL   H515 3163   6.412   5.160   7.415  0.2541 -0.1217 -1.0164
    5MOL   H516 3164   6.472   5.305   7.479  3.3008  0.5008  1.0969
    5MOL   H517 3165   6.700   5.224   7.364  0.6298  0.1606 -1.5748
    5MOL   H518 3166   6.593   5.094   7.296  0.4401 -0.0177  0.9843
    5MOL   H519 3167   6.442   5.278   7.207 -1.2437  3.5288  1.7836
    5MOL   H520 3168   6.559   5.396   7.273 -0.9764 -0.9678  0.0157
    5MOL   H521 3169   6.553   5.350   7.010 -1.0481 -0.6506  0.1924
    5MOL   H522 3170   6.636   5.205   7.055 -1.2604  0.3851 -0.5325
    5MOL   H523 3171   6.820   5.326   7.153  1.7087  2.0864 -1.1958
    5MOL   H524 3172   6.736   5.478   7.138 -1.2280  0.1620 -0.1633
    5MOL   H525 3173   6.740   5.450   6.888 -1.2517 -2.7639 -0.9882
    5MOL   H526 3174   6.824   5.304   6.905 -1.7822  0.0572 -1.6022
    5MOL   H527 3175   7.008   5.427   7.049 -1.4809 -0.6886  0.1885
    5MOL   H528 3176   6.920   5.569   7.029  1.1396 -0.7859  0.8848
    5MOL   H529 3177   6.991   5.490   6.885 -0.9814 -0.0038 -1.0323
    5MOL   C530 3178   6.375   4.881   7.701  0.0560  0.2801  0.2008
    5MOL   C531 3179   6.414   4.747   0.070 -0.1643 -0.7160  0.3450
    5MOL   C532 3180   6.568   4.717   0.070 -0.1357 -0.2605 -0.5438
    5MOL   C533 3181   6.640   4.717   7.633 -0.1509 -0.1660 -0.4564
    5MOL   C534 3182   6.799   4.706   7.635 -0.2782  1.1168  0.1288
    5MOL   C535 3183   6.860   4.843   7.677 -0.7296 -0.1304  0.3836
    5MOL   C536 3184   7.006   4.830   0.007 -0.3260  0.1018 -0.4822
    5MOL   C537 3185   7.073   4.951   0.087  0.1764  0.0645 -0.6148
    5MOL   C538 3186   7.226   4.944   0.104 -0.7927 -0.0294 -0.7558
    5MOL   C539 3187   7.289   5.062   0.174 -0.6571  0.7961 -0.4549
    5MOL   C540 3188   7.441   5.023   0.193 -0.4658  0.1784  0.8630
    5MOL   H541 3189   6.266   4.885   7.691 -0.0773 -1.0273  0.9952
    5MOL   H542 3190   6.412   4.881   7.598 -0.4450 -1.6309  0.0044
    5MOL   H543 3191   6.379   4.745   0.173  0.3053  0.5955  0.5498
    5MOL   H544 3192   6.573   4.632   0.137 -1.2723  0.5342  0.5775
    5MOL   H545 3193   6.617   4.790   0.135  0.0456 -0.2733 -0.6655
    5MOL   H546 3194   6.620   4.805   7.572 -1.3309 -0.2269 -0.1632
    5MOL   H547 3195   6.600   4.642   7.565  0.3359 -0.5912 -0.2781
    5MOL   H548 3196   6.827   4.678   7.534  1.7730  0.5867  0.8140
    5MOL   H549 3197   6.835   4.633   0.004  0.2364  1.0462 -0.2004
    5MOL   H550 3198   6.812   4.882   0.063 -1.5432 -0.4971  0.1039
    5MOL   H551 3199   6.844   4.913   7.594 -0.9537 -1.0737 -0.3747
    5MOL   H552 3200   7.055   4.808   7.616  1.0652  0.4343  0.1550
    5MOL   H553 3201   7.019   4.752   0.082 -0.1721 -2.2020 -2.8385
    5MOL   H554 3202   7.025   4.962   0.184 -0.0577  1.4497 -0.8702
    5MOL   H555 3203   7.052   5.046   0.037  0.5954 -0.0069 -0.9301
    5MOL   H556 3204   7.271   4.918   0.008  0.5635 -2.6492  0.5206
    5MOL   H557 3205   7.245   4.855   0.164  1.2035  0.6116 -0.3941
    5MOL   H558 3206   7.234   5.092   0.263  1.3202  0.8788  0.7551
    5MOL   H559 3207   7.280   5.144   0.103  0.2337  0.8958 -0.4610
    5MOL   H560 3208   7.493   5.096   0.254 -2.8938  0.6076  2.5312
    5MOL   H561 3209   7.464   4.922   0.225 -0.4654  0.2345  1.0403
    5MOL   H562 3210   7.485   5.013   0.094 -2.2784  2.2041 -0.1920
    5MOL   C563 3211   6.355   4.627   7.699  0.3132 -0.2714 -0.0540
    5MOL   C564 3212   6.200   4.602   0.004  0.2562  0.5381  0.0685
    5MOL   C565 3213   6.156   4.573   0.149  0.3580  0.5438 -0.1503
    5MOL   C566 3214   6.260   4.503   0.242 -0.2554 -0.1459  0.1789
    5MOL   C567 3215   6.286   4.355   0.221 -0.4365  0.1825  0.6826
    5MOL   C568 3216   6.360   4.280   0.337 -0.1015 -0.8427  1.0010
    5MOL   C569 3217   6.364   4.127   0.306  0.1005  0.2297 -1.0326
    5MOL   C570 3218   6.400   4.055   0.441  0.1997 -0.3577 -0.0422
    5MOL   C571 3219   6.383   3.897   0.440 -0.1060 -0.3319  0.1423
    5MOL   C572 3220   6.417   3.841   0.577 -0.2700  0.5619 -0.4109
    5MOL   C573 3221   6.309   3.833   0.673 -0.1054 -0.5902  0.0669
    5MOL   H574 3222   6.407   4.535   0.026  0.7901  0.6769  2.1046
    5MOL   H575 3223   6.387   4.647   7.597 -1.1868  2.7253  0.0047
    5MOL   H576 3224   6.146   4.693   7.683 -0.8345 -0.4220 -1.1847
    5MOL   H577 3225   6.063   4.515   0.150  0.7775 -0.1674 -1.3969
    5MOL   H578 3226   6.131   4.668   0.197  1.9139  1.2123 -0.6324
    5MOL   H579 3227   6.240   4.518   0.348 -0.2080  1.5726 -0.0410
    5MOL   H580 3228   6.359   4.549   0.238 -0.3293 -0.0650 -0.9461
    5MOL   H581 3229   6.305   4.325   0.118  1.4551 -0.4949  1.2088
    5MOL   H582 3230   6.193   4.300   0.221  0.9623 -2.2517  1.2263
    5MOL   H583 3231   6.454   4.332   0.355  0.4065 -0.2300 -2.9629
    5MOL   H584 3232   6.300   4.289   0.427  0.4717 -1.2934  1.4365
    5MOL   H585 3233   6.270   4.085   0.270  0.1487  0.7025 -1.7172
    5MOL   H586 3234   6.431   4.108   0.222 -0.2948 -0.6523 -1.1600
    5MOL   H587 3235   6.333   4.091   0.519 -0.1845  1.8574 -1.3621
    5MOL   H588 3236   6.499   4.093   0.465 -1.1119  2.6782  0.8017
    5MOL   H589 3237   6.449   3.840   0.373 -1.6860 -0.9917 -0.8892
    5MOL   H590 3238   6.284   3.867   0.406 -0.4442  0.3694  0.5139
    5MOL   H591 3239   6.504   3.893   0.618  0.7426 -2.7940  1.9795
    5MOL   H592 3240   6.439   3.738   0.550 -0.9560  0.6181 -1.1955
    5MOL   H593 3241   6.352   3.779   0.757  2.2424 -0.7725 -1.2336
    5MOL   H594 3242   6.277   3.932   0.706  3.0974  0.9437 -1.2941
    5MOL   H595 3243   6.226   3.773   0.634 -2.2419  0.9490  2.1212
    5MOL   C596 3244   6.143   4.491   7.615 -0.4722 -0.0657 -0.2037
    5MOL   C597 3245   6.163   4.493   7.466  0.3999  0.3096  0.2863
    5MOL   C598 3246   6.136   4.639   7.412 -0.6170  0.0546  0.5080
    5MOL   C599 3247   5.984   4.694   7.420 -0.0187 -0.0512 -0.0426
    5MOL   C600 3248   5.964   4.853   7.404 -0.4870 -0.1313 -0.0821
    5MOL   C601 3249   6.043   4.935   7.493 -0.2178 -0.4456  0.6592
    5MOL   C602 3250   6.009   5.086   7.477  0.1844 -0.1777 -1.0158
    5MOL   C603 3251   6.047   5.151   7.343  0.2815  0.7186  0.2564
    5MOL   C604 3252   6.071   5.306   7.376 -0.2401 -0.5131 -0.2284
    5MOL   C605 3253   5.946   5.385   7.417 -0.4013  0.8725 -0.1891
    5MOL   C606 3254   5.974   5.534   7.434  0.2495 -0.8956  0.1178
    5MOL   H607 3255   6.184   4.392   7.638 -0.5024  0.1115  0.6517
    5MOL   H608 3256   6.041   4.467   7.645 -0.3328  1.2229  1.3862
    5MOL   H609 3257   6.265   4.463   7.442  0.3533 -0.1985  0.7409
    5MOL   H610 3258   6.166   4.638   7.307  1.3142 -0.5413  1.0457
    5MOL   H611 3259   6.203   4.710   7.461  2.7166 -2.7344  0.1738
    5MOL   H612 3260   5.959   4.673   7.524 -0.3612  1.9867  0.3066
    5MOL   H613 3261   5.920   4.637   7.352 -0.4669  0.7158 -0.2643
    5MOL   H614 3262   5.860   4.881   7.421 -0.5152  1.4013 -2.5109
    5MOL   H615 3263   5.979   4.872   7.297 -0.7728 -1.0764 -0.2944
    5MOL   H616 3264   6.026   4.894   7.592  1.1184  0.4572  1.2678
    5MOL   H617 3265   6.148   4.921   7.467  0.0615  2.2870  0.2099
    5MOL   H618 3266   6.070   5.134   7.554  0.9002  1.2727 -2.4414
    5MOL   H619 3267   5.908   5.099   7.514  1.0028 -2.1183  2.0609
    5MOL   H620 3268   5.965   5.139   7.273  0.3386 -0.3967  0.3726
    5MOL   H621 3269   6.129   5.105   7.288 -1.6905 -2.4744 -0.1192
    5MOL   H622 3270   6.139   5.309   7.462 -0.8428 -1.3193  0.2782
    5MOL   H623 3271   6.119   5.361   7.295  3.0341 -0.4228  1.6829
    5MOL   H624 3272   5.902   5.345   7.509  2.9590 -0.2853  0.9929
    5MOL   H625 3273   5.873   5.359   7.340 -0.5664  0.9768 -0.0684
    5MOL   H626 3274   5.880   5.582   7.461 -1.2031 -1.2782 -3.9178
    5MOL   H627 3275   6.056   5.554   7.502 -0.2931  0.6440  0.3314
    5MOL   H628 3276   5.995   5.584   7.339 -0.1683 -0.7303  0.1110
    5MOL   C629 3277   6.077   4.389   7.392  0.1622 -0.9714  0.4478
    5MOL   C630 3278   6.097   4.377   7.235  0.3953  0.6677  0.2644
    5MOL   C631 3279   6.002   4.278   7.167  0.1319 -0.2021  0.5198
    5MOL   C632 3280   6.023   4.277   7.016  0.1678 -0.1329  0.2640
    5MOL   C633 3281   5.932   4.188   6.925 -0.2144  0.1511  0.1757
    5MOL   C634 3282   6.004   4.150   6.797  0.8646  0.5896  0.0123
    5MOL   C635 3283   5.918   4.065   6.701  0.0235  0.2988  0.0476
    5MOL   C636 3284   5.979   4.037   6.566 -0.4029  0.1816  0.5273
    5MOL   C637 3285   5.878   3.968   6.466 -0.2604 -0.0615  0.2803
    5MOL   C638 3286   5.842   3.823   6.498 -0.9393 -0.2304 -0.4186
    5MOL   C639 3287   5.729   3.783   6.400 -0.2124  0.2134  0.2552
    5MOL   H640 3288   6.100   4.293   7.438 -0.0797 -1.1599  0.1754
    5MOL   H641 3289   5.974   4.407   7.423  0.6611  0.5895  1.2611
    5MOL   H642 3290   6.071   4.467   7.178  0.2717  1.2062  1.1658
    5MOL   H643 3291   6.031   4.178   7.200 -0.4615 -0.4871  0.1863
    5MOL   H644 3292   5.898   4.296   7.193 -0.3106  0.6639 -1.7479
    5MOL   H645 3293   6.114   4.218   7.004  1.1174  1.5106 -0.8250
    5MOL   H646 3294   6.026   4.382   6.986 -1.8623 -0.0667  0.2190
    5MOL   H647 3295   5.841   4.244   6.907  0.6866  2.1181  1.5365
    5MOL   H648 3296   5.914   4.092   6.973 -0.2728 -1.3812 -2.7886
    5MOL   H649 3297   6.093   4.090   6.819  1.1867  0.8672 -0.5212
    5MOL   H650 3298   6.044   4.238   6.746  1.4422  0.2162 -0.1807
    5MOL   H651 3299   5.826   4.123   6.689 -0.4339 -0.8733 -2.3171
    5MOL   H652 3300   5.881   3.975   6.751 -1.9574  3.0290  3.7600
    5MOL   H653 3301   6.073   3.983   6.575  0.3032  0.6519 -3.1723
    5MOL   H654 3302   6.011   4.132   6.523  2.9850 -1.3503 -0.4642
    5MOL   H655 3303   5.925   3.966   6.368  0.7088 -0.7211  0.7549
    5MOL   H656 3304   5.784   4.023   6.462 -1.0334 -1.3845  0.0088
    5MOL   H657 3305   5.796   3.827   6.597 -1.8087  0.5154 -0.8456
    5MOL   H658 3306   5.933   3.762   6.497  0.9764  2.5582 -1.4876
    5MOL   H659 3307   5.769   3.772   6.300  0.0146 -0.3280  0.4063
    5MOL   H660 3308   5.644   3.851   6.404  1.8046  2.6996  2.3752
    5MOL   H661 3309   5.682   3.689   6.428 -0.6474 -0.8174 -3.6681
    5MOL   H662 3310   6.198   4.345   7.210 -0.2261 -1.6457  0.5958
    6MOL     C1 3311   5.805   4.011   2.146 -0.0120  0.4258  0.1270
    6MOL     C2 3312   5.708   3.909   2.207 -0.2778  0.2675 -0.9819
    6MOL     C3 3313   5.663   3.957   2.346  0.2751  0.3865 -0.6480
    6MOL     C4 3314   5.777   3.959   2.453 -0.8770  0.7746 -0.1586
    6MOL     C5 3315   5.739   3.988   2.604  0.5592  0.7551  0.1888
    6MOL     C6 3316   5.630   3.902   2.654 -0.1713 -0.1048  0.3805
    6MOL     C7 3317   5.632   3.892   2.802  0.3926  0.7363 -0.6663
    6MOL     C8 3318   5.489   3.855   2.848 -0.0458  0.9302  0.1313
    6MOL     C9 3319   5.495   3.792   2.986 -0.0806  0.2966 -0.1307
    6MOL    C10 3320   5.532   3.889   3.099 -0.2286  0.3806 -0.1270
    6MOL    C11 3321   5.514   3.835   3.237 -0.5653 -0.1857 -0.3271
    6MOL    H12 3322   5.869   3.939   2.095  0.1178 -0.5919  1.6554
    6MOL    H13 3323   5.854   4.087   2.207 -0.6311  1.1670 -0.3011
    6MOL    H14 3324   5.765   3.818   2.223 -2.0406 -0.4693  1.3434
    6MOL    H15 3325   5.591   3.877   2.366  0.0882  0.8084  0.3811
    6MOL    H16 3326   5.609   4.051   2.334  4.7476  3.1901  0.1425
    6MOL    H17 3327   5.852   4.029   2.415 -1.8335  1.6475 -0.4573
    6MOL    H18 3328   5.830   3.864   2.454 -1.3717  0.4698 -1.5719
    6MOL    H19 3329   5.831   3.971   2.659  0.7143 -0.3103 -0.3776
    6MOL    H20 3330   5.709   4.091   2.621 -0.4798  0.1677  2.0295
    6MOL    H21 3331   5.652   3.800   2.622  2.3854  0.5048  0.0809
    6MOL    H22 3332   5.536   3.927   2.607  1.0827  0.6325 -1.8056
    6MOL    H23 3333   5.705   3.819   2.836  0.0410  0.8512  0.3572
    6MOL    H24 3334   5.672   3.981   2.850  0.0911 -0.9335  2.7974
    6MOL    H25 3335   5.449   3.782   2.777 -0.4089  1.1665  0.0908
    6MOL    H26 3336   5.422   3.940   2.838  0.0849  1.1704  1.2289
    6MOL    H27 3337   5.558   3.703   2.996 -1.6542 -0.7978  0.3083
    6MOL    H28 3338   5.395   3.750   3.003  1.0168 -2.2083  0.4451
    6MOL    H29 3339   5.462   3.971   3.082  0.5992  0.9172 -1.0338
    6MOL    H30 3340   5.632   3.932   3.092 -0.5116  1.1621  0.4420
    6MOL    H31 3341   5.531   3.908   3.317 -0.8282 -0.2935 -0.1706
    6MOL    H32 3342   5.410   3.808   3.252 -0.5816  0.0521  0.0152
    6MOL    H33 3343   5.581   3.750   3.250  0.6092  0.8008  0.2872
    6MOL    H34 3344   5.756   4.078   2.076  1.2941  0.4853 -0.7479
    6MOL    C35 3345   5.589   3.893   2.106 -0.0940 -0.1655 -0.7302
    6MOL    C36 3346   5.495   3.769   2.111  0.1652 -0.4801 -0.6222
    6MOL    C37 3347   5.378   3.797   2.010  1.3480 -0.1308 -0.0554
    6MOL    C38 3348   5.254   3.713   2.025  0.5507 -0.0635  0.2123
    6MOL    C39 3349   5.130   3.789   1.958 -0.1714 -0.3621  0.6007
    6MOL    C40 3350   5.005   3.711   1.990  0.2506  0.4260 -0.3812
    6MOL    C41 3351   4.874   3.766   1.922  0.0023 -0.2701 -0.8681
    6MOL    C42 3352   4.750   3.664   1.923 -0.1982  0.3472  0.1647
    6MOL    C43 3353   4.618   3.726   1.880 -0.0874  0.6215  0.1820
    6MOL    C44 3354   4.504   3.624   1.868  0.4702  0.3976 -0.2091
    6MOL    C45 3355   4.383   3.685   1.794  0.0596  0.6617 -0.1893
    6MOL    H46 3356   5.634   3.890   2.007  1.8583  3.1663 -0.0161
    6MOL    H47 3357   5.535   3.987   2.117 -0.7029 -0.6103  0.1752
    6MOL    H48 3358   5.442   3.754   2.205 -2.0262 -3.0367 -2.2011
    6MOL    H49 3359   5.347   3.900   2.023  0.6261 -0.1760 -1.3821
    6MOL    H50 3360   5.407   3.780   1.907  0.7348 -0.0209 -0.2464
    6MOL    H51 3361   5.237   3.690   2.130  1.4901  1.4357  0.7060
    6MOL    H52 3362   5.277   3.616   1.983  1.0732 -0.7878  2.1451
    6MOL    H53 3363   5.144   3.785   1.850 -2.9934  1.3904  0.1132
    6MOL    H54 3364   5.116   3.892   1.992  1.2776 -0.0302  0.2135
    6MOL    H55 3365   5.004   3.693   2.098 -0.1315  2.8551  0.0414
    6MOL    H56 3366   5.016   3.610   1.950  1.4327  1.5817 -3.1016
    6MOL    H57 3367   4.840   3.843   1.991  0.1063 -1.3859  0.4609
    6MOL    H58 3368   4.891   3.799   1.820 -1.5373  1.6652 -0.5389
    6MOL    H59 3369   4.736   3.610   2.017 -2.2401  1.6072  0.6155
    6MOL    H60 3370   4.774   3.583   1.853 -0.0484  0.3434  0.2226
    6MOL    H61 3371   4.624   3.777   1.784 -0.3292  0.9276  0.3280
    6MOL    H62 3372   4.594   3.806   1.951  0.2211  1.7411 -0.9568
    6MOL    H63 3373   4.543   3.546   1.803 -1.0944 -1.7281  1.2983
    6MOL    H64 3374   4.469   3.576   1.960  0.4308  0.6511 -0.0905
    6MOL    H65 3375   4.324   3.739   1.869  0.5977  2.7345 -1.2286
    6MOL    H66 3376   4.401   3.753   1.711 -1.3629  0.8987 -0.3168
    6MOL    H67 3377   4.315   3.609   1.758  0.2893 -1.0740  2.8322
    6MOL    C68 3378   5.555   3.631   2.089 -0.1925 -0.1489  0.1050
    6MOL    C69 3379   5.624   3.563   2.216  0.0632 -0.3714  0.5292
    6MOL    C70 3380   5.532   3.488   2.310 -0.8899  0.7860  0.9282
    6MOL    C71 3381   5.449   3.371   2.265  0.2456  0.0289  1.7376
    6MOL    C72 3382   5.388   3.288   2.379 -0.1245 -0.1977 -0.3698
    6MOL    C73 3383   5.273   3.200   2.336 -0.1901  0.2118 -0.8524
    6MOL    C74 3384   5.212   3.095   2.423 -0.0405 -0.1650  0.9349
    6MOL    C75 3385   5.100   3.011   2.357 -0.2516 -0.1487  0.0163
    6MOL    C76 3386   5.137   2.873   2.299 -0.2899 -0.7482 -0.5846
    6MOL    C77 3387   5.159   2.758   2.393  0.1170  0.6898  1.4707
    6MOL    C78 3388   5.195   2.624   2.332  0.1104  0.3145  0.0007
    6MOL    H79 3389   5.627   3.656   2.010  1.5673 -0.5751  1.5363
    6MOL    H80 3390   5.475   3.564   2.057 -0.6768  0.2712  0.4314
    6MOL    H81 3391   5.664   3.641   2.281  0.5915 -0.0815 -0.1467
    6MOL    H82 3392   5.462   3.555   2.360 -3.0488  0.1669 -1.1868
    6MOL    H83 3393   5.596   3.459   2.394 -0.4326 -0.1402  0.2576
    6MOL    H84 3394   5.368   3.417   2.209  1.2149  0.0406  0.3025
    6MOL    H85 3395   5.505   3.295   2.210 -0.9597 -0.2603  0.8976
    6MOL    H86 3396   5.352   3.361   2.451 -0.8951 -0.6613 -0.2839
    6MOL    H87 3397   5.467   3.235   2.433  1.5411  0.9415 -1.6538
    6MOL    H88 3398   5.187   3.252   2.293 -0.6241 -0.8674 -1.2968
    6MOL    H89 3399   5.320   3.139   2.259 -1.2433 -2.9421  0.9415
    6MOL    H90 3400   5.169   3.136   2.514 -1.1036  1.3338 -0.2289
    6MOL    H91 3401   5.293   3.028   2.452  0.7852 -0.1083 -1.1732
    6MOL    H92 3402   5.037   2.983   2.441  0.0363  0.7581  0.5361
    6MOL    H93 3403   5.041   3.070   2.287 -0.1461 -1.3900 -1.1419
    6MOL    H94 3404   5.075   2.837   2.217 -0.7301  1.4319 -1.2587
    6MOL    H95 3405   5.239   2.890   2.263 -0.3795 -0.8671 -0.8986
    6MOL    H96 3406   5.238   2.774   2.466  1.7407  2.6601 -0.6448
    6MOL    H97 3407   5.069   2.746   2.453 -1.5765 -0.0310 -1.0968
    6MOL    H98 3408   5.114   2.582   2.272  0.7495 -0.8351 -0.0657
    6MOL    H99 3409   5.224   2.548   2.404  0.3721 -1.3729 -1.8510
    6MOL   H100 3410   5.286   2.631   2.272  1.9446 -0.7683  2.5601
    6MOL   C101 3411   5.740   3.470   2.164  0.3683  0.0020  0.2491
    6MOL   C102 3412   5.857   3.425   2.255 -0.5368 -0.3931  0.1436
    6MOL   C103 3413   5.949   3.542   2.297  0.1761 -0.3397 -0.8841
    6MOL   C104 3414   6.011   3.626   2.180 -0.3588  0.4580  0.1172
    6MOL   C105 3415   6.100   3.734   2.228 -0.4252  0.4946  0.3164
    6MOL   C106 3416   6.147   3.826   2.113  0.3352 -0.3838  0.9741
    6MOL   C107 3417   6.229   3.943   2.173 -0.1742  0.3324  0.2682
    6MOL   C108 3418   6.236   4.066   2.081  0.3045 -0.1442  0.2732
    6MOL   C109 3419   6.334   4.180   2.144 -0.1768  0.5583 -0.2035
    6MOL   C110 3420   6.324   4.226   2.295 -0.1833  0.6759 -1.1823
    6MOL   C111 3421   6.186   4.284   2.310  0.0751 -0.7641  0.7985
    6MOL   H112 3422   5.686   3.386   2.122  1.5344  0.6158 -2.5555
    6MOL   H113 3423   5.788   3.515   2.077 -0.3323  1.2822  0.5052
    6MOL   H114 3424   5.800   3.395   2.343  1.4946 -0.4854  1.4881
    6MOL   H115 3425   5.886   3.608   2.358 -0.0551 -1.0929 -0.3023
    6MOL   H116 3426   6.023   3.503   2.366  1.7281  0.4784 -2.0533
    6MOL   H117 3427   6.077   3.563   2.120  1.1026  4.5763 -2.8227
    6MOL   H118 3428   5.929   3.677   2.130 -1.8329 -2.1694 -0.2393
    6MOL   H119 3429   6.039   3.785   2.303 -0.3154 -0.7024  1.2250
    6MOL   H120 3430   6.180   3.692   2.288 -0.7584  1.3381  1.3757
    6MOL   H121 3431   6.202   3.780   2.031 -0.2340 -1.4641  1.2034
    6MOL   H122 3432   6.054   3.871   2.080 -0.5881 -2.0617  1.2408
    6MOL   H123 3433   6.331   3.907   2.182 -0.2480 -0.3152 -1.2654
    6MOL   H124 3434   6.192   3.968   2.273 -3.4265  2.1393 -1.2689
    6MOL   H125 3435   6.274   4.032   1.984 -0.8599 -1.3881  0.2468
    6MOL   H126 3436   6.131   4.094   2.069 -0.1074 -0.9592  1.9181
    6MOL   H127 3437   6.436   4.146   2.125 -0.3457 -0.5100  0.7422
    6MOL   H128 3438   6.329   4.269   2.081 -0.9810 -1.7320 -3.5656
    6MOL   H129 3439   6.396   4.307   2.306  1.5475 -0.9565 -0.2196
    6MOL   H130 3440   6.352   4.144   2.361 -0.6908 -0.1253 -1.9517
    6MOL   H131 3441   6.159   4.318   2.410  1.2565  2.0056  0.2206
    6MOL   H132 3442   6.163   4.361   2.237 -2.4207 -2.1482  0.0422
    6MOL   H133 3443   6.116   4.201   2.298 -1.4781  0.8740 -1.9275
    6MOL   C134 3444   5.952   3.307   2.200  0.2723 -0.6100  0.3240
    6MOL   C135 3445   5.880   3.173   2.174 -0.2609 -0.5229  0.0749
    6MOL   C136 3446   5.860   3.105   2.308  0.1593  0.1892 -0.0058
    6MOL   C137 3447   5.727   3.026   2.323  0.1863 -0.4162  0.7897
    6MOL   C138 3448   5.720   2.912   2.427 -0.6157 -0.0331  0.0308
    6MOL   C139 3449   5.714   2.974   2.569 -0.4759  0.1418 -0.1666
    6MOL   C140 3450   5.732   2.860   2.671  0.3610 -0.2901 -0.2854
    6MOL   C141 3451   5.763   2.907   2.815 -0.6481  0.7414  0.0388
    6MOL   C142 3452   5.656   2.992   2.883 -0.1397  0.7519  0.0143
    6MOL   C143 3453   5.719   3.035   3.020  0.0703 -0.3972  0.6260
    6MOL   C144 3454   5.631   3.122   3.116  0.9673  0.3549  0.2542
    6MOL   H145 3455   5.991   3.338   2.104 -0.7604 -0.2549  0.0092
    6MOL   H146 3456   6.040   3.291   2.263 -0.1038 -1.7737  0.5728
    6MOL   H147 3457   5.781   3.190   2.131 -0.3305 -1.9406 -0.3492
    6MOL   H148 3458   5.860   3.181   2.386  1.9099 -0.2343  0.4431
    6MOL   H149 3459   5.945   3.039   2.330 -0.9952 -0.4005  3.0230
    6MOL   H150 3460   5.651   3.103   2.337  1.4446  1.0083 -0.0602
    6MOL   H151 3461   5.716   2.973   2.229  2.5209  2.7626 -1.3954
    6MOL   H152 3462   5.639   2.842   2.404  0.9593 -1.6366 -0.6701
    6MOL   H153 3463   5.811   2.855   2.410 -1.0442 -1.3009  1.8370
    6MOL   H154 3464   5.791   3.050   2.580  1.4754 -1.7638 -0.4134
    6MOL   H155 3465   5.619   3.027   2.573 -1.1591 -1.1474  1.4129
    6MOL   H156 3466   5.640   2.801   2.673 -0.4900  1.0426  0.7156
    6MOL   H157 3467   5.811   2.802   2.623 -0.9827 -1.0449 -1.6301
    6MOL   H158 3468   5.773   2.815   2.874 -2.9629 -0.3653 -1.2092
    6MOL   H159 3469   5.864   2.949   2.813 -1.0524  1.7464  0.8337
    6MOL   H160 3470   5.631   3.071   2.812 -1.2976  1.0993  0.7926
    6MOL   H161 3471   5.572   2.927   2.909  0.8043  0.4695  2.5509
    6MOL   H162 3472   5.736   2.940   3.070  0.1888 -1.3225 -1.1333
    6MOL   H163 3473   5.814   3.087   3.007  0.3086 -0.3138  2.5641
    6MOL   H164 3474   5.670   3.143   3.216 -1.2326  0.4836  1.1210
    6MOL   H165 3475   5.534   3.078   3.140  0.3143  1.5190 -0.1798
    6MOL   H166 3476   5.612   3.214   3.060 -2.3439 -0.8601 -0.7448
    6MOL   C167 3477   5.957   3.086   2.072 -0.1024  0.7524  0.3963
    6MOL   C168 3478   5.951   3.129   1.928 -0.6418  0.2922  0.3126
    6MOL   C169 3479   5.813   3.104   1.869 -0.1484 -0.0390 -0.0785
    6MOL   C170 3480   5.743   3.217   1.795  0.2533 -0.3337  0.0311
    6MOL   C171 3481   5.592   3.190   1.793 -0.5662 -0.1158 -0.0284
    6MOL   C172 3482   5.512   3.215   1.927  0.1129 -0.0218  0.3884
    6MOL   C173 3483   5.387   3.134   1.931  0.2392 -0.3628  1.1812
    6MOL   C174 3484   5.409   2.984   1.979 -0.2581  0.2627 -0.0827
    6MOL   C175 3485   5.301   2.888   1.940 -0.2794 -0.2653  0.2457
    6MOL   C176 3486   5.341   2.745   1.975 -0.3931  0.1015  0.0676
    6MOL   C177 3487   5.240   2.631   1.964  0.3750 -0.4022  0.5373
    6MOL   H178 3488   6.053   3.066   2.119 -0.5297 -2.5944 -0.0302
    6MOL   H179 3489   5.914   2.986   2.083  3.5996 -1.6851 -4.9886
    6MOL   H180 3490   5.976   3.235   1.921  1.3048 -0.1009  0.8221
    6MOL   H181 3491   5.750   3.072   1.952  1.7550 -0.3327  1.3050
    6MOL   H182 3492   5.819   3.015   1.806 -0.8244  0.0084 -0.2071
    6MOL   H183 3493   5.762   3.322   1.819  1.1800 -0.6687  0.8154
    6MOL   H184 3494   5.783   3.209   1.694 -0.8509  0.4796 -0.4779
    6MOL   H185 3495   5.579   3.087   1.760  2.7645 -0.3978 -0.5868
    6MOL   H186 3496   5.543   3.246   1.713 -1.7849 -2.4405 -0.9757
    6MOL   H187 3497   5.575   3.185   2.010 -0.2144 -0.5902  0.4331
    6MOL   H188 3498   5.495   3.322   1.938 -0.2902  0.0752 -1.1142
    6MOL   H189 3499   5.339   3.138   1.833  0.0042  1.3592  1.3600
    6MOL   H190 3500   5.316   3.183   1.997  2.2802  0.0655  3.1171
    6MOL   H191 3501   5.493   2.951   1.919 -0.6993 -0.9275 -0.0539
    6MOL   H192 3502   5.432   2.970   2.084  0.9338 -1.0927 -0.5191
    6MOL   H193 3503   5.282   2.893   1.832  3.1806  0.9030 -0.3575
    6MOL   H194 3504   5.209   2.909   1.995 -0.2166 -0.1643  0.3130
    6MOL   H195 3505   5.365   2.754   2.081  1.1392 -1.7864 -0.0964
    6MOL   H196 3506   5.423   2.718   1.909  1.4066  0.4710  2.0818
    6MOL   H197 3507   5.206   2.626   1.860  0.6093 -2.4286  0.5471
    6MOL   H198 3508   5.150   2.645   2.023  0.6024 -0.3962  0.8819
    6MOL   H199 3509   5.280   2.533   1.987  1.3617  0.1970  1.4070
    6MOL   C200 3510   6.060   3.058   1.845 -0.0349  0.3711  0.9578
    6MOL   C201 3511   6.084   3.090   1.696 -0.2511  0.5162 -0.2984
    6MOL   C202 3512   6.171   2.981   1.633  0.1433  0.1574 -0.1949
    6MOL   C203 3513   6.087   2.846   1.610 -0.8168 -0.1896 -0.3575
    6MOL   C204 3514   6.039   2.828   1.466 -0.1682  0.2022 -0.5889
    6MOL   C205 3515   5.940   2.930   1.401  0.3962  0.2173  0.0478
    6MOL   C206 3516   5.798   2.922   1.467 -0.1878 -0.3738 -0.6305
    6MOL   C207 3517   5.711   3.037   1.427 -0.2856  0.1464  0.4583
    6MOL   C208 3518   5.562   2.999   1.429  0.2435 -0.5004 -0.3200
    6MOL   C209 3519   5.467   3.117   1.395  0.8176 -0.2149 -0.0904
    6MOL   C210 3520   5.326   3.094   1.431  0.2570  0.1499  0.1534
    6MOL   H211 3521   6.156   3.086   1.889  0.4511 -0.3456  0.3595
    6MOL   H212 3522   6.037   2.952   1.860 -2.9002  0.7308 -0.5937
    6MOL   H213 3523   5.988   3.090   1.644  0.6725 -0.0910 -2.0621
    6MOL   H214 3524   6.258   2.957   1.694 -0.3486 -4.3406 -1.0815
    6MOL   H215 3525   6.216   3.004   1.536 -0.2875  0.2154 -0.3825
    6MOL   H216 3526   6.005   2.837   1.682 -1.1440  0.8644 -0.5864
    6MOL   H217 3527   6.146   2.755   1.619  0.7570  0.9557  1.2966
    6MOL   H218 3528   5.991   2.731   1.460  1.1090 -0.4381 -0.6786
    6MOL   H219 3529   6.136   2.832   1.415  0.0416  1.8702 -0.1105
    6MOL   H220 3530   5.981   3.031   1.399  0.2220  0.2704 -1.9733
    6MOL   H221 3531   5.920   2.910   1.296 -0.6680  2.2283 -0.1544
    6MOL   H222 3532   5.811   2.928   1.575  2.6735 -1.3356 -0.8813
    6MOL   H223 3533   5.756   2.823   1.446  1.1227 -1.1649  0.4748
    6MOL   H224 3534   5.734   3.054   1.321  1.4716 -3.3577  0.2031
    6MOL   H225 3535   5.734   3.128   1.482  2.5242 -0.1050 -0.2036
    6MOL   H226 3536   5.542   2.970   1.533 -0.4780 -0.8249 -0.5448
    6MOL   H227 3537   5.532   2.919   1.361 -3.7142  0.4750  0.1337
    6MOL   H228 3538   5.496   3.207   1.449 -0.4397 -0.6237  1.2933
    6MOL   H229 3539   5.496   3.139   1.293  1.6976 -1.4486 -0.1224
    6MOL   H230 3540   5.254   3.165   1.391  0.3642  1.7858  2.7662
    6MOL   H231 3541   5.318   3.090   1.540 -2.7740 -0.7741 -0.0468
    6MOL   H232 3542   5.302   2.997   1.386  2.3594 -0.2990 -0.0476
    6MOL   C233 3543   6.155   3.230   1.677 -0.4981 -0.6602 -0.6098
    6MOL   C234 3544   6.143   3.284   1.531 -0.1730 -0.4271  0.2742
    6MOL   C235 3545   6.238   3.398   1.507 -0.3742  0.3996  0.1601
    6MOL   C236 3546   6.224   3.527   1.597  0.2207  0.4851  0.5120
    6MOL   C237 3547   6.353   3.601   1.620 -0.4430  0.2887 -0.1165
    6MOL   C238 3548   6.324   3.735   1.696 -0.6247 -0.2120  0.0532
    6MOL   C239 3549   6.446   3.820   1.734  0.2032 -0.4404 -0.3083
    6MOL   C240 3550   6.542   3.751   1.832 -0.2369  0.0910  0.1842
    6MOL   C241 3551   6.509   3.775   1.973  0.0257  0.1077  0.3038
    6MOL   C242 3552   6.627   3.735   2.064 -0.6762  1.0144  0.4173
    6MOL   C243 3553   6.738   3.840   2.085 -0.9937  0.7483  0.0713
    6MOL   H244 3554   6.252   3.224   1.728  0.1922 -0.5673 -1.8775
    6MOL   H245 3555   6.097   3.297   1.739 -0.4283  0.8159 -2.1189
    6MOL   H246 3556   6.169   3.202   1.465  0.9097  0.8227 -0.8721
    6MOL   H247 3557   6.339   3.365   1.533 -0.4251 -0.8711 -1.2070
    6MOL   H248 3558   6.256   3.404   1.400  0.5331 -3.3782  0.0378
    6MOL   H249 3559   6.188   3.503   1.697  2.4480 -0.4619  1.1150
    6MOL   H250 3560   6.156   3.592   1.542  1.7724  0.3280 -1.6179
    6MOL   H251 3561   6.402   3.622   1.525  0.5196  1.6533  0.6601
    6MOL   H252 3562   6.434   3.547   1.670 -2.0923 -0.4561  1.8191
    6MOL   H253 3563   6.260   3.723   1.783 -1.7770 -2.0952 -1.0147
    6MOL   H254 3564   6.276   3.795   1.618 -1.2479  0.4714  0.9627
    6MOL   H255 3565   6.491   3.837   1.635  0.2340 -0.2639 -0.2657
    6MOL   H256 3566   6.408   3.921   1.749 -0.1131 -0.7398  0.8971
    6MOL   H257 3567   6.537   3.643   1.822  3.3154 -0.1845  0.6409
    6MOL   H258 3568   6.644   3.782   1.808 -0.4223  0.7878  0.2591
    6MOL   H259 3569   6.491   3.882   1.985 -3.5294 -0.4944  0.7689
    6MOL   H260 3570   6.424   3.716   2.006  0.4054 -1.7800 -1.9880
    6MOL   H261 3571   6.668   3.647   2.013  0.1097  1.6104  0.0106
    6MOL   H262 3572   6.584   3.702   2.159 -2.8366 -0.5974 -1.0531
    6MOL   H263 3573   6.686   3.912   2.148 -0.3318  1.1864  0.1307
    6MOL   H264 3574   6.777   3.879   1.991 -0.6376  0.4492  0.0937
    6MOL   H265 3575   6.822   3.803   2.143  0.4970  2.1965 -1.0873
    6MOL   C266 3576   6.001   3.331   1.501  0.0734  0.2355  0.2075
    6MOL   C267 3577   5.970   3.385   1.358 -0.0840 -0.1735  0.8910
    6MOL   C268 3578   5.839   3.465   1.336 -0.5974 -0.3327  0.5799
    6MOL   C269 3579   5.807   3.585   1.428 -0.1352  0.0565  0.4032
    6MOL   C270 3580   5.680   3.663   1.383 -0.2266 -0.6406 -0.3871
    6MOL   C271 3581   5.661   3.789   1.474 -0.1060 -0.7206  0.2313
    6MOL   C272 3582   5.538   3.874   1.431  0.8876 -0.2973 -0.5417
    6MOL   C273 3583   5.395   3.822   1.473  0.6114 -0.2923 -0.3826
    6MOL   C274 3584   5.273   3.900   1.419  0.0691  0.6202  0.3267
    6MOL   C275 3585   5.140   3.870   1.491 -0.3703 -0.5768 -0.1120
    6MOL   C276 3586   5.028   3.962   1.441  0.5187  0.0378  0.1099
    6MOL   H277 3587   5.989   3.416   1.568  0.6396  0.0297  0.5687
    6MOL   H278 3588   5.922   3.265   1.537  0.2116 -0.2854 -0.4221
    6MOL   H279 3589   6.043   3.462   1.336 -2.0500  1.4342 -0.1768
    6MOL   H280 3590   5.831   3.503   1.235 -0.1762  0.7498  0.9432
    6MOL   H281 3591   5.757   3.393   1.337 -1.0873  0.2094 -0.7582
    6MOL   H282 3592   5.887   3.658   1.433  0.2683 -0.2354 -1.5246
    6MOL   H283 3593   5.794   3.548   1.530 -1.3168  0.4377  0.3964
    6MOL   H284 3594   5.594   3.596   1.388 -0.5457 -0.2384 -0.4961
    6MOL   H285 3595   5.697   3.692   1.280 -1.0123 -1.9796 -0.9002
    6MOL   H286 3596   5.752   3.846   1.459  0.9185 -1.7547  2.3380
    6MOL   H287 3597   5.660   3.757   1.578 -0.4005 -0.1544  0.4074
    6MOL   H288 3598   5.541   3.982   1.448 -0.8560 -0.3222  0.0553
    6MOL   H289 3599   5.530   3.882   1.322  0.4249  0.3480 -0.4640
    6MOL   H290 3600   5.397   3.830   1.582 -1.4933 -0.8156 -0.2959
    6MOL   H291 3601   5.386   3.716   1.450 -0.7822  0.1168 -1.7619
    6MOL   H292 3602   5.299   4.004   1.439  2.7724  0.3289 -1.3734
    6MOL   H293 3603   5.273   3.891   1.310 -0.7685  1.9558  0.2127
    6MOL   H294 3604   5.146   3.886   1.599  0.5580 -1.9148  0.0451
    6MOL   H295 3605   5.112   3.767   1.472  2.5447 -0.9264 -3.0425
    6MOL   H296 3606   4.995   3.950   1.337 -2.3027 -0.0527  0.9769
    6MOL   H297 3607   5.044   4.067   1.465  0.8506 -0.0106  0.1014
    6MOL   H298 3608   4.942   3.940   1.504 -0.5071  0.1662 -1.2155
    6MOL   C299 3609   5.985   3.273   1.251  0.0528 -0.4999  0.3135
    6MOL   C300 3610   5.974   3.307   1.099  0.2652  0.9192  0.1405
    6MOL   C301 3611   5.965   3.178   1.020 -0.4057  0.5289  0.2791
    6MOL   C302 3612   5.943   3.192   0.867  0.0673  0.2872  0.2677
    6MOL   C303 3613   5.892   3.058   0.809  0.1819 -0.2614 -0.9500
    6MOL   C304 3614   5.848   3.074   0.658 -0.2352  0.2219 -0.1832
    6MOL   C305 3615   5.814   2.942   0.585 -0.1841 -0.4323 -0.5806
    6MOL   C306 3616   5.728   2.954   0.457  0.4904 -0.0638  0.2023
    6MOL   C307 3617   5.803   3.016   0.338  0.1222 -0.1696  0.1354
    6MOL   C308 3618   5.720   2.993   0.214  0.0747  0.2314  0.9587
    6MOL   C309 3619   5.789   3.038   0.082 -0.1996  0.8662 -1.1416
    6MOL   H310 3620   5.900   3.204   1.262 -1.6189  1.4238 -0.2224
    6MOL   H311 3621   6.074   3.215   1.273  1.3882  0.6443 -1.9969
    6MOL   H312 3622   5.881   3.356   1.070 -0.5921 -1.0220 -0.4835
    6MOL   H313 3623   6.056   3.120   1.037  0.1474  0.8934 -1.3241
    6MOL   H314 3624   5.874   3.131   1.057 -0.3366 -0.8960 -1.2961
    6MOL   H315 3625   5.869   3.262   0.829  1.1793  0.6088 -1.3433
    6MOL   H316 3626   6.035   3.216   0.813  1.5199  1.1928  3.0125
    6MOL   H317 3627   5.967   2.978   0.805 -0.3194 -0.6947 -1.6733
    6MOL   H318 3628   5.810   3.015   0.867  0.4579 -0.1740 -0.4864
    6MOL   H319 3629   5.916   3.129   0.593  1.1277 -1.3025 -0.0780
    6MOL   H320 3630   5.752   3.125   0.671 -2.0044 -2.8491 -0.6532
    6MOL   H321 3631   5.909   2.895   0.561  0.8263  0.9422  0.6280
    6MOL   H322 3632   5.755   2.881   0.653  0.3408 -0.3025 -0.0119
    6MOL   H323 3633   5.637   3.009   0.481  0.1436 -1.1838  1.5146
    6MOL   H324 3634   5.699   2.852   0.429  0.2273 -0.7557  2.8219
    6MOL   H325 3635   5.903   2.974   0.327 -0.2077 -1.1552  0.8231
    6MOL   H326 3636   5.811   3.122   0.361  2.3338 -0.3455  0.2949
    6MOL   H327 3637   5.628   3.052   0.219 -1.5603 -1.6223 -4.1543
    6MOL   H328 3638   5.688   2.889   0.211  2.2599 -0.4468 -1.6309
    6MOL   H329 3639   5.830   3.139   0.081  0.4776  0.6454  1.6814
    6MOL   H330 3640   5.865   2.961   0.068  1.5045  2.3774 -0.3638
    6MOL   H331 3641   5.724   3.021   7.699 -0.4439 -2.3193 -0.3878
    6MOL   C332 3642   6.094   3.389   1.049 -0.2886  0.4287  0.5859
    6MOL   C333 3643   6.077   3.483   0.932  0.8754  0.7044  0.9222
    6MOL   C334 3644   6.210   3.502   0.875 -0.4014 -0.5064  0.2728
    6MOL   C335 3645   6.254   3.383   0.777  0.1802  0.6117  0.1050
    6MOL   C336 3646   6.371   3.433   0.690 -0.5101  0.4493 -0.0997
    6MOL   C337 3647   6.492   3.472   0.790 -0.0661  0.5745 -0.3692
    6MOL   C338 3648   6.617   3.514   0.706  0.1049  0.4300 -0.0538
    6MOL   C339 3649   6.739   3.539   0.797  0.4137  0.3810  0.5795
    6MOL   C340 3650   6.845   3.618   0.723 -0.1569 -0.6398 -0.0089
    6MOL   C341 3651   6.930   3.689   0.832 -0.5474  0.1795 -0.4101
    6MOL   C342 3652   7.044   3.779   0.770 -0.6331 -0.5054  0.6322
    6MOL   H343 3653   6.132   3.449   1.131  1.4798  1.4032 -0.9097
    6MOL   H344 3654   6.185   3.329   1.040 -2.0904 -2.4147  0.8460
    6MOL   H345 3655   6.011   3.442   0.855  1.3921  2.4056 -0.4718
    6MOL   H346 3656   6.278   3.531   0.955  0.1992  1.3122 -0.8644
    6MOL   H347 3657   6.198   3.596   0.820 -3.8290  0.3618  2.3487
    6MOL   H348 3658   6.275   3.291   0.831  1.2066  1.1092  0.5692
    6MOL   H349 3659   6.174   3.356   0.708  2.0739 -3.3457 -0.6530
    6MOL   H350 3660   6.400   3.367   0.609 -1.6150  1.7619 -1.5779
    6MOL   H351 3661   6.332   3.516   0.632  1.1279  0.8415 -0.6834
    6MOL   H352 3662   6.525   3.390   0.855 -0.0563  1.9224  1.3787
    6MOL   H353 3663   6.475   3.551   0.863  1.6481  2.3873 -1.8814
    6MOL   H354 3664   6.585   3.600   0.646 -0.4376  0.4223  0.2170
    6MOL   H355 3665   6.651   3.445   0.629 -0.4735  1.1888 -1.0122
    6MOL   H356 3666   6.702   3.597   0.881 -0.0922  0.5078  0.2672
    6MOL   H357 3667   6.767   3.439   0.830  1.0811 -0.1289 -1.4651
    6MOL   H358 3668   6.805   3.692   0.653  1.6928  0.9073  0.5153
    6MOL   H359 3669   6.912   3.556   0.663  1.3192 -0.5553  1.5305
    6MOL   H360 3670   6.980   3.611   0.889 -1.3184 -0.5616 -0.7348
    6MOL   H361 3671   6.875   3.760   0.893 -0.1526 -1.4508  1.9137
    6MOL   H362 3672   7.109   3.719   0.706 -0.8737  0.3029 -0.4057
    6MOL   H363 3673   7.009   3.866   0.714  1.4322  1.2576  2.0370
    6MOL   H364 3674   7.107   3.808   0.854 -0.1399  1.3385 -0.3547
    6MOL   C365 3675   6.007   3.614   0.979 -0.0292 -0.8774  0.0207
    6MOL   C366 3676   5.930   3.685   0.865 -1.0262 -0.2130  0.0853
    6MOL   C367 3677   5.796   3.616   0.841 -0.5599 -0.7784  0.4402
    6MOL   C368 3678   5.734   3.629   0.697 -0.0567 -0.7215  0.5714
    6MOL   C369 3679   5.812   3.603   0.572  0.3373 -0.3962 -0.2331
    6MOL   C370 3680   5.865   3.460   0.557 -0.3108  0.2352  0.8178
    6MOL   C371 3681   5.933   3.434   0.423  0.1563  0.0702  0.4815
    6MOL   C372 3682   6.069   3.508   0.412 -0.6053 -0.2810 -0.1707
    6MOL   C373 3683   6.168   3.466   0.296  0.1450 -0.1173 -0.1311
    6MOL   C374 3684   6.292   3.566   0.294  0.0851  0.7195  0.2531
    6MOL   C375 3685   6.416   3.493   0.237  0.3867 -0.0072  0.2208
    6MOL   H376 3686   5.942   3.592   1.064 -0.7321  1.4334  0.1135
    6MOL   H377 3687   6.077   3.689   1.017 -1.3400  0.9567 -1.1094
    6MOL   H378 3688   6.001   3.675   0.783 -0.0176  1.9836  0.6536
    6MOL   H379 3689   5.725   3.677   0.897  1.1150  1.1962  0.4946
    6MOL   H380 3690   5.782   3.516   0.882  1.3516 -0.6689  1.4464
    6MOL   H381 3691   5.698   3.728   0.669  0.8317  0.5964  3.8346
    6MOL   H382 3692   5.654   3.555   0.697 -1.5337  0.8198 -0.9481
    6MOL   H383 3693   5.892   3.677   0.566 -1.6793  1.9724  1.0942
    6MOL   H384 3694   5.747   3.619   0.485 -0.0612  1.9619  0.4608
    6MOL   H385 3695   5.791   3.384   0.583 -0.0004 -0.8288 -1.3008
    6MOL   H386 3696   5.940   3.447   0.635 -2.4449 -4.3937  2.2762
    6MOL   H387 3697   5.951   3.328   0.407  0.9631  0.0894  1.2706
    6MOL   H388 3698   5.863   3.469   0.347 -0.2199 -1.4118  0.1304
    6MOL   H389 3699   6.124   3.495   0.506 -1.3050  1.9069  0.5595
    6MOL   H390 3700   6.060   3.615   0.399  0.5459 -0.2657 -0.9335
    6MOL   H391 3701   6.202   3.363   0.303 -0.4214 -0.3580 -0.8925
    6MOL   H392 3702   6.110   3.488   0.207 -1.1244  2.2215  1.2169
    6MOL   H393 3703   6.269   3.658   0.240 -1.8389 -0.6054 -1.2667
    6MOL   H394 3704   6.307   3.601   0.396 -1.1988  1.7688  0.0869
    6MOL   H395 3705   6.404   3.434   0.146 -1.0770  3.1685 -1.7460
    6MOL   H396 3706   6.472   3.433   0.309 -0.1570 -0.3299  0.3739
    6MOL   H397 3707   6.489   3.575   0.234  0.4600 -0.0432  0.8988
    6MOL   C398 3708   5.925   3.834   0.893  0.6192  0.7285 -0.8217
    6MOL   C399 3709   5.872   3.929   0.789 -0.3714  0.9860 -1.0685
    6MOL   C400 3710   5.977   3.947   0.670 -0.1393  0.7234 -0.6587
    6MOL   C401 3711   5.926   4.044   0.561 -0.6557 -0.3621 -0.0038
    6MOL   C402 3712   5.975   4.007   0.416 -0.2874  0.2805  0.6077
    6MOL   C403 3713   5.926   4.102   0.303 -0.2937 -0.1559  0.4976
    6MOL   C404 3714   5.964   4.052   0.161 -0.2878 -0.2156  0.2892
    6MOL   C405 3715   5.901   4.145   0.059 -0.4900  0.1082 -0.0188
    6MOL   C406 3716   5.892   4.076   7.627 -0.1818  0.0784 -0.2434
    6MOL   C407 3717   6.030   4.042   7.558  0.5001  0.5325  0.0360
    6MOL   C408 3718   6.058   3.988   7.417  1.2148 -0.2907 -0.3657
    6MOL   H409 3719   6.023   3.873   0.920 -0.0064  0.8580  1.3864
    6MOL   H410 3720   5.856   3.839   0.977  0.1248  0.3904 -1.2074
    6MOL   H411 3721   5.777   3.889   0.753  0.0031 -0.5325 -0.3927
    6MOL   H412 3722   6.008   3.849   0.635 -0.6092  0.4083 -0.2076
    6MOL   H413 3723   6.070   3.984   0.714 -0.5299 -0.6960  1.4416
    6MOL   H414 3724   5.817   4.043   0.566 -0.6757 -2.9819 -0.3964
    6MOL   H415 3725   5.940   4.148   0.590 -2.5054 -0.1678  0.2725
    6MOL   H416 3726   6.083   3.995   0.408 -0.4844 -2.1758  1.1718
    6MOL   H417 3727   5.932   3.909   0.395  1.4420 -0.3618 -0.0889
    6MOL   H418 3728   5.979   4.196   0.323 -2.8312  1.8713 -1.9396
    6MOL   H419 3729   5.818   4.115   0.304 -0.1239  1.4112  0.3898
    6MOL   H420 3730   6.072   4.035   0.153 -0.2738  0.1504 -0.3574
    6MOL   H421 3731   5.927   3.950   0.147 -0.3821 -0.2433  0.7678
    6MOL   H422 3732   5.953   4.241   0.056  1.0625 -0.7524 -2.3409
    6MOL   H423 3733   5.801   4.165   0.094 -1.9485 -0.6411 -3.5009
    6MOL   H424 3734   5.830   3.987   7.615  0.9753 -0.7767  0.0415
    6MOL   H425 3735   5.840   4.150   7.566 -1.7500  1.2152  2.3963
    6MOL   H426 3736   6.082   3.965   7.615 -0.8749 -1.2999 -1.1469
    6MOL   H427 3737   6.099   4.126   7.571  1.4704 -0.1896 -0.3678
    6MOL   H428 3738   6.042   3.881   7.406 -0.2327 -0.1581  0.3380
    6MOL   H429 3739   6.159   4.015   7.385  0.5247  1.3570 -1.2279
    6MOL   H430 3740   5.994   4.036   7.343  1.4419  1.5407  0.6041
    6MOL   C431 3741   5.830   4.066   0.854  0.0212 -0.3647  0.3270
    6MOL   C432 3742   5.729   4.086   0.973 -0.3115 -0.0064  0.1215
    6MOL   C433 3743   5.591   4.020   0.939  0.0432  0.5335  0.2261
    6MOL   C434 3744   5.546   3.911   1.040  0.0770  0.1437 -0.1666
    6MOL   C435 3745   5.449   3.807   0.987  0.4029  0.8342  0.5867
    6MOL   C436 3746   5.432   3.684   1.078  0.3312  0.1468 -0.0620
    6MOL   C437 3747   5.337   3.579   1.012  1.0669 -0.3253  0.1369
    6MOL   C438 3748   5.422   3.471   0.946 -0.0134 -0.8964  0.7941
    6MOL   C439 3749   5.457   3.360   1.047 -0.1939  0.0661 -0.3514
    6MOL   C440 3750   5.461   3.229   0.977  0.2492  0.2098  0.5428
    6MOL   C441 3751   5.573   3.218   0.874  0.1576  0.4711  0.6467
    6MOL   H442 3752   5.803   4.119   0.762  1.5619 -2.9466 -1.7061
    6MOL   H443 3753   5.919   4.109   0.900 -1.1588  1.9544  0.5111
    6MOL   H444 3754   5.769   4.033   1.059 -2.7108 -0.2259  1.1460
    6MOL   H445 3755   5.519   4.100   0.923  1.7504  2.0486  0.0276
    6MOL   H446 3756   5.608   3.963   0.847  0.9898 -1.1096  1.3891
    6MOL   H447 3757   5.481   3.944   1.121 -0.8794 -0.5267 -0.6506
    6MOL   H448 3758   5.630   3.859   1.085  0.0206 -0.1762 -0.4262
    6MOL   H449 3759   5.477   3.780   0.885  3.7780 -0.0246  1.6634
    6MOL   H450 3760   5.354   3.859   0.974  0.0933  0.1019 -0.1130
    6MOL   H451 3761   5.390   3.716   1.174  0.2163 -1.8193  0.5638
    6MOL   H452 3762   5.527   3.634   1.095  0.8115  1.5154  1.4725
    6MOL   H453 3763   5.278   3.623   0.932  3.2636  0.1007 -1.2798
    6MOL   H454 3764   5.264   3.553   1.089  0.3838  0.8430 -0.1130
    6MOL   H455 3765   5.357   3.422   0.873 -1.0409  0.2244  0.9410
    6MOL   H456 3766   5.504   3.495   0.880 -0.0610 -1.0094  0.6927
    6MOL   H457 3767   5.376   3.359   1.120  1.3208  0.1807  1.3660
    6MOL   H458 3768   5.547   3.373   1.107 -0.7609  0.2081  0.4683
    6MOL   H459 3769   5.365   3.215   0.927 -2.1293  1.1353  4.5991
    6MOL   H460 3770   5.474   3.148   1.048  1.3950 -0.9848 -0.9909
    6MOL   H461 3771   5.667   3.221   0.929  0.5241 -0.8670  0.1096
    6MOL   H462 3772   5.568   3.118   0.832  0.6235  1.0943 -0.9293
    6MOL   H463 3773   5.568   3.298   0.800  1.5362 -0.3715 -0.3663
    6MOL   C464 3774   5.704   4.233   1.012  0.5560 -0.1949  0.2024
    6MOL   C465 3775   5.626   4.249   1.149  0.6844  0.4271  1.0333
    6MOL   C466 3776   5.693   4.187   1.270 -1.2011  0.8913  0.8347
    6MOL   C467 3777   5.827   4.239   1.312  0.0649  0.5087  0.0087
    6MOL   C468 3778   5.914   4.135   1.386  0.8993 -0.0026 -0.1238
    6MOL   C469 3779   5.964   4.029   1.292 -0.6287 -0.2995 -0.5134
    6MOL   C470 3780   6.050   3.926   1.366  0.9407 -0.0861  1.2820
    6MOL   C471 3781   6.119   3.815   1.281  0.7026  0.0314  0.3834
    6MOL   C472 3782   6.268   3.841   1.258  0.1075 -0.7912 -0.0255
    6MOL   C473 3783   6.341   3.741   1.161  0.0246  0.3208 -0.2855
    6MOL   C474 3784   6.483   3.715   1.214 -0.1653 -0.0952  0.3347
    6MOL   H475 3785   5.656   4.291   0.933  1.7025  0.1207 -0.2690
    6MOL   H476 3786   5.800   4.283   1.022 -0.4903  2.2537 -1.4197
    6MOL   H477 3787   5.526   4.208   1.138 -1.2880  4.8267  1.4664
    6MOL   H478 3788   5.700   4.079   1.260  0.4797  1.1416 -1.0555
    6MOL   H479 3789   5.638   4.196   1.364  0.4453 -0.8967  2.0078
    6MOL   H480 3790   5.877   4.265   1.219  0.4109 -1.0804 -0.2584
    6MOL   H481 3791   5.818   4.334   1.364 -2.4549  0.2595  0.0924
    6MOL   H482 3792   5.859   4.089   1.468  1.1946 -1.8833 -0.9585
    6MOL   H483 3793   6.006   4.171   1.431 -0.6376  1.5841  1.9199
    6MOL   H484 3794   5.894   3.959   1.246  1.3296 -1.3521 -1.9839
    6MOL   H485 3795   6.011   4.071   1.203  0.6581  1.6985  1.0624
    6MOL   H486 3796   6.123   3.985   1.423  0.6049  0.8466  0.7616
    6MOL   H487 3797   5.990   3.888   1.449 -1.8540  2.6070  0.6164
    6MOL   H488 3798   6.103   3.721   1.333 -0.1328 -0.9594 -1.5785
    6MOL   H489 3799   6.070   3.803   1.184  1.8842 -2.9207  0.1008
    6MOL   H490 3800   6.267   3.939   1.211 -1.7454 -0.1516  1.3013
    6MOL   H491 3801   6.327   3.833   1.350 -0.4148 -1.7799  0.2274
    6MOL   H492 3802   6.297   3.642   1.162  0.2659  0.1857 -2.1105
    6MOL   H493 3803   6.352   3.770   1.057  0.7517  1.1232  0.0030
    6MOL   H494 3804   6.478   3.655   1.304 -0.7106 -0.8297 -0.1727
    6MOL   H495 3805   6.522   3.815   1.233 -2.7555  1.3044 -1.3903
    6MOL   H496 3806   6.548   3.659   1.147 -0.5723 -0.3411  0.1363
    6MOL   C497 3807   5.586   4.398   1.177  0.0197  0.8856 -0.2051
    6MOL   C498 3808   5.514   4.485   1.072 -0.4082 -0.3363  0.1015
    6MOL   C499 3809   5.495   4.639   1.114  0.3099 -0.3330 -0.2451
    6MOL   C500 3810   5.622   4.711   1.157  0.4408 -0.7507  0.3124
    6MOL   C501 3811   5.720   4.753   1.047  0.0461  0.1311  0.6041
    6MOL   C502 3812   5.744   4.902   1.039  0.0950 -0.2975  0.5651
    6MOL   C503 3813   5.807   4.962   1.168  0.0817 -0.5961  0.7062
    6MOL   C504 3814   5.859   5.106   1.146  0.5124  0.5582  0.1988
    6MOL   C505 3815   5.869   5.196   1.268 -0.1778  0.1378 -0.2335
    6MOL   C506 3816   5.906   5.339   1.233  0.4641 -0.0423 -0.6020
    6MOL   C507 3817   5.900   5.438   1.351 -0.0238 -0.1971 -0.8546
    6MOL   H508 3818   5.536   4.397   1.274  1.1375 -1.3866  0.3923
    6MOL   H509 3819   5.681   4.451   1.189 -0.0068  1.4425 -2.2169
    6MOL   H510 3820   5.580   4.486   0.985 -2.1522  3.2146 -1.2812
    6MOL   H511 3821   5.437   4.634   1.206 -0.8218  0.9870 -0.8627
    6MOL   H512 3822   5.444   4.684   1.028  0.9481  4.3871  1.7229
    6MOL   H513 3823   5.680   4.653   1.229  0.5938  0.6452  1.3386
    6MOL   H514 3824   5.596   4.790   1.227  2.0573  1.2877 -1.3166
    6MOL   H515 3825   5.817   4.704   1.058  0.5214  0.9037 -0.0652
    6MOL   H516 3826   5.682   4.720   0.950  0.5453  0.6862  0.2143
    6MOL   H517 3827   5.802   4.915   0.948 -0.1506  0.4881  0.5241
    6MOL   H518 3828   5.649   4.951   1.019  0.2343 -0.1358  0.3001
    6MOL   H519 3829   5.732   4.960   1.248 -1.2748 -0.6972 -0.5564
    6MOL   H520 3830   5.884   4.888   1.192 -2.5764 -3.8246 -0.3293
    6MOL   H521 3831   5.786   5.149   1.078 -0.0361 -1.4529 -0.5120
    6MOL   H522 3832   5.949   5.102   1.086 -0.6221  0.7510 -1.5471
    6MOL   H523 3833   5.950   5.152   1.327 -1.5578 -0.2360  1.4165
    6MOL   H524 3834   5.773   5.194   1.320  0.1673 -0.5162  0.3903
    6MOL   H525 3835   5.830   5.373   1.162 -0.2501  0.9537  0.6130
    6MOL   H526 3836   6.001   5.324   1.182 -1.0354 -2.2686 -2.8881
    6MOL   H527 3837   5.813   5.422   1.416  1.4805  1.7987  1.7666
    6MOL   H528 3838   5.890   5.539   1.310  0.8424 -0.2849 -1.2797
    6MOL   H529 3839   5.995   5.439   1.404 -1.1777  0.0919  1.2836
    6MOL   C530 3840   5.393   4.420   1.010 -0.1968 -0.6398  0.3561
    6MOL   C531 3841   5.274   4.379   1.104  0.4024 -0.3277 -0.3050
    6MOL   C532 3842   5.218   4.236   1.073 -0.4321  0.3831 -0.0991
    6MOL   C533 3843   5.124   4.221   0.953  0.4166  0.4043 -0.4048
    6MOL   C534 3844   5.130   4.074   0.903 -0.0779  0.0859  0.5922
    6MOL   C535 3845   5.096   3.966   1.008 -0.8512  0.6214 -0.0243
    6MOL   C536 3846   5.023   3.847   0.947 -0.0948  0.1728 -0.4286
    6MOL   C537 3847   4.964   3.754   1.056 -0.2448  0.1079 -0.2701
    6MOL   C538 3848   4.894   3.630   0.993 -0.4167  0.1461 -0.6955
    6MOL   C539 3849   4.755   3.664   0.948 -0.4901  0.0976  0.1818
    6MOL   C540 3850   4.681   3.562   0.863  0.3741 -0.1922  0.2485
    6MOL   H541 3851   5.344   4.478   0.931 -2.6974  0.3177  2.5016
    6MOL   H542 3852   5.427   4.327   0.965 -0.7635  0.6943 -3.0159
    6MOL   H543 3853   5.321   4.366   1.201 -2.8694 -0.0859  1.3767
    6MOL   H544 3854   5.175   4.204   1.167 -3.1413  1.4251 -0.9494
    6MOL   H545 3855   5.309   4.177   1.063 -0.6935  0.0202 -0.3327
    6MOL   H546 3856   5.164   4.287   0.876  2.8572 -1.1981 -0.5453
    6MOL   H547 3857   5.022   4.253   0.977 -0.1233 -0.8150 -1.0468
    6MOL   H548 3858   5.229   4.071   0.856  0.5462 -1.5741  1.9221
    6MOL   H549 3859   5.053   4.073   0.826  1.9362 -1.1377 -1.4677
    6MOL   H550 3860   5.031   4.026   1.071 -0.2926  1.2773 -0.0639
    6MOL   H551 3861   5.188   3.939   1.061 -0.0389  1.1737 -1.1421
    6MOL   H552 3862   5.093   3.805   0.875 -1.0783 -0.7932 -0.8456
    6MOL   H553 3863   4.942   3.882   0.883 -0.0211 -0.3977 -0.8387
    6MOL   H554 3864   4.899   3.817   1.117 -0.5742 -0.0319 -0.4774
    6MOL   H555 3865   5.042   3.732   1.129 -1.0531  2.3400  1.3318
    6MOL   H556 3866   4.893   3.545   1.062  1.0342 -0.5978 -1.5818
    6MOL   H557 3867   4.952   3.588   0.911 -1.6456 -1.1282 -0.9249
    6MOL   H558 3868   4.743   3.759   0.897 -2.3093 -0.0928  0.2341
    6MOL   H559 3869   4.688   3.688   1.030 -1.1802  2.0221 -0.9250
    6MOL   H560 3870   4.744   3.537   0.778 -1.2438  1.2438 -1.3997
    6MOL   H561 3871   4.650   3.478   0.925  0.6950 -0.7565 -0.3479
    6MOL   H562 3872   4.587   3.588   0.816  0.1341  2.0143  1.8582
    6MOL   C563 3873   5.167   4.492   1.115  0.2649  0.0179 -0.4509
    6MOL   C564 3874   5.092   4.498   1.257  0.2664 -0.4166  1.0890
    6MOL   C565 3875   4.983   4.613   1.256  0.2406  0.5462  0.4794
    6MOL   C566 3876   4.863   4.573   1.167 -0.6476  0.4972 -0.2639
    6MOL   C567 3877   4.737   4.647   1.202 -0.7031  0.6952  1.3753
    6MOL   C568 3878   4.621   4.603   1.098  0.0548  0.3200 -0.0529
    6MOL   C569 3879   4.500   4.688   1.111 -0.1702 -0.1802  0.4474
    6MOL   C570 3880   4.384   4.631   1.024 -0.2427 -0.2477  0.5825
    6MOL   C571 3881   4.253   4.720   1.016 -0.3700 -0.8546 -0.6157
    6MOL   C572 3882   4.146   4.654   0.938 -0.1497  0.3654 -0.1900
    6MOL   C573 3883   4.023   4.743   0.919 -0.0203  0.4725 -0.3096
    6MOL   H574 3884   5.098   4.473   1.034 -0.9330 -2.7040  1.1368
    6MOL   H575 3885   5.217   4.587   1.096  1.2145  0.0492  1.9691
    6MOL   H576 3886   5.039   4.405   1.274 -0.9188  0.0045 -0.2058
    6MOL   H577 3887   5.009   4.718   1.244 -2.5009  0.9574 -2.6034
    6MOL   H578 3888   4.944   4.615   1.358  2.6628 -1.6048  1.4960
    6MOL   H579 3889   4.847   4.467   1.188  1.2859  0.6149  1.9684
    6MOL   H580 3890   4.887   4.561   1.061 -1.2782 -1.4725 -0.2021
    6MOL   H581 3891   4.753   4.754   1.192  0.5620  0.2147 -2.8095
    6MOL   H582 3892   4.695   4.630   1.301 -0.2975  1.1050  1.6189
    6MOL   H583 3893   4.651   4.606   0.993 -2.4580 -1.1800 -0.8578
    6MOL   H584 3894   4.595   4.499   1.118 -2.9097  1.2351  1.1260
    6MOL   H585 3895   4.476   4.691   1.217  0.8951 -1.4236  0.7334
    6MOL   H586 3896   4.523   4.788   1.075  1.6959 -1.3589 -1.7629
    6MOL   H587 3897   4.366   4.529   1.058  0.2963 -1.0398 -1.3915
    6MOL   H588 3898   4.421   4.617   0.922  0.3477  0.3387  0.7168
    6MOL   H589 3899   4.288   4.814   0.974  0.3971 -0.2487  1.3436
    6MOL   H590 3900   4.216   4.767   1.108  0.6931  0.3787 -0.8000
    6MOL   H591 3901   4.115   4.562   0.986  3.6517  0.0135  1.8271
    6MOL   H592 3902   4.176   4.623   0.838  0.9625  1.7003 -0.2884
    6MOL   H593 3903   4.047   4.839   0.873 -1.0742  1.2579  0.7371
    6MOL   H594 3904   3.949   4.703   0.850  0.6033 -1.2246 -0.0185
    6MOL   H595 3905   3.975   4.761   1.015 -0.1700  0.8099 -0.4477
    6MOL   C596 3906   5.185   4.532   1.374 -0.2628 -0.0581 -0.3435
    6MOL   C597 3907   5.148   4.472   1.512 -0.2813  0.6723 -0.1922
    6MOL   C598 3908   5.161   4.579   1.619  0.0446  0.3962 -0.4875
    6MOL   C599 3909   5.113   4.535   1.759  0.2867  0.6418  0.1191
    6MOL   C600 3910   5.093   4.652   1.856 -0.1926  0.6348 -0.9224
    6MOL   C601 3911   5.020   4.616   1.989  0.1233  0.5031 -1.1054
    6MOL   C602 3912   4.932   4.725   2.054  0.6714  0.0986  0.6298
    6MOL   C603 3913   4.857   4.679   2.183  0.1420 -0.8397  0.2530
    6MOL   C604 3914   4.764   4.790   2.243 -0.2497  0.0776 -0.1386
    6MOL   C605 3915   4.689   4.759   2.372  0.1435 -0.1376 -0.6617
    6MOL   C606 3916   4.589   4.871   2.417 -0.1584  0.4179  0.2102
    6MOL   H607 3917   5.285   4.491   1.365 -0.4682 -0.9653  1.3482
    6MOL   H608 3918   5.196   4.640   1.372 -0.3163 -0.0303  0.5242
    6MOL   H609 3919   5.041   4.459   1.499 -0.1443 -0.6314 -0.1193
    6MOL   H610 3920   5.124   4.674   1.580 -0.1223 -0.0541 -1.4473
    6MOL   H611 3921   5.263   4.610   1.642 -0.0173  1.7125 -1.8965
    6MOL   H612 3922   5.184   4.461   1.796 -0.9311 -1.3820 -1.4908
    6MOL   H613 3923   5.015   4.486   1.764 -1.1268  3.6134  4.6874
    6MOL   H614 3924   5.026   4.724   1.808  0.5455  0.7008 -1.8905
    6MOL   H615 3925   5.187   4.704   1.874  0.4893 -0.1910 -2.0616
    6MOL   H616 3926   4.955   4.531   1.969 -0.3946  0.4354  0.7215
    6MOL   H617 3927   5.098   4.590   2.060  0.0936  2.0372 -0.4868
    6MOL   H618 3928   4.856   4.747   1.979  2.3931 -1.5363 -1.6896
    6MOL   H619 3929   4.983   4.819   2.079 -1.1580  0.7732  1.9232
    6MOL   H620 3930   4.930   4.653   2.260  1.6377 -2.6071 -1.6930
    6MOL   H621 3931   4.799   4.591   2.153 -1.1443  0.1018 -0.0750
    6MOL   H622 3932   4.821   4.882   2.253 -1.2848  0.6116  1.0259
    6MOL   H623 3933   4.691   4.814   2.165 -1.5659  1.8079  1.5921
    6MOL   H624 3934   4.760   4.737   2.452 -0.3875 -1.5838 -0.5851
    6MOL   H625 3935   4.643   4.662   2.359 -1.9748  0.7573  0.0117
    6MOL   H626 3936   4.630   4.971   2.407 -1.2774  0.8393 -0.2413
    6MOL   H627 3937   4.503   4.870   2.350 -1.3160 -0.1587  1.6710
    6MOL   H628 3938   4.554   4.857   2.520  0.0233  0.2230  0.2463
    6MOL   C629 3939   5.220   4.337   1.550  0.6086 -0.5682  0.2585
    6MOL   C630 3940   5.374   4.348   1.575 -0.0261 -0.2037 -0.2974
    6MOL   C631 3941   5.426   4.232   1.651 -0.0674  0.4933 -0.2924
    6MOL   C632 3942   5.584   4.249   1.670 -0.0366 -0.0459  0.3492
    6MOL   C633 3943   5.654   4.125   1.725 -0.2486  0.0540  0.2087
    6MOL   C634 3944   5.793   4.166   1.778  0.3618  0.2352  0.0119
    6MOL   C635 3945   5.875   4.045   1.836 -0.2924 -0.3865  0.4806
    6MOL   C636 3946   5.923   3.959   1.716 -0.5719 -0.8784  0.3816
    6MOL   C637 3947   5.983   3.817   1.750  0.6175  0.0104  0.4969
    6MOL   C638 3948   5.881   3.722   1.818  0.3509 -0.6644  0.8344
    6MOL   C639 3949   5.942   3.586   1.816  0.5366 -0.0711 -1.0803
    6MOL   H640 3950   5.181   4.295   1.642  1.5038 -0.4783  0.6922
    6MOL   H641 3951   5.197   4.260   1.476  0.6633  0.5075 -0.9055
    6MOL   H642 3952   5.425   4.345   1.479 -0.3359  0.1423 -0.4735
    6MOL   H643 3953   5.375   4.216   1.746 -1.4962  1.3412 -0.9024
    6MOL   H644 3954   5.415   4.146   1.586 -1.5795  0.1709  0.3922
    6MOL   H645 3955   5.594   4.328   1.744 -1.2373  0.4189  0.0206
    6MOL   H646 3956   5.637   4.287   1.583  0.7061 -1.3427  0.2188
    6MOL   H647 3957   5.654   4.050   1.646  0.2758  1.9170 -1.5908
    6MOL   H648 3958   5.591   4.078   1.801  0.3552  0.5713  1.0447
    6MOL   H649 3959   5.783   4.254   1.841 -4.1369  2.0141 -2.8918
    6MOL   H650 3960   5.836   4.206   1.686  2.3581 -2.8219 -0.4521
    6MOL   H651 3961   5.800   3.985   1.888 -0.2649 -0.7480  0.1003
    6MOL   H652 3962   5.950   4.079   1.907  2.3698 -2.7352 -1.1275
    6MOL   H653 3963   5.994   4.012   1.653 -2.1706  0.3009 -0.4882
    6MOL   H654 3964   5.833   3.944   1.656 -1.0342  1.1887  0.5132
    6MOL   H655 3965   6.063   3.826   1.823  0.9022  0.0509  0.1794
    6MOL   H656 3966   6.036   3.783   1.661  1.1587  1.0787  0.3968
    6MOL   H657 3967   5.785   3.723   1.766  0.6689  1.4235  0.2643
    6MOL   H658 3968   5.870   3.740   1.925  0.9158 -2.1625  1.1623
    6MOL   H659 3969   5.947   3.541   1.717  1.6676 -1.0275 -0.6058
    6MOL   H660 3970   5.875   3.516   1.867  0.9143  1.1788  1.2298
    6MOL   H661 3971   6.037   3.584   1.870 -0.1573 -1.0796  0.1568
    6MOL   H662 3972   5.408   4.432   1.635  0.7927  1.1046 -2.5465
    7MOL     C1 3973   1.613   2.412   3.400 -0.4028  0.2325 -0.5012
    7MOL     C2 3974   1.767   2.426   3.356  0.2575  0.3487  0.7474
    7MOL     C3 3975   1.836   2.559   3.415  0.9145 -0.8997 -0.2843
    7MOL     C4 3976   1.975   2.598   3.366  0.6559 -0.4598  0.0314
    7MOL     C5 3977   2.026   2.733   3.418 -0.0770  0.0563 -0.6931
    7MOL     C6 3978   2.170   2.760   3.370  0.3566 -0.9823  0.1346
    7MOL     C7 3979   2.210   2.911   3.412  1.1761 -0.7610 -0.0226
    7MOL     C8 3980   2.118   3.016   3.343 -0.1166 -0.2424 -0.1520
    7MOL     C9 3981   2.158   3.065   3.202  0.7150  0.7150  0.8918
    7MOL    C10 3982   2.072   3.178   3.157 -0.4859 -0.2759  0.0636
    7MOL    C11 3983   2.113   3.235   3.018 -0.5072 -0.1982 -0.1960
    7MOL    H12 3984   1.571   2.325   3.350 -1.4746 -0.0586  0.8748
    7MOL    H13 3985   1.551   2.501   3.383  0.5880  0.9380 -0.4791
    7MOL    H14 3986   1.767   2.431   3.248  0.5501  3.5519  0.8331
    7MOL    H15 3987   1.851   2.558   3.523  0.3230 -3.2589 -0.2059
    7MOL    H16 3988   1.775   2.648   3.402  0.4418 -0.9869  1.2008
    7MOL    H17 3989   1.980   2.594   3.257  0.4015  2.7974 -0.1314
    7MOL    H18 3990   2.041   2.518   3.401 -0.8851 -1.1782  1.3630
    7MOL    H19 3991   1.949   2.801   3.381  0.8813  1.5499  0.0256
    7MOL    H20 3992   2.009   2.732   3.526 -0.2319  1.5713 -0.6930
    7MOL    H21 3993   2.174   2.759   3.261 -0.3075 -0.0279  0.0926
    7MOL    H22 3994   2.242   2.687   3.408 -0.5933 -1.9946  0.0247
    7MOL    H23 3995   2.196   2.924   3.519  0.7535  0.2708 -0.1965
    7MOL    H24 3996   2.314   2.930   3.385  0.5559 -1.1957 -2.9323
    7MOL    H25 3997   2.132   3.106   3.404 -1.7705 -0.5517  0.7316
    7MOL    H26 3998   2.012   2.991   3.341 -0.0597 -0.3795 -1.3694
    7MOL    H27 3999   2.149   2.978   3.137 -0.2801  1.7770 -0.4199
    7MOL    H28 4000   2.264   3.092   3.197  0.8600  0.6482  2.9072
    7MOL    H29 4001   2.078   3.260   3.228  1.5541  0.5718 -1.0693
    7MOL    H30 4002   1.973   3.133   3.157 -0.9488  0.7369  0.0838
    7MOL    H31 4003   2.060   3.176   2.944 -1.5287 -0.2967  0.5851
    7MOL    H32 4004   2.073   3.337   3.021 -1.6424 -0.6602  3.2010
    7MOL    H33 4005   2.221   3.228   3.007 -0.2595  0.2071  1.6411
    7MOL    H34 4006   1.607   2.392   3.507  2.9952  0.3807 -0.2452
    7MOL    C35 4007   1.847   2.301   3.397  0.2915 -0.4034 -0.6065
    7MOL    C36 4008   1.809   2.165   3.343 -0.7205  0.1631  0.6635
    7MOL    C37 4009   1.920   2.129   3.236  0.2617  0.7340  0.5683
    7MOL    C38 4010   1.947   2.222   3.111 -0.1394  0.5111 -0.0405
    7MOL    C39 4011   2.090   2.200   3.051  0.1869  0.7692 -1.1120
    7MOL    C40 4012   2.136   2.293   2.943  0.5080 -0.5272 -0.4253
    7MOL    C41 4013   2.185   2.429   2.994 -0.1862  0.3376  0.8584
    7MOL    C42 4014   2.191   2.539   2.885 -0.0102  0.1889 -0.3238
    7MOL    C43 4015   2.275   2.670   2.918 -0.3248  0.1323 -0.1946
    7MOL    C44 4016   2.254   2.776   2.811  0.1167  0.0392 -0.6066
    7MOL    C45 4017   2.326   2.907   2.848  0.2359  0.1958 -0.8978
    7MOL    H46 4018   1.848   2.292   3.506  2.2061 -2.0750 -0.7369
    7MOL    H47 4019   1.953   2.323   3.380  0.0604  0.4736 -0.9179
    7MOL    H48 4020   1.717   2.169   3.285 -1.3830 -2.7884  1.3871
    7MOL    H49 4021   2.016   2.112   3.284  0.0526 -2.5578 -0.0862
    7MOL    H50 4022   1.900   2.033   3.188  0.1046  0.1215  1.8476
    7MOL    H51 4023   1.943   2.327   3.141 -1.1684  0.9614 -1.7129
    7MOL    H52 4024   1.874   2.210   3.031  0.3015  0.1947 -0.3945
    7MOL    H53 4025   2.100   2.102   3.005  0.6725  1.3938 -2.3594
    7MOL    H54 4026   2.164   2.195   3.131 -2.1941  2.1723  1.2269
    7MOL    H55 4027   2.051   2.310   2.878  0.3279 -0.3739 -0.1501
    7MOL    H56 4028   2.219   2.240   2.897  0.5604 -2.0486  1.3279
    7MOL    H57 4029   2.119   2.463   3.074  1.2391 -0.8753  2.5926
    7MOL    H58 4030   2.277   2.416   3.050 -0.7885 -0.2879  1.7228
    7MOL    H59 4031   2.091   2.573   2.858  0.4013  1.5751 -0.1705
    7MOL    H60 4032   2.242   2.508   2.794  1.4773  1.2472  0.1165
    7MOL    H61 4033   2.383   2.659   2.914 -0.1488  1.8187 -0.7064
    7MOL    H62 4034   2.244   2.706   3.016  0.1219  2.1480 -0.7720
    7MOL    H63 4035   2.285   2.745   2.711 -0.2850  1.4226 -1.1853
    7MOL    H64 4036   2.149   2.805   2.804  0.4507  1.5616  0.3337
    7MOL    H65 4037   2.275   2.954   2.932 -0.9565  1.7295 -2.4434
    7MOL    H66 4038   2.434   2.901   2.857  0.2504  0.1317 -1.1099
    7MOL    H67 4039   2.303   2.972   2.763 -0.5007 -2.3759 -2.7034
    7MOL    C68 4040   1.782   2.047   3.441  0.0113 -0.5596 -0.0531
    7MOL    C69 4041   1.653   2.058   3.543 -0.3715 -0.1806 -0.4755
    7MOL    C70 4042   1.517   2.032   3.471  0.2470 -0.7877 -0.2330
    7MOL    C71 4043   1.400   2.097   3.548 -0.0945  0.0575 -0.5504
    7MOL    C72 4044   1.266   2.083   3.478  0.2926  0.0020  0.3225
    7MOL    C73 4045   1.214   1.942   3.449  0.0060 -0.2236 -0.9210
    7MOL    C74 4046   1.086   1.955   3.360  0.5490  0.4280 -0.3221
    7MOL    C75 4047   1.106   2.019   3.221 -0.0572 -0.5118  0.3599
    7MOL    C76 4048   1.009   1.965   3.113 -0.5753 -0.6760 -0.0021
    7MOL    C77 4049   0.869   2.029   3.123  0.6543  0.2187  0.0241
    7MOL    C78 4050   0.782   1.961   3.018 -1.0663  0.5041 -0.2218
    7MOL    H79 4051   1.872   2.034   3.500 -0.4632  0.7438  0.9711
    7MOL    H80 4052   1.780   1.956   3.381  1.8556  0.6602 -2.0586
    7MOL    H81 4053   1.654   2.156   3.590 -0.3086 -0.6951  0.6175
    7MOL    H82 4054   1.502   1.925   3.457 -0.3924 -0.8656  0.9386
    7MOL    H83 4055   1.518   2.074   3.371  1.2685  2.2117  0.9718
    7MOL    H84 4056   1.392   2.034   3.637  0.2901 -0.8991 -1.1830
    7MOL    H85 4057   1.407   2.203   3.572  0.2887 -0.2588  0.7797
    7MOL    H86 4058   1.278   2.144   3.388 -1.4757 -1.2197 -0.7753
    7MOL    H87 4059   1.200   2.128   3.553 -0.4712  0.0279 -0.3531
    7MOL    H88 4060   1.287   1.876   3.403  0.2420  0.5374 -1.6509
    7MOL    H89 4061   1.193   1.908   3.550 -0.0352  1.5924 -0.2888
    7MOL    H90 4062   1.000   2.002   3.409  0.4606  0.3268 -0.3800
    7MOL    H91 4063   1.062   1.849   3.355  1.7918  0.1311 -0.2033
    7MOL    H92 4064   1.120   2.127   3.229  2.3997 -1.0073  3.7482
    7MOL    H93 4065   1.206   1.984   3.196  0.5445  1.6816 -0.3942
    7MOL    H94 4066   1.065   1.981   3.021 -1.3796  0.0824 -0.3739
    7MOL    H95 4067   0.992   1.861   3.141  0.6507 -1.5161 -2.2220
    7MOL    H96 4068   0.822   2.031   3.222 -0.7679  0.1462 -0.6391
    7MOL    H97 4069   0.885   2.134   3.097  2.4584 -0.2609 -0.8082
    7MOL    H98 4070   0.703   2.035   3.005 -1.6880  0.0493  1.0012
    7MOL    H99 4071   0.743   1.864   3.049  0.5362  0.1074  0.6001
    7MOL   H100 4072   0.825   1.961   2.917 -3.5646  1.7276 -1.3309
    7MOL   C101 4073   1.669   1.965   3.664 -0.0123 -0.2401  0.4369
    7MOL   C102 4074   1.710   2.030   3.797 -0.5678 -0.2069 -0.3913
    7MOL   C103 4075   1.801   1.930   3.876 -0.6463 -0.4353  0.3438
    7MOL   C104 4076   1.941   1.902   3.807 -0.1931  0.4540 -0.0581
    7MOL   C105 4077   2.005   1.772   3.863 -0.2013 -0.4517  0.4445
    7MOL   C106 4078   2.135   1.736   3.792  0.2758 -0.6743  0.1593
    7MOL   C107 4079   2.216   1.620   3.865 -0.0614  0.7547  0.6475
    7MOL   C108 4080   2.363   1.626   3.833 -0.2248 -0.6101  0.2382
    7MOL   C109 4081   2.448   1.509   3.861  1.1391 -0.1827  0.0282
    7MOL   C110 4082   2.571   1.500   3.769 -0.7075  0.1378 -0.0304
    7MOL   C111 4083   2.664   1.391   3.813  0.5166  0.1027 -0.3834
    7MOL   H112 4084   1.577   1.906   3.678 -0.7974  0.5233 -1.3994
    7MOL   H113 4085   1.739   1.889   3.631  1.3841  1.2841 -0.1550
    7MOL   H114 4086   1.772   2.118   3.781 -0.3665 -0.0159  1.3734
    7MOL   H115 4087   1.815   1.966   3.978  0.6214  2.0588 -0.6523
    7MOL   H116 4088   1.737   1.844   3.891 -0.7710 -0.4840 -0.4334
    7MOL   H117 4089   1.928   1.880   3.701 -1.0747 -0.6005  0.2576
    7MOL   H118 4090   2.013   1.983   3.814 -0.9887  1.3446 -1.7341
    7MOL   H119 4091   2.021   1.793   3.969 -0.3043 -2.6774  0.9386
    7MOL   H120 4092   1.936   1.687   3.860 -0.5979 -0.0764 -2.0621
    7MOL   H121 4093   2.122   1.699   3.691 -0.6593  0.4508 -0.1418
    7MOL   H122 4094   2.198   1.825   3.784  0.6783 -0.9167  0.6114
    7MOL   H123 4095   2.173   1.529   3.824 -0.9525  1.1729  0.6513
    7MOL   H124 4096   2.192   1.623   3.971 -0.7476  0.9694  0.4889
    7MOL   H125 4097   2.379   1.658   3.730 -1.4735 -1.7195 -0.3033
    7MOL   H126 4098   2.410   1.704   3.893  1.4217 -2.2757  1.1715
    7MOL   H127 4099   2.468   1.511   3.968 -0.1081  0.4372  0.2570
    7MOL   H128 4100   2.392   1.416   3.853  1.8318 -0.7099  1.0864
    7MOL   H129 4101   2.628   1.592   3.782 -0.0454 -0.3026  0.2186
    7MOL   H130 4102   2.542   1.493   3.664  0.7947 -0.8522 -0.3843
    7MOL   H131 4103   2.677   1.405   3.920  1.7856  1.7042 -0.7300
    7MOL   H132 4104   2.618   1.294   3.793 -0.6806  0.5173  0.3291
    7MOL   H133 4105   2.762   1.385   3.764  1.1612 -0.6991  0.9767
    7MOL   C134 4106   1.583   2.076   3.875 -0.3338 -0.8383 -0.4307
    7MOL   C135 4107   1.605   2.199   3.968 -0.6179 -0.2839 -0.4280
    7MOL   C136 4108   1.506   2.186   4.087  0.1885  0.1939 -0.2623
    7MOL   C137 4109   1.556   2.092   4.199 -0.0152 -0.2321  0.2357
    7MOL   C138 4110   1.464   2.090   4.323  0.7299 -0.2876  0.5420
    7MOL   C139 4111   1.517   2.010   4.437  0.3912  0.1774 -0.7478
    7MOL   C140 4112   1.460   2.034   4.580 -0.4196 -0.0267 -0.6187
    7MOL   C141 4113   1.524   1.946   4.693  0.7490  0.0561  0.8914
    7MOL   C142 4114   1.554   2.015   4.832  0.6044 -0.6936  0.1310
    7MOL   C143 4115   1.595   1.911   4.930 -0.1813  0.0239  0.6199
    7MOL   C144 4116   1.713   1.964   5.012 -0.4832  0.4281 -0.4841
    7MOL   H145 4117   1.501   2.104   3.809 -0.2042  1.8356  0.4871
    7MOL   H146 4118   1.546   1.998   3.941  0.1936 -0.7476 -0.0227
    7MOL   H147 4119   1.710   2.187   3.995 -0.9504 -1.8706  0.2714
    7MOL   H148 4120   1.412   2.151   4.045  0.0153 -0.1530  0.4183
    7MOL   H149 4121   1.490   2.287   4.126  1.1902  0.9859 -1.8454
    7MOL   H150 4122   1.576   1.990   4.165  1.1802 -0.1250  0.5809
    7MOL   H151 4123   1.654   2.112   4.242  0.5919 -2.1005 -0.1917
    7MOL   H152 4124   1.452   2.197   4.343 -2.1908 -0.3660 -0.6008
    7MOL   H153 4125   1.364   2.055   4.300  0.7804  0.4651 -0.8566
    7MOL   H154 4126   1.497   1.906   4.412 -3.0657 -0.1940  2.9463
    7MOL   H155 4127   1.625   2.022   4.447  0.7258 -1.5487 -2.0728
    7MOL   H156 4128   1.484   2.137   4.607  0.1439  0.0720 -1.4979
    7MOL   H157 4129   1.352   2.024   4.591 -0.6003  2.7268  0.5353
    7MOL   H158 4130   1.468   1.853   4.701  2.3695 -1.3344 -2.5588
    7MOL   H159 4131   1.617   1.900   4.660  0.3184 -1.8047  2.1999
    7MOL   H160 4132   1.636   2.085   4.815 -0.9548  0.6447 -2.1519
    7MOL   H161 4133   1.472   2.078   4.865  1.1064  0.0914 -0.0953
    7MOL   H162 4134   1.505   1.881   4.985 -0.2086 -0.1301  0.4885
    7MOL   H163 4135   1.625   1.818   4.883  2.4891  1.4973 -0.6857
    7MOL   H164 4136   1.710   1.923   5.113  1.5646 -0.0477 -0.6075
    7MOL   H165 4137   1.707   2.071   5.032  0.0155  0.5952 -1.2157
    7MOL   H166 4138   1.803   1.927   4.963  0.2827  0.6160  0.7723
    7MOL   C167 4139   1.584   2.336   3.905  0.1049 -0.1355 -0.3422
    7MOL   C168 4140   1.674   2.454   3.952  0.1229 -0.1114  0.0388
    7MOL   C169 4141   1.613   2.598   3.927  0.2153 -0.2964 -0.5861
    7MOL   C170 4142   1.599   2.639   3.784 -1.0821  0.1075  0.1775
    7MOL   C171 4143   1.556   2.786   3.770 -0.9639 -0.3561 -0.2922
    7MOL   C172 4144   1.532   2.839   3.625 -0.1055  0.0719 -0.4304
    7MOL   C173 4145   1.431   2.751   3.555  0.5109 -0.5894  0.6939
    7MOL   C174 4146   1.384   2.813   3.425 -0.5575  0.3274  0.0287
    7MOL   C175 4147   1.277   2.728   3.347 -0.3117 -0.2378  0.2822
    7MOL   C176 4148   1.274   2.758   3.194 -0.3888  0.1548  0.4344
    7MOL   C177 4149   1.201   2.897   3.170  0.6339  0.4681  0.0731
    7MOL   H178 4150   1.606   2.313   3.801 -0.7222 -1.2306 -0.2839
    7MOL   H179 4151   1.477   2.357   3.912 -0.0244 -0.2541 -1.7989
    7MOL   H180 4152   1.680   2.440   4.060  1.5391 -0.5286 -0.0781
    7MOL   H181 4153   1.678   2.671   3.975 -0.7985  1.8784 -2.4240
    7MOL   H182 4154   1.517   2.604   3.976  1.1705 -1.8196  1.5267
    7MOL   H183 4155   1.692   2.623   3.729 -1.8558 -3.0904 -0.3190
    7MOL   H184 4156   1.532   2.562   3.747  1.2712 -0.9832 -1.9789
    7MOL   H185 4157   1.638   2.846   3.809 -0.8757 -0.7704  0.1596
    7MOL   H186 4158   1.460   2.792   3.821 -0.7890 -2.6076  0.3827
    7MOL   H187 4159   1.495   2.940   3.641 -0.1532  0.1058 -0.7389
    7MOL   H188 4160   1.625   2.855   3.570  0.3525 -1.6113 -0.1763
    7MOL   H189 4161   1.339   2.733   3.612  0.3546  1.4680  1.1427
    7MOL   H190 4162   1.472   2.651   3.543 -0.9539 -0.9771 -1.2897
    7MOL   H191 4163   1.348   2.916   3.426 -1.9531 -0.1390 -0.6167
    7MOL   H192 4164   1.472   2.821   3.361 -1.1678  4.0776 -0.4298
    7MOL   H193 4165   1.174   2.755   3.371  0.4779  2.5509  0.6848
    7MOL   H194 4166   1.284   2.623   3.376  1.0408 -0.1873  0.1687
    7MOL   H195 4167   1.232   2.668   3.149  0.3668  0.7102 -1.4377
    7MOL   H196 4168   1.379   2.768   3.166 -0.1052  0.1240  1.4365
    7MOL   H197 4169   1.190   2.917   3.064 -2.0017 -0.1612  0.2063
    7MOL   H198 4170   1.242   2.980   3.228  2.7726 -0.6715  0.2500
    7MOL   H199 4171   1.102   2.882   3.212  1.6914 -2.1516  1.8006
    7MOL   C200 4172   1.817   2.442   3.877 -0.1181  0.4211 -0.1318
    7MOL   C201 4173   1.922   2.547   3.901 -0.2205  0.0620  0.0083
    7MOL   C202 4174   2.043   2.523   3.804 -0.4430 -0.4176 -0.5172
    7MOL   C203 4175   2.155   2.624   3.815 -0.2737  0.6981  0.2590
    7MOL   C204 4176   2.267   2.602   3.716 -0.7592 -0.2110 -0.5619
    7MOL   C205 4177   2.388   2.691   3.742  0.0822 -0.3797  0.0633
    7MOL   C206 4178   2.507   2.680   3.647 -0.3352  0.6112 -0.2541
    7MOL   C207 4179   2.613   2.789   3.669 -0.2533 -0.4495  0.3380
    7MOL   C208 4180   2.708   2.793   3.548  0.1508 -0.6967  0.7872
    7MOL   C209 4181   2.821   2.905   3.545 -0.1974 -0.6638 -0.7489
    7MOL   C210 4182   2.758   3.042   3.548  0.7308  0.3841 -0.5644
    7MOL   H211 4183   1.873   2.352   3.901  1.8513  1.0832 -2.0811
    7MOL   H212 4184   1.789   2.440   3.772 -1.7862  0.7328  0.2870
    7MOL   H213 4185   1.879   2.646   3.885 -0.0954  0.3024  1.1182
    7MOL   H214 4186   2.005   2.526   3.702 -0.3738  0.4992 -0.5250
    7MOL   H215 4187   2.082   2.422   3.812  0.3071  0.0127  1.4390
    7MOL   H216 4188   2.197   2.617   3.916  0.9878  1.5040 -0.1994
    7MOL   H217 4189   2.122   2.726   3.794  1.3851  0.9582 -1.1658
    7MOL   H218 4190   2.224   2.637   3.622 -0.9575 -1.9671 -1.1485
    7MOL   H219 4191   2.298   2.498   3.729 -0.5084  0.1447  1.9820
    7MOL   H220 4192   2.349   2.793   3.731 -1.0001 -0.8477 -0.5805
    7MOL   H221 4193   2.422   2.679   3.845 -0.1621  2.0980  0.4625
    7MOL   H222 4194   2.464   2.680   3.547 -0.9487  0.8014  0.0070
    7MOL   H223 4195   2.551   2.582   3.669 -1.4319  0.2567  0.3744
    7MOL   H224 4196   2.669   2.773   3.761 -0.7514 -1.6729  0.4404
    7MOL   H225 4197   2.566   2.885   3.689  0.4053 -0.8469  4.1348
    7MOL   H226 4198   2.652   2.790   3.454  0.2077  1.1941  0.6659
    7MOL   H227 4199   2.753   2.694   3.545 -0.0076 -0.7305 -1.8595
    7MOL   H228 4200   2.889   2.909   3.630 -0.1900 -1.3642 -0.7233
    7MOL   H229 4201   2.880   2.893   3.454  2.2476  1.9886  0.4264
    7MOL   H230 4202   2.826   3.123   3.573 -0.8326  0.9288  2.1816
    7MOL   H231 4203   2.693   3.055   3.635  2.3397 -0.2543  0.7473
    7MOL   H232 4204   2.701   3.059   3.456  0.0712 -1.8708 -0.6053
    7MOL   C233 4205   1.958   2.553   4.052  0.3943  0.4512 -0.5928
    7MOL   C234 4206   2.021   2.683   4.117  0.3086 -0.4732  0.6665
    7MOL   C235 4207   2.122   2.660   4.229  0.2583 -0.1146  0.0153
    7MOL   C236 4208   2.214   2.778   4.273 -0.5464  1.0129  0.1090
    7MOL   C237 4209   2.299   2.826   4.154  0.0092  0.1915  0.0832
    7MOL   C238 4210   2.431   2.889   4.200  0.2093  0.1472  0.4328
    7MOL   C239 4211   2.520   2.925   4.074 -0.0905 -0.7323 -0.6989
    7MOL   C240 4212   2.668   2.969   4.110 -0.3657  0.6076  0.6822
    7MOL   C241 4213   2.751   3.003   3.989 -0.1601 -0.1110 -0.6270
    7MOL   C242 4214   2.694   3.118   3.912  0.4534 -0.3873  0.7575
    7MOL   C243 4215   2.664   3.253   3.981 -0.0850 -0.1498 -0.4008
    7MOL   H244 4216   2.030   2.472   4.052  0.1422  0.2239 -0.4292
    7MOL   H245 4217   1.882   2.517   4.122  0.8631 -0.5582 -0.5915
    7MOL   H246 4218   2.060   2.740   4.034 -1.8673  0.6761  0.3964
    7MOL   H247 4219   2.067   2.621   4.315 -0.2152 -0.2402 -0.3402
    7MOL   H248 4220   2.191   2.576   4.218 -0.0399 -0.9413  3.7278
    7MOL   H249 4221   2.259   2.754   4.369  0.6537 -1.9943 -1.1504
    7MOL   H250 4222   2.149   2.862   4.296 -0.7173  0.8133  0.3557
    7MOL   H251 4223   2.237   2.899   4.101  1.1767  0.9977 -0.1986
    7MOL   H252 4224   2.319   2.743   4.087  0.1608  0.0622  0.2883
    7MOL   H253 4225   2.484   2.821   4.267  2.5130  0.1550 -1.3181
    7MOL   H254 4226   2.418   2.980   4.258 -0.1283  0.2095  0.2633
    7MOL   H255 4227   2.526   2.841   4.004 -0.9535 -0.3204 -1.2697
    7MOL   H256 4228   2.466   3.000   4.017  2.6369 -0.5166 -3.1128
    7MOL   H257 4229   2.668   3.049   4.184 -0.4030 -0.1308  1.4959
    7MOL   H258 4230   2.715   2.881   4.155 -2.1083 -1.4419 -1.3558
    7MOL   H259 4231   2.848   3.043   4.018 -1.8162  1.5452  2.9338
    7MOL   H260 4232   2.769   2.916   3.927  0.4364 -0.1287 -0.4291
    7MOL   H261 4233   2.604   3.077   3.866  1.8567 -0.7538 -1.7086
    7MOL   H262 4234   2.771   3.138   3.838  0.2454 -1.3179  0.2864
    7MOL   H263 4235   2.567   3.255   4.032  0.5233  2.9762  0.7241
    7MOL   H264 4236   2.663   3.336   3.911  0.8953  1.2918  1.2477
    7MOL   H265 4237   2.750   3.279   4.042 -0.3965 -0.8069  0.3318
    7MOL   C266 4238   1.900   2.759   4.171 -0.1771  0.7222 -0.2741
    7MOL   C267 4239   1.885   2.914   4.146 -0.5300 -0.5365  0.4218
    7MOL   C268 4240   1.784   2.982   4.253 -0.2478  0.3624 -0.1528
    7MOL   C269 4241   1.838   2.999   4.396 -0.6552 -0.4190 -0.1501
    7MOL   C270 4242   1.732   3.075   4.475  0.0304  0.3194 -0.0706
    7MOL   C271 4243   1.774   3.097   4.618 -0.7696  0.3102 -0.1257
    7MOL   C272 4244   1.670   3.183   4.696  0.4159 -0.3137 -0.2030
    7MOL   C273 4245   1.712   3.171   4.847  0.3162 -0.4906  1.0344
    7MOL   C274 4246   1.621   3.244   4.946 -0.8136  0.2504 -0.7236
    7MOL   C275 4247   1.640   3.397   4.957  0.6559  0.1571  0.6691
    7MOL   C276 4248   1.770   3.445   5.014  0.3856 -0.6248 -0.3055
    7MOL   H277 4249   1.905   2.744   4.279  0.6152 -0.6209 -0.4801
    7MOL   H278 4250   1.806   2.715   4.139  0.0661 -0.1932  0.2409
    7MOL   H279 4251   1.981   2.964   4.162  0.5624 -2.4324  0.0489
    7MOL   H280 4252   1.749   3.076   4.211  0.4308  0.5997 -0.2082
    7MOL   H281 4253   1.699   2.915   4.254 -1.5364  1.9727  0.8596
    7MOL   H282 4254   1.935   3.047   4.389 -0.9411  0.2789  0.5892
    7MOL   H283 4255   1.857   2.900   4.437  1.3002 -1.9832 -4.4929
    7MOL   H284 4256   1.638   3.020   4.474 -0.1476  0.6355 -1.3686
    7MOL   H285 4257   1.717   3.168   4.421 -0.4726  1.6958  2.3503
    7MOL   H286 4258   1.872   3.143   4.630 -0.2946 -0.8461  0.5294
    7MOL   H287 4259   1.771   3.002   4.673  0.5254  0.4109  0.1275
    7MOL   H288 4260   1.674   3.288   4.668 -0.0288  0.0473  1.0414
    7MOL   H289 4261   1.568   3.148   4.687  0.5150 -0.1497 -2.2201
    7MOL   H290 4262   1.815   3.202   4.865 -0.2742  0.7147  2.4756
    7MOL   H291 4263   1.707   3.069   4.885  0.6866 -0.7473  0.4049
    7MOL   H292 4264   1.517   3.221   4.924 -1.2931  1.6911 -0.0357
    7MOL   H293 4265   1.638   3.200   5.044  2.7956 -1.4518 -1.9984
    7MOL   H294 4266   1.570   3.439   5.030  2.1806 -0.1378  2.3304
    7MOL   H295 4267   1.616   3.457   4.869  0.2302  0.3827  0.9367
    7MOL   H296 4268   1.765   3.542   5.063 -0.0146 -0.0370 -1.4802
    7MOL   H297 4269   1.848   3.448   4.938  0.7463  0.9406  0.1083
    7MOL   H298 4270   1.803   3.374   5.089  1.1214  0.8706  0.8085
    7MOL   C299 4271   1.836   2.949   4.005  1.5417  0.0529 -0.3965
    7MOL   C300 4272   1.879   3.087   3.946  0.5340  0.4007  0.4657
    7MOL   C301 4273   1.799   3.155   3.829  0.0623  0.2344  0.8801
    7MOL   C302 4274   1.671   3.214   3.863  0.2119  0.1828 -0.6486
    7MOL   C303 4275   1.601   3.273   3.741  1.1100  0.3493 -0.4006
    7MOL   C304 4276   1.451   3.307   3.784 -0.0628 -0.9482 -0.4124
    7MOL   C305 4277   1.356   3.354   3.676 -0.1963  0.7230  0.0082
    7MOL   C306 4278   1.203   3.321   3.692  0.0062  0.3366 -0.2580
    7MOL   C307 4279   1.122   3.362   3.568  0.1170 -0.0874  0.4443
    7MOL   C308 4280   0.985   3.292   3.565  0.5254  0.2933  1.0090
    7MOL   C309 4281   0.990   3.147   3.510 -0.0639 -0.3782 -0.4736
    7MOL   H310 4282   1.727   2.951   4.001  1.5481 -0.2104 -0.6911
    7MOL   H311 4283   1.853   2.868   3.934 -1.4150 -0.3851 -0.6419
    7MOL   H312 4284   1.862   3.149   4.034 -0.7014 -0.7729  1.0738
    7MOL   H313 4285   1.858   3.219   3.763 -0.4403 -0.0226  0.1879
    7MOL   H314 4286   1.772   3.078   3.757  0.2524  0.3034  0.7338
    7MOL   H315 4287   1.615   3.142   3.923  1.0027  2.2116  2.6351
    7MOL   H316 4288   1.677   3.302   3.927 -1.6980  1.1961 -1.8130
    7MOL   H317 4289   1.659   3.363   3.724  2.0578 -0.0295  0.6985
    7MOL   H318 4290   1.612   3.203   3.659  0.4804  1.4880 -1.4695
    7MOL   H319 4291   1.448   3.378   3.866 -1.0456 -1.1502 -0.2647
    7MOL   H320 4292   1.403   3.216   3.822 -0.8554 -0.5882 -0.5364
    7MOL   H321 4293   1.368   3.461   3.656  0.0161  0.5634 -0.7185
    7MOL   H322 4294   1.384   3.304   3.583  0.4969 -0.7656  1.0077
    7MOL   H323 4295   1.154   3.358   3.782  0.1084 -1.8857  0.7478
    7MOL   H324 4296   1.188   3.213   3.695 -0.0046  0.3540  0.2475
    7MOL   H325 4297   1.177   3.351   3.475 -0.3100 -1.8211  0.3672
    7MOL   H326 4298   1.108   3.467   3.593 -2.2947  0.1829 -1.7778
    7MOL   H327 4299   0.924   3.359   3.505 -0.2206 -1.0818  0.1945
    7MOL   H328 4300   0.944   3.287   3.666  0.6512  0.6327  1.0779
    7MOL   H329 4301   1.030   3.079   3.585 -0.2348  0.9807  0.8929
    7MOL   H330 4302   0.893   3.100   3.495 -0.5018  0.8223 -1.4701
    7MOL   H331 4303   1.043   3.136   3.416  0.9052  0.9660 -0.0938
    7MOL   C332 4304   2.030   3.094   3.916  0.1068 -0.8347  0.3132
    7MOL   C333 4305   2.098   3.239   3.914 -0.0238  0.3462 -0.1326
    7MOL   C334 4306   2.235   3.234   3.848  0.4802 -0.4530  0.5678
    7MOL   C335 4307   2.244   3.302   3.708  0.8978  0.0760 -0.7477
    7MOL   C336 4308   2.382   3.286   3.644 -0.4767  0.4438 -0.4730
    7MOL   C337 4309   2.416   3.385   3.536  0.3742 -0.3380 -0.3588
    7MOL   C338 4310   2.545   3.348   3.463 -0.1042  0.3237 -0.0087
    7MOL   C339 4311   2.580   3.451   3.354 -0.2192 -0.5666  0.5918
    7MOL   C340 4312   2.718   3.428   3.284 -1.2284 -0.1584  0.3429
    7MOL   C341 4313   2.749   3.539   3.181  0.4241 -0.0177  0.1004
    7MOL   C342 4314   2.878   3.513   3.107  0.8664 -0.1544  0.5255
    7MOL   H343 4315   2.088   3.033   3.985 -0.9485 -2.3366 -0.1175
    7MOL   H344 4316   2.049   3.043   3.822  2.6742 -0.6122  0.6706
    7MOL   H345 4317   2.027   3.293   3.853 -3.0215  0.5194  3.3153
    7MOL   H346 4318   2.271   3.132   3.836  1.7378 -0.1033  1.2057
    7MOL   H347 4319   2.306   3.286   3.914  0.6646 -1.8283  1.4746
    7MOL   H348 4320   2.162   3.258   3.651  1.3304 -0.4718 -0.9537
    7MOL   H349 4321   2.226   3.409   3.718  0.4261 -0.1687  1.3799
    7MOL   H350 4322   2.461   3.285   3.719 -1.2800 -3.6380  0.4146
    7MOL   H351 4323   2.375   3.185   3.603  0.3305 -0.7770  2.3097
    7MOL   H352 4324   2.431   3.483   3.581 -1.2148  0.3111 -1.1990
    7MOL   H353 4325   2.331   3.397   3.469 -0.0634  1.4511  0.5088
    7MOL   H354 4326   2.532   3.249   3.420  1.7315  0.2373 -0.3956
    7MOL   H355 4327   2.628   3.341   3.533 -1.4848  2.3641  1.9061
    7MOL   H356 4328   2.504   3.444   3.277 -1.8479  0.0099  2.1044
    7MOL   H357 4329   2.583   3.552   3.396  2.0831  0.0642 -0.9972
    7MOL   H358 4330   2.723   3.333   3.231  0.4163 -0.7007  1.4287
    7MOL   H359 4331   2.804   3.425   3.351  0.6300  1.3165 -1.8791
    7MOL   H360 4332   2.759   3.639   3.223 -0.5646 -0.0216  0.3652
    7MOL   H361 4333   2.668   3.566   3.114  1.4211 -0.7589 -1.4122
    7MOL   H362 4334   2.956   3.474   3.173  0.4592 -0.1484  1.0120
    7MOL   H363 4335   2.865   3.445   3.022 -0.7718  0.8008 -0.0056
    7MOL   H364 4336   2.906   3.610   3.067  0.8506 -0.2367  0.3109
    7MOL   C365 4337   2.088   3.316   4.045  0.1985  0.4350  0.0858
    7MOL   C366 4338   2.073   3.467   4.031 -0.2527 -0.7745 -0.4749
    7MOL   C367 4339   1.941   3.515   3.960  0.3570 -0.0103  0.2574
    7MOL   C368 4340   1.950   3.657   3.898  0.2577  0.3587  0.1657
    7MOL   C369 4341   1.815   3.714   3.852 -0.1384 -0.2160  0.0124
    7MOL   C370 4342   1.714   3.752   3.962  0.3093 -0.4820 -0.4269
    7MOL   C371 4343   1.567   3.761   3.908 -0.0071 -0.3289 -0.2160
    7MOL   C372 4344   1.549   3.892   3.820 -0.2429  0.3528 -0.1340
    7MOL   C373 4345   1.406   3.929   3.790 -0.4218 -0.0042  0.1270
    7MOL   C374 4346   1.390   4.074   3.739 -0.9033  0.4518  0.2054
    7MOL   C375 4347   1.241   4.101   3.713 -0.6179  0.5650  0.1138
    7MOL   H376 4348   2.011   3.277   4.113  0.3355 -1.2437 -0.6907
    7MOL   H377 4349   2.172   3.299   4.112 -0.3542  2.1152  1.2463
    7MOL   H378 4350   2.161   3.492   3.971 -0.1781 -1.7498 -0.7741
    7MOL   H379 4351   1.875   3.511   4.048  0.0827  1.8716  0.1537
    7MOL   H380 4352   1.906   3.455   3.876  3.8996  0.6245 -1.7277
    7MOL   H381 4353   2.016   3.650   3.811  0.6098  1.5150  0.3345
    7MOL   H382 4354   1.994   3.729   3.966 -1.4390  0.1599  1.5121
    7MOL   H383 4355   1.777   3.643   3.779 -0.0597 -0.8700  0.5919
    7MOL   H384 4356   1.840   3.806   3.800  1.5456 -1.4218 -1.3983
    7MOL   H385 4357   1.733   3.848   4.010  0.9401 -0.2633 -1.1094
    7MOL   H386 4358   1.725   3.680   4.043  0.9836 -0.6767 -0.6909
    7MOL   H387 4359   1.528   3.665   3.874 -3.1279  0.4939  0.9221
    7MOL   H388 4360   1.506   3.766   3.998  0.9657  0.0983  0.4303
    7MOL   H389 4361   1.612   3.903   3.731 -3.0600  0.3924 -2.2174
    7MOL   H390 4362   1.598   3.975   3.871  2.7138  0.1445 -2.4863
    7MOL   H391 4363   1.360   3.862   3.718 -1.4455 -1.1280  1.7959
    7MOL   H392 4364   1.350   3.919   3.883 -1.1051 -1.1241 -0.3956
    7MOL   H393 4365   1.423   4.150   3.810 -2.0269  0.6464  0.5286
    7MOL   H394 4366   1.438   4.087   3.642 -0.6902 -1.6134  0.0216
    7MOL   H395 4367   1.180   4.093   3.804  0.7248 -0.9642  0.8975
    7MOL   H396 4368   1.198   4.036   3.637  1.6054 -0.6549 -0.1381
    7MOL   H397 4369   1.236   4.203   3.675 -0.5379  0.2885 -0.6508
    7MOL   C398 4370   2.091   3.547   4.162 -0.1929 -0.3585  0.3497
    7MOL   C399 4371   2.219   3.632   4.160  0.2538 -0.6009  0.0024
    7MOL   C400 4372   2.338   3.538   4.184 -0.3572  0.0464 -0.4321
    7MOL   C401 4373   2.474   3.614   4.210 -0.3527 -0.0543  0.1981
    7MOL   C402 4374   2.584   3.501   4.222 -0.2843  0.2264  0.2252
    7MOL   C403 4375   2.705   3.551   4.299  0.1721 -0.1307  0.4881
    7MOL   C404 4376   2.826   3.457   4.297  0.9810  0.1786  0.0333
    7MOL   C405 4377   2.948   3.527   4.351  0.0044 -0.0863  0.0873
    7MOL   C406 4378   3.072   3.437   4.359 -0.4231  0.4589 -0.0047
    7MOL   C407 4379   3.058   3.304   4.433 -0.0193 -0.1062 -0.1160
    7MOL   C408 4380   3.182   3.225   4.422  0.1247  0.6393 -0.7081
    7MOL   H409 4381   2.089   3.485   4.252 -1.2348  0.4117  0.8830
    7MOL   H410 4382   2.001   3.607   4.177 -0.4225 -0.6133 -0.0122
    7MOL   H411 4383   2.224   3.676   4.061 -1.3318 -2.5226 -0.9647
    7MOL   H412 4384   2.358   3.466   4.104 -0.0984  0.7499 -1.0084
    7MOL   H413 4385   2.311   3.480   4.272 -1.0616  1.4992  0.3256
    7MOL   H414 4386   2.506   3.683   4.133  2.4460  0.0813  1.4221
    7MOL   H415 4387   2.461   3.678   4.297 -2.5794  0.2273 -0.3114
    7MOL   H416 4388   2.536   3.409   4.255 -1.3794  0.6780 -0.0743
    7MOL   H417 4389   2.612   3.473   4.120  1.2140 -1.0483  0.9590
    7MOL   H418 4390   2.663   3.564   4.399 -2.9262 -0.9399 -0.6277
    7MOL   H419 4391   2.730   3.648   4.255 -0.8604  1.0075  2.3262
    7MOL   H420 4392   2.812   3.364   4.354 -1.9042  0.8428  0.4898
    7MOL   H421 4393   2.858   3.427   4.197 -0.0193 -1.2699  0.1231
    7MOL   H422 4394   2.935   3.567   4.451 -1.2124 -0.3735  0.0552
    7MOL   H423 4395   2.966   3.608   4.280 -0.5247 -0.8185 -0.8917
    7MOL   H424 4396   3.097   3.414   4.256 -1.3246 -3.3033  0.5288
    7MOL   H425 4397   3.153   3.498   4.398  2.0017 -1.3579 -2.0259
    7MOL   H426 4398   2.979   3.239   4.394 -2.6110  0.8646  3.2671
    7MOL   H427 4399   3.037   3.315   4.539  0.2720  0.4683 -0.1214
    7MOL   H428 4400   3.195   3.190   4.320  0.5790  2.0813 -1.1618
    7MOL   H429 4401   3.183   3.136   4.486  0.1115  2.3415  1.7336
    7MOL   H430 4402   3.271   3.284   4.446  0.4144  0.0214 -0.2590
    7MOL   C431 4403   2.212   3.754   4.265  0.3123  0.6303  0.6089
    7MOL   C432 4404   2.288   3.884   4.213 -0.4688  0.1883  0.4728
    7MOL   C433 4405   2.357   3.967   4.328 -0.6128  0.0406 -0.2105
    7MOL   C434 4406   2.263   4.007   4.443 -0.1501 -0.1044  0.3001
    7MOL   C435 4407   2.339   4.091   4.552 -0.5471 -0.3127  0.6371
    7MOL   C436 4408   2.271   4.097   4.697  0.2470  0.4957  0.1078
    7MOL   C437 4409   2.143   4.184   4.708  0.7364 -0.3587  0.5215
    7MOL   C438 4410   2.081   4.220   4.843 -0.5519  0.2297  0.5387
    7MOL   C439 4411   1.962   4.321   4.833 -0.6131  0.5569 -0.8810
    7MOL   C440 4412   1.842   4.264   4.761  0.3131 -0.1095  0.4889
    7MOL   C441 4413   1.708   4.330   4.783 -0.2034  0.0559  1.3958
    7MOL   H442 4414   2.250   3.714   4.359 -0.0625 -0.5262  0.2691
    7MOL   H443 4415   2.111   3.783   4.295  0.5597  1.0529  1.0375
    7MOL   H444 4416   2.371   3.843   4.157  0.5605  0.4409  1.7798
    7MOL   H445 4417   2.435   3.909   4.378 -0.5731 -1.2241 -1.7122
    7MOL   H446 4418   2.406   4.054   4.284 -1.0477  0.9681  1.1205
    7MOL   H447 4419   2.232   3.917   4.495  0.7973 -0.5794  0.0509
    7MOL   H448 4420   2.166   4.050   4.416  0.2861 -0.4829 -1.9786
    7MOL   H449 4421   2.372   4.190   4.522  0.6540 -0.4826  1.3928
    7MOL   H450 4422   2.433   4.045   4.581  0.6287  1.9100  0.4491
    7MOL   H451 4423   2.344   4.118   4.776  2.0117 -4.5369 -0.0152
    7MOL   H452 4424   2.248   3.993   4.718 -1.0040  0.7777  0.1335
    7MOL   H453 4425   2.062   4.139   4.650  0.3614  1.3482 -0.2976
    7MOL   H454 4426   2.153   4.281   4.660 -1.0644 -0.7515 -0.7190
    7MOL   H455 4427   2.047   4.131   4.896 -0.8299 -0.7689 -1.2636
    7MOL   H456 4428   2.148   4.258   4.920 -0.2300 -0.0241  0.3880
    7MOL   H457 4429   1.992   4.418   4.796 -0.3602 -0.5673 -3.7349
    7MOL   H458 4430   1.930   4.340   4.935  0.4044  1.3706 -0.7119
    7MOL   H459 4431   1.827   4.162   4.796 -1.4211 -0.2075 -0.4773
    7MOL   H460 4432   1.858   4.251   4.654  0.4097  0.8369  0.3870
    7MOL   H461 4433   1.669   4.294   4.878 -2.1316 -0.1611  0.5345
    7MOL   H462 4434   1.716   4.438   4.773  1.6137 -0.1437  0.4163
    7MOL   H463 4435   1.640   4.309   4.701  1.0116  0.5133  0.2614
    7MOL   C464 4436   2.196   3.981   4.127 -0.4983  0.2192 -0.3282
    7MOL   C465 4437   2.211   3.975   3.970  0.2856  0.1425 -0.1152
    7MOL   C466 4438   2.089   4.041   3.906  0.0834  0.2124  0.0177
    7MOL   C467 4439   2.065   3.981   3.771 -0.4273  0.1725 -0.2144
    7MOL   C468 4440   1.936   4.042   3.700 -0.1694 -0.0592 -0.2378
    7MOL   C469 4441   1.921   4.003   3.549 -0.1930  0.4737 -0.3715
    7MOL   C470 4442   1.793   4.069   3.473  0.1549  0.1872 -0.2698
    7MOL   C471 4443   1.793   4.020   3.330  0.2751  0.3397  0.1442
    7MOL   C472 4444   1.700   4.095   3.236 -0.2021 -0.2450  0.0982
    7MOL   C473 4445   1.717   4.071   3.087  0.2058 -0.6385  0.1754
    7MOL   C474 4446   1.717   3.918   3.042  0.3193  0.2505 -0.1411
    7MOL   H475 4447   2.197   4.086   4.156  0.6926 -0.4586  2.1768
    7MOL   H476 4448   2.093   3.960   4.155 -0.1535 -0.0629  0.7613
    7MOL   H477 4449   2.200   3.869   3.948  0.0834  0.2481 -0.5161
    7MOL   H478 4450   2.108   4.149   3.909  2.3084 -0.1622  0.1648
    7MOL   H479 4451   2.002   4.036   3.970 -1.7029  1.2628 -2.2500
    7MOL   H480 4452   2.152   3.998   3.708 -0.9631 -0.0594 -1.0381
    7MOL   H481 4453   2.072   3.873   3.785 -0.2193  0.3768  1.2664
    7MOL   H482 4454   1.939   4.150   3.706  2.5572 -0.0849 -0.5618
    7MOL   H483 4455   1.841   4.030   3.753  1.2976 -0.5136  2.4143
    7MOL   H484 4456   2.005   4.054   3.502  1.0231 -0.1954  1.0094
    7MOL   H485 4457   1.930   3.894   3.543 -0.4835  0.3109  1.6496
    7MOL   H486 4458   1.694   4.051   3.514  0.0971 -0.3275 -0.6298
    7MOL   H487 4459   1.809   4.177   3.476  1.8212  0.0939 -3.5486
    7MOL   H488 4460   1.894   4.039   3.293 -0.0417  2.3928  0.2741
    7MOL   H489 4461   1.786   3.911   3.325  0.9536  0.3688 -2.0107
    7MOL   H490 4462   1.597   4.085   3.272 -0.9869 -3.3379 -2.7323
    7MOL   H491 4463   1.712   4.202   3.247  1.9163 -0.5470  0.8022
    7MOL   H492 4464   1.631   4.118   3.038 -2.0175 -2.2669  2.4112
    7MOL   H493 4465   1.808   4.116   3.048 -1.1878  1.0441 -1.2745
    7MOL   H494 4466   1.633   3.859   3.080  1.1707 -0.8138  0.1354
    7MOL   H495 4467   1.805   3.868   3.080  2.2255  3.7779  0.2539
    7MOL   H496 4468   1.721   3.908   2.933  0.9011  1.1004 -0.1950
    7MOL   C497 4469   2.339   4.046   3.917  0.2832  0.0201 -0.2298
    7MOL   C498 4470   2.478   3.985   3.945  0.6145 -0.1566 -0.4918
    7MOL   C499 4471   2.589   4.068   3.876  0.6338 -0.1666 -0.0668
    7MOL   C500 4472   2.608   4.202   3.940  0.3660 -0.9148 -0.2094
    7MOL   C501 4473   2.664   4.297   3.833  0.1194  0.3375  0.2973
    7MOL   C502 4474   2.682   4.447   3.882  1.4300 -0.0033 -0.0368
    7MOL   C503 4475   2.759   4.543   3.797 -0.3055  0.2317 -0.0081
    7MOL   C504 4476   2.767   4.682   3.862 -0.5467 -0.1713  0.0924
    7MOL   C505 4477   2.626   4.732   3.905  0.1196  0.3248 -0.1396
    7MOL   C506 4478   2.626   4.879   3.950 -0.4659 -0.3536 -0.6340
    7MOL   C507 4479   2.699   4.889   4.084 -0.4622  0.3144  0.0382
    7MOL   H508 4480   2.323   4.052   3.809  0.8566  0.2978 -0.2991
    7MOL   H509 4481   2.330   4.143   3.965 -1.3575 -0.1544 -0.1638
    7MOL   H510 4482   2.497   3.993   4.052 -0.6355 -0.2531 -0.2548
    7MOL   H511 4483   2.581   4.085   3.769  3.4294 -1.4071 -0.4953
    7MOL   H512 4484   2.682   4.014   3.889 -0.4768 -2.0224  0.4674
    7MOL   H513 4485   2.663   4.202   4.034 -0.0809 -2.5503  0.0724
    7MOL   H514 4486   2.512   4.251   3.959  1.5033  1.2714  0.0445
    7MOL   H515 4487   2.763   4.256   3.811  0.3071  0.1823  1.3594
    7MOL   H516 4488   2.613   4.293   3.738  0.0731  0.4946  0.3159
    7MOL   H517 4489   2.577   4.477   3.886  1.0921 -1.3204  1.5504
    7MOL   H518 4490   2.725   4.451   3.982 -0.7416  2.7276  0.8519
    7MOL   H519 4491   2.859   4.510   3.768 -0.8856 -0.2636 -1.4890
    7MOL   H520 4492   2.705   4.557   3.704  1.3047  0.4180 -0.9260
    7MOL   H521 4493   2.800   4.746   3.780 -0.7011  0.1979  0.3205
    7MOL   H522 4494   2.836   4.689   3.946  1.5826 -1.9016 -1.4505
    7MOL   H523 4495   2.580   4.664   3.976 -1.1742  0.7299 -0.5731
    7MOL   H524 4496   2.566   4.724   3.814 -2.4656  0.0389  1.5310
    7MOL   H525 4497   2.522   4.912   3.963 -0.9804 -2.6390  1.2468
    7MOL   H526 4498   2.672   4.939   3.871 -1.0593 -0.6999 -1.2509
    7MOL   H527 4499   2.671   4.985   4.127 -0.3582 -0.2387  1.3611
    7MOL   H528 4500   2.808   4.893   4.078 -0.5649 -0.3956 -3.7289
    7MOL   H529 4501   2.676   4.806   4.152  2.3563  0.1253  0.8148
    7MOL   C530 4502   2.495   3.837   3.915 -0.3623 -0.0788 -0.0395
    7MOL   C531 4503   2.513   3.797   3.763  0.1134 -0.6443  0.1593
    7MOL   C532 4504   2.377   3.774   3.694  0.3297  0.9678 -0.2302
    7MOL   C533 4505   2.364   3.809   3.545  0.7856 -0.3836  0.4040
    7MOL   C534 4506   2.236   3.759   3.486  0.0622 -0.0307 -0.5712
    7MOL   C535 4507   2.238   3.780   3.335 -0.3301  0.3227  0.5494
    7MOL   C536 4508   2.309   3.671   3.255 -0.0811  0.0614 -0.0457
    7MOL   C537 4509   2.261   3.658   3.113 -0.5383 -0.0793 -0.3882
    7MOL   C538 4510   2.371   3.609   3.014  0.1900  0.3544 -0.0993
    7MOL   C539 4511   2.352   3.659   2.866  0.2688 -0.8123 -0.3436
    7MOL   C540 4512   2.479   3.652   2.782  0.1110 -0.2128 -0.3074
    7MOL   H541 4513   2.588   3.806   3.962  0.6689  0.2534 -1.8368
    7MOL   H542 4514   2.416   3.784   3.969  0.3317 -2.0053 -0.8593
    7MOL   H543 4515   2.552   3.884   3.711 -0.2707 -0.0477  0.8557
    7MOL   H544 4516   2.297   3.829   3.744  1.4591  2.2663  0.1559
    7MOL   H545 4517   2.349   3.671   3.718 -1.0756  1.6079  1.0267
    7MOL   H546 4518   2.447   3.765   3.489 -0.2979  0.2507 -1.7404
    7MOL   H547 4519   2.379   3.917   3.535  1.0652  0.0294  4.4995
    7MOL   H548 4520   2.161   3.816   3.541 -0.7162 -1.9689  0.4107
    7MOL   H549 4521   2.220   3.654   3.511 -0.2985  0.2801  0.5186
    7MOL   H550 4522   2.288   3.873   3.309  1.2178 -0.8359 -0.7570
    7MOL   H551 4523   2.136   3.783   3.297 -0.5351 -1.8049  0.8802
    7MOL   H552 4524   2.325   3.576   3.305  0.5217 -0.6527 -1.5673
    7MOL   H553 4525   2.412   3.704   3.244  0.9100 -3.2504 -1.1501
    7MOL   H554 4526   2.234   3.760   3.085  1.0364  0.8576  1.4032
    7MOL   H555 4527   2.180   3.586   3.108 -0.7236  0.0723  0.4764
    7MOL   H556 4528   2.367   3.500   3.015  0.4444  0.3467  0.6008
    7MOL   H557 4529   2.475   3.623   3.045  1.0751 -0.9404 -2.3545
    7MOL   H558 4530   2.312   3.760   2.872  1.2266 -0.4523  0.1564
    7MOL   H559 4531   2.282   3.594   2.813  0.1793 -1.5498  0.6576
    7MOL   H560 4532   2.465   3.694   2.682 -3.4934  0.6792  0.4760
    7MOL   H561 4533   2.563   3.707   2.824 -0.1155 -0.0325 -0.0911
    7MOL   H562 4534   2.517   3.551   2.768  1.3158  0.3778 -1.3809
    7MOL   C563 4535   2.606   3.670   3.748  1.0311 -0.1965 -0.1052
    7MOL   C564 4536   2.759   3.695   3.759  1.4741 -0.7771 -0.5575
    7MOL   C565 4537   2.812   3.815   3.686 -0.1407  0.2674  0.3964
    7MOL   C566 4538   2.785   3.819   3.539 -0.3312  0.4106  0.2365
    7MOL   C567 4539   2.816   3.954   3.475  0.0795 -0.1601  0.1221
    7MOL   C568 4540   2.739   4.072   3.528  0.2509 -0.7690  0.3041
    7MOL   C569 4541   2.778   4.181   3.432  0.1446  0.2455 -0.0822
    7MOL   C570 4542   2.723   4.324   3.464  0.9879  0.2068  0.0543
    7MOL   C571 4543   2.747   4.408   3.331  0.1238 -0.3227 -0.2039
    7MOL   C572 4544   2.705   4.560   3.340  0.2573  0.1966  0.5033
    7MOL   C573 4545   2.732   4.628   3.208  0.0365 -0.3451 -0.2915
    7MOL   H574 4546   2.581   3.616   3.657  1.4917 -0.5037 -0.0453
    7MOL   H575 4547   2.575   3.608   3.832  0.7591 -0.7470 -0.6162
    7MOL   H576 4548   2.777   3.699   3.866 -0.3028  2.6948 -0.3239
    7MOL   H577 4549   2.919   3.828   3.703  0.0529 -0.6153 -0.1137
    7MOL   H578 4550   2.767   3.896   3.744  0.2558  1.4866 -0.9799
    7MOL   H579 4551   2.680   3.798   3.519 -0.0679  1.3535 -2.3378
    7MOL   H580 4552   2.846   3.743   3.489 -0.8711 -1.3854  2.2778
    7MOL   H581 4553   2.797   3.920   3.373  0.0311  1.0276 -0.2711
    7MOL   H582 4554   2.921   3.981   3.468  0.6807 -2.0721  1.2481
    7MOL   H583 4555   2.631   4.061   3.525  0.4159 -2.3927  0.0652
    7MOL   H584 4556   2.768   4.114   3.625 -2.1054 -1.2809  1.2592
    7MOL   H585 4557   2.885   4.184   3.415  0.1569 -1.9677 -0.4429
    7MOL   H586 4558   2.744   4.145   3.335  1.2064  2.5363 -1.3472
    7MOL   H587 4559   2.771   4.375   3.547 -0.2768  3.1970 -0.9732
    7MOL   H588 4560   2.616   4.335   3.486  0.5521 -2.6564 -0.3890
    7MOL   H589 4561   2.703   4.353   3.248  1.4236 -0.5987 -0.7245
    7MOL   H590 4562   2.854   4.404   3.310  0.0253 -0.9099 -0.6189
    7MOL   H591 4563   2.772   4.601   3.415 -1.7149  2.0357  1.3043
    7MOL   H592 4564   2.600   4.574   3.366  1.0528  0.7608  3.5135
    7MOL   H593 4565   2.717   4.734   3.224 -1.2611 -0.6899  0.7901
    7MOL   H594 4566   2.834   4.614   3.172  0.0254 -1.8704  0.2178
    7MOL   H595 4567   2.672   4.585   3.128 -1.6282  0.4030  0.5435
    7MOL   C596 4568   2.833   3.562   3.733  0.1627 -0.4731  0.1436
    7MOL   C597 4569   2.978   3.564   3.774  0.0837  0.5829  0.2849
    7MOL   C598 4570   3.058   3.487   3.665  0.1398 -0.2087  1.0215
    7MOL   C599 4571   3.013   3.337   3.655 -0.2900  0.0595  0.4003
    7MOL   C600 4572   3.125   3.241   3.610 -0.6008  0.1101  0.0731
    7MOL   C601 4573   3.131   3.100   3.682 -0.2746 -0.3950  0.2504
    7MOL   C602 4574   3.206   3.103   3.818  0.1731  0.0064 -0.0627
    7MOL   C603 4575   3.264   2.964   3.862  0.2696 -0.4169 -0.7029
    7MOL   C604 4576   3.329   2.980   4.003  0.1618 -0.6300 -0.2031
    7MOL   C605 4577   3.399   2.857   4.059 -0.3777 -0.7566 -0.4556
    7MOL   C606 4578   3.436   2.855   4.213 -0.4000 -0.2971  0.5412
    7MOL   H607 4579   2.788   3.475   3.779 -0.4393  0.1812  0.8140
    7MOL   H608 4580   2.824   3.532   3.628 -2.2171  0.0227  0.1648
    7MOL   H609 4581   3.032   3.658   3.768  0.3353  0.4032 -0.3111
    7MOL   H610 4582   3.164   3.490   3.691 -0.0119 -0.6875  1.6939
    7MOL   H611 4583   3.051   3.540   3.569  1.3989 -0.7034  0.6475
    7MOL   H612 4584   2.926   3.327   3.589  0.2220 -1.0761 -0.1049
    7MOL   H613 4585   2.976   3.304   3.752  1.1419  1.0223  1.2845
    7MOL   H614 4586   3.227   3.279   3.617 -0.4824 -0.0247 -0.9067
    7MOL   H615 4587   3.111   3.222   3.504 -0.8914 -1.5473  0.3813
    7MOL   H616 4588   3.031   3.060   3.698 -0.5313  0.6836  1.4152
    7MOL   H617 4589   3.186   3.032   3.617  0.1059  0.9224 -0.8455
    7MOL   H618 4590   3.142   3.145   3.896 -0.6946 -1.7291  0.2090
    7MOL   H619 4591   3.290   3.172   3.817  1.8447 -1.8776  1.7941
    7MOL   H620 4592   3.331   2.924   3.787 -0.0851  0.0583 -1.2845
    7MOL   H621 4593   3.194   2.881   3.863  0.4561 -0.5666  0.4618
    7MOL   H622 4594   3.401   3.060   3.988 -2.2656  1.5334 -0.7061
    7MOL   H623 4595   3.262   3.016   4.082  0.6424 -1.3330  0.5322
    7MOL   H624 4596   3.497   2.856   4.011  0.4551  1.5504  1.1160
    7MOL   H625 4597   3.345   2.764   4.042  0.0420 -0.7491 -1.9550
    7MOL   H626 4598   3.508   2.934   4.234 -2.6519  1.1328  3.1057
    7MOL   H627 4599   3.343   2.879   4.264 -1.6543  0.2823 -1.9697
    7MOL   H628 4600   3.480   2.760   4.245  2.3120  0.7195 -0.0563
    7MOL   C629 4601   2.995   3.515   3.917  0.0768  0.1625 -1.1156
    7MOL   C630 4602   3.140   3.471   3.958  0.0669  0.7803  0.2605
    7MOL   C631 4603   3.243   3.589   3.971 -0.1390  0.5406  1.0057
    7MOL   C632 4604   3.202   3.705   4.055  1.1253  0.8402 -0.8042
    7MOL   C633 4605   3.304   3.814   4.105  0.2024 -0.3310  0.1012
    7MOL   C634 4606   3.238   3.946   4.156 -0.6293  0.4890  0.8801
    7MOL   C635 4607   3.338   4.061   4.175 -0.2395  0.1745 -0.0363
    7MOL   C636 4608   3.274   4.206   4.205  0.4943 -0.1529 -0.0224
    7MOL   C637 4609   3.211   4.273   4.085 -0.3958 -0.2347 -0.4021
    7MOL   C638 4610   3.129   4.398   4.133 -0.7858 -0.1234  0.7172
    7MOL   C639 4611   3.039   4.447   4.019 -0.8354  0.3654  0.1701
    7MOL   H640 4612   2.952   3.579   3.994 -0.1030 -0.8624 -0.3507
    7MOL   H641 4613   2.937   3.425   3.939 -0.3623  0.9766  1.1770
    7MOL   H642 4614   3.141   3.413   4.050 -1.7911  0.5856  0.1917
    7MOL   H643 4615   3.338   3.550   4.006  0.0180 -1.2154 -1.2476
    7MOL   H644 4616   3.251   3.630   3.870  0.5548  0.2407  0.9364
    7MOL   H645 4617   3.162   3.664   4.148  1.3224  1.3219 -0.5036
    7MOL   H646 4618   3.120   3.759   4.008  0.0880 -0.4159 -0.4574
    7MOL   H647 4619   3.359   3.846   4.016 -2.2441  1.4884 -0.8091
    7MOL   H648 4620   3.367   3.771   4.182  2.1334  0.1203 -1.1672
    7MOL   H649 4621   3.190   3.928   4.253 -2.5104 -1.5676 -0.3862
    7MOL   H650 4622   3.150   3.976   4.098  0.9646  3.5499 -0.0413
    7MOL   H651 4623   3.410   4.061   4.094 -0.6858  0.1583 -0.4362
    7MOL   H652 4624   3.393   4.032   4.264 -0.6404 -1.0232 -0.1621
    7MOL   H653 4625   3.350   4.271   4.248  0.7483 -1.5129  1.6398
    7MOL   H654 4626   3.197   4.201   4.281  0.9499  1.9705  0.6188
    7MOL   H655 4627   3.148   4.199   4.036  0.0852  0.9075 -2.8095
    7MOL   H656 4628   3.290   4.308   4.019  0.1857  0.4846  0.6529
    7MOL   H657 4629   3.213   4.463   4.156 -0.4007 -0.7223  1.0074
    7MOL   H658 4630   3.069   4.379   4.222  0.2035 -0.9216  1.2227
    7MOL   H659 4631   2.968   4.371   3.987 -1.5197  0.7608  0.7462
    7MOL   H660 4632   3.096   4.487   3.934  2.0259  0.8132  2.2213
    7MOL   H661 4633   2.969   4.520   4.060 -2.2200 -1.8774  1.8471
    7MOL   H662 4634   3.170   3.395   3.887  2.7457  1.0791  1.0113
    8MOL     C1 4635   7.317   0.531   6.330 -0.7945  0.4392  0.3809
    8MOL     C2 4636   7.438   0.471   6.257  0.4247 -0.0628 -0.1147
    8MOL     C3 4637   7.398   0.417   6.118 -0.2853 -0.2662 -0.8387
    8MOL     C4 4638   7.287   0.307   6.113  0.3992 -0.6377  0.1066
    8MOL     C5 4639   7.241   0.236   5.989 -1.2341 -0.8713 -0.3376
    8MOL     C6 4640   7.139   0.119   6.017  0.9295  0.0061  0.2076
    8MOL     C7 4641   7.185   0.005   6.114  0.3567 -0.0292  0.2964
    8MOL     C8 4642   7.084   7.601   6.138 -0.4226 -0.9496  0.3213
    8MOL     C9 4643   7.133   7.500   6.238  0.0646 -0.2272 -0.4872
    8MOL    C10 4644   7.054   7.369   6.239 -0.0838 -0.7686 -0.0459
    8MOL    C11 4645   6.901   7.384   6.274 -0.2526 -0.5593  0.1330
    8MOL    H12 4646   7.345   0.565   6.430  1.5552 -2.4220  0.7551
    8MOL    H13 4647   7.245   0.455   6.358  0.6734 -0.4130  1.9174
    8MOL    H14 4648   7.463   0.382   6.315  1.2309  1.6279  2.1538
    8MOL    H15 4649   7.486   0.381   6.065 -0.5205  0.2245 -1.5704
    8MOL    H16 4650   7.365   0.507   6.066  0.7777  1.4647  1.3768
    8MOL    H17 4651   7.203   0.362   6.157 -0.1390 -2.0917  0.9057
    8MOL    H18 4652   7.300   0.236   6.194  1.5661 -2.4792 -1.6636
    8MOL    H19 4653   7.200   0.309   5.919  0.3322  2.0424  1.6807
    8MOL    H20 4654   7.323   0.196   5.930  0.3124  0.2298  1.0485
    8MOL    H21 4655   7.120   0.073   5.920  0.3032  1.7077 -0.5007
    8MOL    H22 4656   7.041   0.162   6.037  0.1322 -1.7463  0.0990
    8MOL    H23 4657   7.270   7.650   6.078 -0.4183 -1.3684  0.5772
    8MOL    H24 4658   7.204   0.047   6.213  0.2760 -0.2390  0.4020
    8MOL    H25 4659   7.058   7.554   6.043 -1.7115  0.0864  0.1473
    8MOL    H26 4660   6.985   7.642   6.156 -2.3390 -4.0620 -2.4992
    8MOL    H27 4661   7.130   7.537   6.341 -1.0160 -2.5776  0.3727
    8MOL    H28 4662   7.236   7.467   6.225 -0.4905 -2.7591  1.2155
    8MOL    H29 4663   7.087   7.305   6.321  0.7441 -1.0737 -0.6188
    8MOL    H30 4664   7.062   7.313   6.146 -1.1813  0.3187 -0.8171
    8MOL    H31 4665   6.885   7.477   6.328  2.6281  0.9528 -1.4780
    8MOL    H32 4666   6.849   7.416   6.184  0.3000 -1.1463 -0.3948
    8MOL    H33 4667   6.861   7.299   6.330 -1.4747  1.0139  1.7115
    8MOL    H34 4668   7.258   0.608   6.281  0.3534  1.5411  0.7063
    8MOL    C35 4669   7.544   0.582   6.257  0.1594  0.0409 -0.1255
    8MOL    C36 4670   7.690   0.524   6.232 -0.0325  0.4226  0.3898
    8MOL    C37 4671   0.032   0.538   6.081  0.0961  0.4028 -0.5836
    8MOL    C38 4672   0.147   0.447   6.030 -0.4000 -0.3977  0.5226
    8MOL    C39 4673   0.148   0.439   5.877  0.4586 -0.0480 -0.1923
    8MOL    C40 4674   0.063   0.337   5.807  0.0343  0.5115  0.2165
    8MOL    C41 4675   7.623   0.367   5.767  0.4655 -0.1275 -0.2532
    8MOL    C42 4676   7.536   0.254   5.723  0.1495  0.3154  0.7654
    8MOL    C43 4677   7.407   0.302   5.658 -0.6418  0.6140 -0.3007
    8MOL    C44 4678   7.323   0.194   5.589 -0.5437 -0.4511 -0.3331
    8MOL    C45 4679   7.199   0.254   5.523 -0.2825  0.6338  0.6054
    8MOL    H46 4680   7.534   0.631   6.354 -1.3443 -0.9747  0.2431
    8MOL    H47 4681   7.522   0.664   6.188 -2.4021 -0.5041 -0.0123
    8MOL    H48 4682   7.689   0.418   6.257 -0.8256  1.0096  2.9410
    8MOL    H49 4683   7.648   0.507   6.023 -0.1410  0.5668 -0.3185
    8MOL    H50 4684   0.050   0.643   6.058  0.4857  1.1018  2.7138
    8MOL    H51 4685   0.133   0.346   6.066  0.3705 -0.5468  0.4037
    8MOL    H52 4686   0.247   0.478   6.059  0.1707 -0.7980 -0.9937
    8MOL    H53 4687   0.248   0.410   5.844 -0.7281 -2.1252 -2.0694
    8MOL    H54 4688   0.116   0.531   5.829  1.1052  0.6041  0.6034
    8MOL    H55 4689   0.067   0.251   5.874  1.0351  0.1157 -0.3356
    8MOL    H56 4690   0.112   0.308   5.713 -1.7542 -2.5313  0.1589
    8MOL    H57 4691   7.568   0.422   5.844 -0.6139 -2.3363  0.6148
    8MOL    H58 4692   7.627   0.432   5.681 -1.2750  1.1180  0.5734
    8MOL    H59 4693   7.516   0.182   5.802  1.1985 -0.7319  0.0981
    8MOL    H60 4694   7.581   0.208   5.635 -1.0631  2.0780 -0.8283
    8MOL    H61 4695   7.412   0.382   5.585 -0.7318  2.0756  1.2702
    8MOL    H62 4696   7.339   0.342   5.734 -0.8943  1.5005 -0.9914
    8MOL    H63 4697   7.386   0.178   5.501 -2.3761 -0.2336 -1.7225
    8MOL    H64 4698   7.320   0.105   5.651 -1.0213  0.4134  0.8877
    8MOL    H65 4699   7.154   0.175   5.463 -2.0956  1.7392  0.4538
    8MOL    H66 4700   7.136   0.299   5.600 -2.1187 -1.8592  0.6247
    8MOL    H67 4701   7.220   0.335   5.453  0.4224  0.3474  0.4908
    8MOL    C68 4702   0.089   0.596   6.322  0.5247  0.0829  0.2506
    8MOL    C69 4703   0.128   0.541   6.458  0.3391  0.7434 -0.4754
    8MOL    C70 4704   0.003   0.544   6.546 -0.3034 -0.6384  0.3855
    8MOL    C71 4705   0.033   0.527   6.696  0.2682  0.2278  0.0315
    8MOL    C72 4706   7.639   0.597   6.785  0.5948 -0.3054 -0.8964
    8MOL    C73 4707   7.666   0.571   6.939  0.3642  0.5303 -0.7860
    8MOL    C74 4708   7.566   0.639   7.032  0.9381  0.5195 -0.4598
    8MOL    C75 4709   7.619   0.784   7.057  0.2861  0.4324  0.0991
    8MOL    C76 4710   0.039   0.806   7.139 -0.6931 -0.1407  0.5830
    8MOL    C77 4711   0.063   0.955   7.165  0.5633 -0.2992 -0.1478
    8MOL    C78 4712   0.183   0.980   7.257  0.3310 -0.1606 -0.3155
    8MOL    H79 4713   0.047   0.695   6.341  1.8131  0.2889  2.1154
    8MOL    H80 4714   0.187   0.607   6.275  0.7859  4.3479  1.5918
    8MOL    H81 4715   0.197   0.615   6.501  0.5896  1.4455 -2.0400
    8MOL    H82 4716   7.627   0.478   6.511  0.2030 -1.6419  1.0827
    8MOL    H83 4717   7.658   0.641   6.533 -0.7161 -0.6508  1.7636
    8MOL    H84 4718   0.058   0.425   6.724  0.8552 -0.0576 -1.5129
    8MOL    H85 4719   0.127   0.575   6.726 -0.1284  0.0274  1.6847
    8MOL    H86 4720   7.533   0.579   6.768  0.2034  2.4917 -1.6026
    8MOL    H87 4721   7.656   0.702   6.762  1.6935 -0.2560  0.1074
    8MOL    H88 4722   7.658   0.463   6.948 -3.2443  0.6982 -1.3167
    8MOL    H89 4723   0.066   0.585   6.972  0.5109  0.9296 -1.4139
    8MOL    H90 4724   7.556   0.569   7.115 -1.4428  0.4932 -0.7434
    8MOL    H91 4725   7.475   0.654   6.974  0.1460 -0.1174  0.6191
    8MOL    H92 4726   7.626   0.840   6.963 -1.1454 -2.0926 -1.5526
    8MOL    H93 4727   7.542   0.838   7.113  0.0113 -1.0742  1.1811
    8MOL    H94 4728   0.020   0.755   7.233 -1.3570 -1.7552 -0.4159
    8MOL    H95 4729   0.129   0.764   7.094  0.1574  0.3141  1.8288
    8MOL    H96 4730   0.077   1.014   7.075  1.9149  1.6047  1.2513
    8MOL    H97 4731   7.677   1.007   7.203 -0.5943 -1.8148 -0.7634
    8MOL    H98 4732   0.279   0.940   7.223  0.7162 -0.0192  0.5715
    8MOL    H99 4733   0.166   0.947   7.360 -0.5484  0.0876 -0.3808
    8MOL   H100 4734   0.204   1.086   7.243  1.1904 -0.7541 -3.7384
    8MOL   C101 4735   0.180   0.393   6.448  0.4771 -0.4483 -0.4449
    8MOL   C102 4736   0.325   0.375   6.392  0.1627 -0.3335  0.0045
    8MOL   C103 4737   0.349   0.232   6.368  0.3688  0.2280  0.6909
    8MOL   C104 4738   0.284   0.169   6.250  0.2928  0.5915 -0.1474
    8MOL   C105 4739   0.341   0.031   6.219  0.0419 -0.5706  0.4612
    8MOL   C106 4740   0.273   7.673   6.098  0.3476  0.1008 -0.4365
    8MOL   C107 4741   0.332   7.540   6.045  0.0041 -0.6010 -0.2071
    8MOL   C108 4742   0.233   7.479   5.934 -0.7482  0.3735 -0.2146
    8MOL   C109 4743   0.188   7.578   5.825  0.7737 -0.0717  0.0181
    8MOL   C110 4744   0.137   7.509   5.698 -0.1738  0.3246 -0.1240
    8MOL   C111 4745   0.106   7.614   5.595  0.3805  0.2873  0.0631
    8MOL   H112 4746   0.183   0.365   6.553 -1.9319  0.0666 -0.2287
    8MOL   H113 4747   0.119   0.314   6.403 -0.4532  0.4448 -0.7563
    8MOL   H114 4748   0.339   0.422   6.295  1.8778 -1.1404 -0.1688
    8MOL   H115 4749   0.457   0.219   6.360  0.2396 -0.3405 -0.1444
    8MOL   H116 4750   0.326   0.175   6.458 -0.2328  2.0190  1.6925
    8MOL   H117 4751   0.177   0.149   6.259 -0.2400  1.3674 -3.9806
    8MOL   H118 4752   0.290   0.233   6.162  0.9059 -1.5713 -1.7147
    8MOL   H119 4753   0.449   0.035   6.201  0.0116 -1.5696  0.0131
    8MOL   H120 4754   0.338   7.668   6.305  1.5615 -2.0128 -0.5596
    8MOL   H121 4755   0.168   7.675   6.127  0.3553  0.6409 -0.4386
    8MOL   H122 4756   0.286   0.046   6.022 -0.5162  2.3935  1.6494
    8MOL   H123 4757   0.361   7.472   6.125  2.1607  2.4826  1.7553
    8MOL   H124 4758   0.422   7.562   5.988  0.2665 -0.2758  0.3284
    8MOL   H125 4759   0.278   7.391   5.890  0.0525  0.4612  0.4048
    8MOL   H126 4760   0.148   7.425   5.976  1.2611 -1.2421  1.8667
    8MOL   H127 4761   0.122   7.655   5.867  0.9460 -0.6712  1.4375
    8MOL   H128 4762   0.283   7.624   5.798  0.3719  1.4048  1.0494
    8MOL   H129 4763   0.052   7.448   5.727 -0.4761  1.3718  1.2440
    8MOL   H130 4764   0.206   7.443   5.646 -2.4507 -1.4648 -0.9155
    8MOL   H131 4765   0.043   7.699   5.621 -0.2809  0.7561 -2.9278
    8MOL   H132 4766   0.199   7.652   5.554  1.5687 -0.3097  2.1338
    8MOL   H133 4767   0.051   7.569   5.513  0.8534  0.1510 -0.1774
    8MOL   C134 4768   0.434   0.436   6.494 -0.0251 -0.0207 -0.1979
    8MOL   C135 4769   0.554   0.522   6.440 -0.5852  0.2051  0.4680
    8MOL   C136 4770   0.672   0.542   6.541  0.3543 -0.5115 -0.9322
    8MOL   C137 4771   0.770   0.416   6.562  0.1539  0.0556  0.7636
    8MOL   C138 4772   0.757   0.348   6.699 -0.5907  0.0656  0.3105
    8MOL   C139 4773   0.855   0.228   6.725 -0.0589 -0.0232 -0.6462
    8MOL   C140 4774   0.849   0.115   6.623 -0.4387  0.3679  0.1638
    8MOL   C141 4775   0.715   0.061   6.571  0.0569 -0.5008  0.1449
    8MOL   C142 4776   0.727   7.642   6.480  0.2806 -0.3680 -0.5471
    8MOL   C143 4777   0.594   7.582   6.429  0.2848  0.4241 -0.4400
    8MOL   C144 4778   0.608   7.464   6.342 -0.1491 -0.2639  0.0754
    8MOL   H145 4779   0.394   0.494   6.577  1.6373 -0.0596  0.6609
    8MOL   H146 4780   0.475   0.347   6.542  1.3659 -1.3596 -3.7238
    8MOL   H147 4781   0.601   0.476   6.353  1.8238  2.9099  0.2686
    8MOL   H148 4782   0.632   0.576   6.636  0.1958 -0.0356 -1.1699
    8MOL   H149 4783   0.728   0.628   6.504 -0.2705  0.0169 -0.6519
    8MOL   H150 4784   0.746   0.341   6.486 -2.8495  1.7132 -0.0003
    8MOL   H151 4785   0.873   0.450   6.553 -0.1000  0.9366  1.2254
    8MOL   H152 4786   0.792   0.420   6.773  1.0525  0.6755 -1.0248
    8MOL   H153 4787   0.653   0.317   6.709 -0.4893 -0.7014 -0.9579
    8MOL   H154 4788   0.956   0.269   6.717 -0.1839  0.9044  2.1651
    8MOL   H155 4789   0.851   0.193   6.827  1.9085 -2.8005 -1.4802
    8MOL   H156 4790   0.901   0.154   6.536 -0.0144 -2.3782 -0.8438
    8MOL   H157 4791   0.896   0.024   6.660 -0.2422 -0.3272 -1.7169
    8MOL   H158 4792   0.648   0.041   6.655  2.3601  2.0061  2.6696
    8MOL   H159 4793   0.662   0.137   6.513  0.9325  0.7307  0.9439
    8MOL   H160 4794   0.783   7.676   6.393  0.1585  0.8466 -0.1730
    8MOL   H161 4795   0.778   7.566   6.538 -1.6266 -1.0739  0.2552
    8MOL   H162 4796   0.530   7.553   6.512  2.1809  1.4346  1.4180
    8MOL   H163 4797   0.538   7.654   6.369  0.3896 -0.2732 -1.3776
    8MOL   H164 4798   0.684   7.394   6.377  0.4709  0.2351 -0.2654
    8MOL   H165 4799   0.649   7.506   6.250 -2.0254 -0.1791 -0.7436
    8MOL   H166 4800   0.508   7.423   6.328 -1.3644  2.1856  1.2326
    8MOL   C167 4801   0.489   0.656   6.395 -0.8726 -0.2913  0.6719
    8MOL   C168 4802   0.560   0.739   6.287 -0.9897 -0.2297 -0.2102
    8MOL   C169 4803   0.546   0.890   6.300 -0.5989 -0.2431  0.2820
    8MOL   C170 4804   0.623   0.947   6.420  0.0934  0.0728 -0.7053
    8MOL   C171 4805   0.769   0.971   6.383 -0.7960  0.1303  0.0521
    8MOL   C172 4806   0.852   1.018   6.503  0.3988 -0.0143 -0.4249
    8MOL   C173 4807   0.993   1.055   6.474 -0.4420 -0.7798 -0.4347
    8MOL   C174 4808   1.071   1.124   6.581  0.0402  0.1144  0.7015
    8MOL   C175 4809   1.217   1.154   6.547 -0.5532  0.3392  0.0744
    8MOL   C176 4810   1.289   1.242   6.645 -0.3084  0.5875  0.1721
    8MOL   C177 4811   1.444   1.248   6.614  0.1507  0.3880  0.0273
    8MOL   H178 4812   0.395   0.619   6.355 -0.8168  0.1100  0.1649
    8MOL   H179 4813   0.458   0.712   6.484 -0.0856 -2.5116  2.3940
    8MOL   H180 4814   0.665   0.709   6.291 -0.9819 -0.2821 -0.8388
    8MOL   H181 4815   0.441   0.919   6.296 -0.3052  0.7455 -0.5005
    8MOL   H182 4816   0.600   0.941   6.219 -4.3042 -0.3712 -2.3929
    8MOL   H183 4817   0.567   1.039   6.442  1.1309  0.6519 -0.4435
    8MOL   H184 4818   0.611   0.884   6.508  0.0365  1.4139  0.2706
    8MOL   H185 4819   0.761   1.051   6.310  0.4522  0.6064  0.4318
    8MOL   H186 4820   0.821   0.889   6.333  0.3041 -0.2395  1.7868
    8MOL   H187 4821   0.813   1.117   6.528 -0.2866 -0.0202 -1.4311
    8MOL   H188 4822   0.854   0.954   6.591  2.3037 -0.1114 -0.5177
    8MOL   H189 4823   1.002   1.123   6.389  1.4503  0.3872  0.6636
    8MOL   H190 4824   1.051   0.969   6.440  0.7148  0.7251 -2.3632
    8MOL   H191 4825   1.015   1.213   6.610  1.3602  0.8426  1.0172
    8MOL   H192 4826   1.058   1.062   6.670  1.8372 -0.3927  0.6287
    8MOL   H193 4827   1.218   1.205   6.451  2.1511  0.0257 -0.1055
    8MOL   H194 4828   1.263   1.055   6.537  0.4606  0.4965  2.6664
    8MOL   H195 4829   1.290   1.206   6.748  1.7024  3.0868  1.0874
    8MOL   H196 4830   1.253   1.344   6.634  0.6907  0.8795 -0.4499
    8MOL   H197 4831   1.488   1.302   6.698 -2.5735  1.9734  0.5127
    8MOL   H198 4832   1.465   1.301   6.521 -0.0259 -1.1099 -0.8792
    8MOL   H199 4833   1.493   1.151   6.622  0.6914  0.6311 -0.3185
    8MOL   C200 4834   0.503   0.690   6.151  0.0959  0.0845 -0.7900
    8MOL   C201 4835   0.560   0.745   6.020  0.1157 -1.1214  0.3522
    8MOL   C202 4836   0.473   0.721   5.897 -0.0372 -0.4902 -0.5005
    8MOL   C203 4837   0.330   0.788   5.891  0.4046 -0.1666  0.3625
    8MOL   C204 4838   0.283   0.775   5.743 -0.7412  0.1671  0.2131
    8MOL   C205 4839   0.340   0.892   5.657  0.4499  0.0957 -0.0474
    8MOL   C206 4840   0.246   0.928   5.537 -0.3756 -0.5318 -0.2781
    8MOL   C207 4841   0.198   0.806   5.450 -0.5147 -0.2538 -0.4774
    8MOL   C208 4842   0.316   0.728   5.397 -0.0554 -1.0996  1.3465
    8MOL   C209 4843   0.297   0.596   5.316 -0.2881 -0.5560  0.4164
    8MOL   C210 4844   0.192   0.499   5.364 -0.1798 -0.2373 -0.2015
    8MOL   H211 4845   0.510   0.582   6.149  1.1427  0.0936  1.1018
    8MOL   H212 4846   0.400   0.727   6.153 -0.2096 -0.7861 -0.2102
    8MOL   H213 4847   0.569   0.853   6.025 -2.2625 -0.9033  0.5528
    8MOL   H214 4848   0.460   0.614   5.883 -0.4247 -0.4588 -0.3954
    8MOL   H215 4849   0.524   0.748   5.805  0.5752  1.0448  0.2634
    8MOL   H216 4850   0.345   0.892   5.921  1.4713 -0.5418  1.1802
    8MOL   H217 4851   0.260   0.740   5.960 -1.4051 -0.0059 -1.3023
    8MOL   H218 4852   0.175   0.768   5.737 -0.9346  1.3993  1.7823
    8MOL   H219 4853   0.312   0.675   5.709 -2.1169 -1.1901  2.8399
    8MOL   H220 4854   0.347   0.986   5.711  0.8258  0.6347 -1.0275
    8MOL   H221 4855   0.443   0.873   5.629  0.4718 -0.3138  0.3069
    8MOL   H222 4856   0.292   0.996   5.465  2.5027 -1.5025  0.5635
    8MOL   H223 4857   0.159   0.979   5.576 -0.9283 -1.7501  0.1177
    8MOL   H224 4858   0.145   0.846   5.365 -0.4073  1.1789  0.1136
    8MOL   H225 4859   0.123   0.750   5.506 -1.0191  0.1735 -0.7222
    8MOL   H226 4860   0.380   0.708   5.483 -2.3218 -0.4623  3.2507
    8MOL   H227 4861   0.366   0.792   5.324 -0.2943 -0.2790  1.8924
    8MOL   H228 4862   0.274   0.615   5.211  0.6776 -1.5829  0.0099
    8MOL   H229 4863   0.396   0.551   5.302  1.0756  2.4016  0.1001
    8MOL   H230 4864   0.199   0.408   5.304 -1.2315 -0.3628 -0.1284
    8MOL   H231 4865   0.088   0.531   5.368 -0.2913 -0.0772 -2.9799
    8MOL   H232 4866   0.207   0.480   5.470 -0.1572 -3.9659 -0.7872
    8MOL   C233 4867   0.702   0.692   5.995 -0.3479  0.2868 -0.8165
    8MOL   C234 4868   0.796   0.743   5.880 -0.0211 -0.5264 -0.7548
    8MOL   C235 4869   0.925   0.650   5.867 -0.1902  0.3371 -0.0900
    8MOL   C236 4870   0.908   0.502   5.846  0.0117  0.7293  0.2137
    8MOL   C237 4871   1.039   0.426   5.828 -0.3509 -0.0579 -0.1289
    8MOL   C238 4872   1.139   0.413   5.943  0.3325  0.3986  0.6200
    8MOL   C239 4873   1.114   0.301   6.046  0.0693  0.4956 -0.4516
    8MOL   C240 4874   1.237   0.283   6.148 -1.0755  1.1788 -0.1859
    8MOL   C241 4875   1.186   0.187   6.256  0.3928 -0.4831  0.4327
    8MOL   C242 4876   1.277   0.176   6.378  0.5705 -0.0635  0.5398
    8MOL   C243 4877   1.217   0.116   6.506 -0.3156  0.4210 -0.0553
    8MOL   H244 4878   0.690   0.585   5.980 -0.8470  0.4800 -1.8419
    8MOL   H245 4879   0.765   0.697   6.083  0.3092 -1.3557 -1.1778
    8MOL   H246 4880   0.741   0.723   5.788  0.3863 -1.2211 -0.8522
    8MOL   H247 4881   0.981   0.691   5.782 -1.1168 -0.5554 -1.1415
    8MOL   H248 4882   0.989   0.659   5.955 -0.7343  1.3622  0.2058
    8MOL   H249 4883   0.847   0.485   5.757 -1.7479 -1.4137  1.7701
    8MOL   H250 4884   0.858   0.463   5.935  0.5928 -2.8199 -0.9408
    8MOL   H251 4885   1.093   0.465   5.742 -1.8193 -0.4922 -1.2806
    8MOL   H252 4886   1.012   0.324   5.800  2.3024 -0.5552 -0.9980
    8MOL   H253 4887   1.127   0.510   5.993 -0.3333  0.9372 -0.5751
    8MOL   H254 4888   1.239   0.406   5.900 -0.3683 -2.5372 -0.6368
    8MOL   H255 4889   1.025   0.331   6.101 -0.3310 -0.5003 -0.5432
    8MOL   H256 4890   1.092   0.206   5.998 -1.2111 -0.5553  2.1414
    8MOL   H257 4891   1.330   0.243   6.107  0.0817 -0.4665  3.8082
    8MOL   H258 4892   1.270   0.380   6.185  0.8954  0.7008 -0.6398
    8MOL   H259 4893   1.084   0.213   6.285  0.9342  0.8152  1.2449
    8MOL   H260 4894   1.171   0.092   6.206  0.3877  0.3089 -1.0784
    8MOL   H261 4895   1.312   0.274   6.411 -0.6049  0.7025 -0.4747
    8MOL   H262 4896   1.364   0.115   6.352 -0.0263  0.0383 -1.7879
    8MOL   H263 4897   1.297   0.103   6.579  0.7510 -0.1153 -1.2796
    8MOL   H264 4898   1.156   0.026   6.495 -0.6893  0.8596 -1.8230
    8MOL   H265 4899   1.158   0.195   6.552  2.7645  2.2034  0.9805
    8MOL   C266 4900   0.827   0.895   5.889 -0.6237 -0.8568  0.4412
    8MOL   C267 4901   0.753   0.991   5.785 -0.2896 -0.4021  0.7455
    8MOL   C268 4902   0.819   0.978   5.643  0.0536 -0.3652 -0.3535
    8MOL   C269 4903   0.750   1.051   5.523  0.3735  0.0725 -0.1626
    8MOL   C270 4904   0.811   0.996   5.390  0.2341  0.5443 -0.3031
    8MOL   C271 4905   0.735   1.044   5.262 -0.7105 -0.1896  0.2522
    8MOL   C272 4906   0.598   0.992   5.238  0.1392 -1.4233  0.1058
    8MOL   C273 4907   0.539   1.035   5.105  0.3024 -0.3341 -0.0827
    8MOL   C274 4908   0.390   1.009   5.091  1.0830 -0.5620  0.1531
    8MOL   C275 4909   0.322   1.069   4.972 -0.2632 -0.1472 -0.9220
    8MOL   C276 4910   0.377   1.018   4.839 -0.3759 -0.7042 -0.2734
    8MOL   H277 4911   0.934   0.915   5.884 -0.6843 -0.4616  0.7578
    8MOL   H278 4912   0.802   0.927   5.990 -2.2597 -0.3679 -0.1114
    8MOL   H279 4913   0.647   0.970   5.772 -0.4240  0.3537  0.6357
    8MOL   H280 4914   0.922   1.011   5.657 -0.1942  0.2827 -0.0417
    8MOL   H281 4915   0.818   0.870   5.630 -2.9739 -0.5588  1.0182
    8MOL   H282 4916   0.756   1.160   5.530 -1.6492  0.2474 -0.8794
    8MOL   H283 4917   0.644   1.027   5.518  0.0596  1.4651 -0.4837
    8MOL   H284 4918   0.813   0.888   5.400  0.4687  0.3686 -2.1181
    8MOL   H285 4919   0.916   1.027   5.390  0.3095  0.3381 -1.6522
    8MOL   H286 4920   0.793   1.013   5.175 -0.0202  2.7674 -0.3843
    8MOL   H287 4921   0.737   1.153   5.262  0.4800 -0.1729 -2.4699
    8MOL   H288 4922   0.600   0.883   5.239  2.7717 -1.4340 -0.8992
    8MOL   H289 4923   0.531   1.013   5.321  1.2864 -2.8971  1.4464
    8MOL   H290 4924   0.593   0.977   5.030  0.1991 -0.1415 -0.3064
    8MOL   H291 4925   0.553   1.140   5.083  0.2994 -0.1450  0.8140
    8MOL   H292 4926   0.393   0.905   5.059 -0.8145 -1.0001  1.3003
    8MOL   H293 4927   0.339   1.023   5.187 -1.0975  0.7264 -1.1689
    8MOL   H294 4928   0.331   1.177   4.981 -0.4494 -0.2525  0.5746
    8MOL   H295 4929   0.216   1.047   4.986 -0.2667  1.2108  1.4066
    8MOL   H296 4930   0.375   0.910   4.849  1.5111 -0.7514 -0.2308
    8MOL   H297 4931   0.479   1.053   4.827 -1.5184  3.0503  0.1152
    8MOL   H298 4932   0.307   1.039   4.758 -1.8924 -0.4659  1.0663
    8MOL   C299 4933   0.769   1.138   5.835 -0.5366 -0.6673  0.2006
    8MOL   C300 4934   0.684   1.200   5.948  0.3480  0.6656  0.2809
    8MOL   C301 4935   0.532   1.175   5.932 -0.1308 -0.3288  0.3176
    8MOL   C302 4936   0.469   1.243   5.808  0.4555  0.4461 -0.3658
    8MOL   C303 4937   0.312   1.239   5.809  0.2603 -0.3805 -0.1288
    8MOL   C304 4938   0.257   1.341   5.910  0.0668 -0.2843 -1.1392
    8MOL   C305 4939   0.103   1.348   5.908  0.4038 -0.3426  0.0311
    8MOL   C306 4940   0.039   1.462   5.995  0.2796  0.8195 -0.2827
    8MOL   C307 4941   0.074   1.603   5.949  0.0758 -0.0409 -0.1116
    8MOL   C308 4942   7.701   1.713   6.029  0.6758  0.0325 -0.4132
    8MOL   C309 4943   0.053   1.733   6.162 -0.3990 -0.3855  0.6646
    8MOL   H310 4944   0.742   1.204   5.753 -0.7434  0.8923  1.4998
    8MOL   H311 4945   0.876   1.153   5.850 -0.9787 -0.7842  3.9252
    8MOL   H312 4946   0.699   1.140   6.038  2.4327  0.8057  0.0447
    8MOL   H313 4947   0.513   1.067   5.931 -1.0497 -0.1759 -3.0750
    8MOL   H314 4948   0.492   1.230   6.017  0.1900 -0.2627  0.4290
    8MOL   H315 4949   0.500   1.348   5.802  2.2137 -0.0515 -0.3000
    8MOL   H316 4950   0.511   1.201   5.717  2.3626  4.5005 -1.4998
    8MOL   H317 4951   0.270   1.270   5.713 -0.6799 -0.5332  0.2285
    8MOL   H318 4952   0.282   1.136   5.826  1.6723 -0.4099  2.4440
    8MOL   H319 4953   0.299   1.440   5.891  1.5292 -0.9751 -1.5460
    8MOL   H320 4954   0.283   1.306   6.009  0.5054 -1.3384 -1.6163
    8MOL   H321 4955   0.061   1.364   5.809 -0.8751  3.1545  1.0585
    8MOL   H322 4956   0.060   1.250   5.927  0.2859  0.0659  1.9613
    8MOL   H323 4957   0.049   1.452   6.103 -2.1918 -0.7475 -0.1609
    8MOL   H324 4958   7.636   1.449   5.974  0.6245 -1.3976 -0.8232
    8MOL   H325 4959   0.044   1.608   5.844 -2.6938  0.3747  0.6629
    8MOL   H326 4960   0.179   1.633   5.952  0.5652 -1.5622 -1.0647
    8MOL   H327 4961   7.598   1.678   6.044 -0.1520  1.8776 -1.5859
    8MOL   H328 4962   7.687   1.802   5.967  1.0398  0.8984  0.7352
    8MOL   H329 4963   0.108   1.658   6.220 -1.7942 -1.6202  0.4245
    8MOL   H330 4964   0.111   1.824   6.177 -2.8162  0.8754  2.8287
    8MOL   H331 4965   7.667   1.759   6.218 -0.0915 -0.4858  1.2028
    8MOL   C332 4966   0.719   1.348   5.986 -0.8979  0.2692  0.8809
    8MOL   C333 4967   0.865   1.395   6.007 -0.0133  0.2654 -0.0269
    8MOL   C334 4968   0.899   1.372   6.156 -0.1083  0.1839  0.2705
    8MOL   C335 4969   0.846   1.468   6.265  0.1047 -0.4228  0.3649
    8MOL   C336 4970   0.934   1.457   6.390  0.4471 -0.0063 -0.5747
    8MOL   C337 4971   0.882   1.520   6.517  0.1705 -1.3193 -0.4492
    8MOL   C338 4972   0.892   1.671   6.518 -0.3348 -0.4345  0.2579
    8MOL   C339 4973   0.817   1.744   6.628  0.3145  0.6489  0.5987
    8MOL   C340 4974   0.671   1.708   6.644  0.7434 -0.5708 -0.3519
    8MOL   C341 4975   0.602   1.776   6.765 -0.4562  0.0370  0.7971
    8MOL   C342 4976   0.447   1.753   6.772  0.4257  0.4620  0.0223
    8MOL   H343 4977   0.684   1.397   5.894  0.7492 -2.3642 -1.2212
    8MOL   H344 4978   0.663   1.391   6.069  2.0761 -0.2651  3.2511
    8MOL   H345 4979   0.925   1.330   5.944  0.6335 -0.9331  1.7954
    8MOL   H346 4980   1.008   1.371   6.166 -0.1269 -0.1380  0.4687
    8MOL   H347 4981   0.862   1.271   6.175 -1.1329  0.1624 -1.7242
    8MOL   H348 4982   0.835   1.571   6.231 -2.0282 -0.7381  0.0531
    8MOL   H349 4983   0.744   1.435   6.284 -0.2077 -0.0785 -0.6650
    8MOL   H350 4984   0.950   1.349   6.401 -2.5133 -0.3583  0.6990
    8MOL   H351 4985   1.034   1.483   6.354  0.6620 -0.8996 -0.6532
    8MOL   H352 4986   0.930   1.468   6.600  0.0579 -1.1756 -0.2943
    8MOL   H353 4987   0.782   1.476   6.522 -1.3242  2.0068  0.6173
    8MOL   H354 4988   0.842   1.703   6.426 -1.5758 -1.9844  0.3751
    8MOL   H355 4989   0.996   1.703   6.523  0.7959 -3.8642  0.1678
    8MOL   H356 4990   0.877   1.720   6.716  0.5150 -0.9281  0.0441
    8MOL   H357 4991   0.819   1.852   6.613 -0.3235  0.4543 -1.0197
    8MOL   H358 4992   0.659   1.600   6.642 -1.3804 -0.3466 -0.2120
    8MOL   H359 4993   0.617   1.739   6.554  0.4216 -3.9192 -1.3664
    8MOL   H360 4994   0.633   1.880   6.758  1.1801 -0.6022 -2.4560
    8MOL   H361 4995   0.648   1.738   6.856  0.2962  2.7055  1.5836
    8MOL   H362 4996   0.401   1.810   6.692  3.1176  2.1565 -0.3865
    8MOL   H363 4997   0.416   1.650   6.758  0.1661  0.9024 -3.0229
    8MOL   H364 4998   0.400   1.797   6.861 -0.8649 -1.2708  0.2190
    8MOL   C365 4999   0.893   1.539   5.957 -0.8579 -0.4689 -0.4811
    8MOL   C366 5000   1.020   1.605   6.005 -0.3472 -0.3436 -0.3654
    8MOL   C367 5001   1.147   1.522   5.963  0.1966 -0.1871  0.4632
    8MOL   C368 5002   1.279   1.544   6.035 -0.1733  0.1429 -0.1697
    8MOL   C369 5003   1.380   1.437   6.001 -0.5775 -0.3155  0.1696
    8MOL   C370 5004   1.441   1.459   5.866 -0.3663 -0.2014 -0.1829
    8MOL   C371 5005   1.538   1.349   5.830  0.4787 -1.1079 -0.2802
    8MOL   C372 5006   1.568   1.330   5.678 -0.0108  0.5572 -0.4205
    8MOL   C373 5007   1.620   1.186   5.642  0.3730  0.2061  0.1271
    8MOL   C374 5008   1.611   1.154   5.491 -0.4044 -0.6639 -0.3291
    8MOL   C375 5009   1.605   0.996   5.479  0.2873  0.3641  0.2593
    8MOL   H376 5010   0.881   1.534   5.849  0.6025  0.2750 -0.6885
    8MOL   H377 5011   0.811   1.605   5.984 -1.3933 -1.1766 -0.3513
    8MOL   H378 5012   1.024   1.618   6.114 -0.6527  1.3344 -0.5340
    8MOL   H379 5013   1.162   1.545   5.857 -2.5133 -0.4376 -0.0255
    8MOL   H380 5014   1.121   1.418   5.982 -0.3437 -0.2052 -0.3649
    8MOL   H381 5015   1.261   1.541   6.142 -0.2612 -0.5665 -0.2059
    8MOL   H382 5016   1.313   1.645   6.012 -0.5334  0.5303  0.9719
    8MOL   H383 5017   1.328   1.343   6.018 -0.1971 -0.8739 -1.6964
    8MOL   H384 5018   1.462   1.450   6.071  1.5295 -0.3846 -2.2191
    8MOL   H385 5019   1.494   1.553   5.859 -0.2847 -0.3587 -2.0214
    8MOL   H386 5020   1.366   1.454   5.786  0.7300 -0.2246 -1.2277
    8MOL   H387 5021   1.631   1.364   5.885  0.7347 -1.2681 -0.6663
    8MOL   H388 5022   1.497   1.257   5.874  0.1360 -0.4593  0.7714
    8MOL   H389 5023   1.648   1.400   5.650  0.9403 -0.7670 -1.0507
    8MOL   H390 5024   1.479   1.352   5.620 -0.5704 -0.7068 -0.0467
    8MOL   H391 5025   1.725   1.161   5.659  0.1311  0.0430  1.4868
    8MOL   H392 5026   1.566   1.110   5.697  0.1531  1.3312  1.5051
    8MOL   H393 5027   1.521   1.192   5.443  0.5833  2.1175 -0.0504
    8MOL   H394 5028   1.697   1.194   5.437  0.2050 -1.0766  0.3306
    8MOL   H395 5029   1.694   0.946   5.516  0.5646  0.7068  0.0704
    8MOL   H396 5030   1.587   0.963   5.376 -0.2538  0.3311  0.3607
    8MOL   H397 5031   1.518   0.954   5.530  0.4823 -0.0453  0.2549
    8MOL   C398 5032   1.024   1.752   5.947  0.1838 -0.4359  0.4563
    8MOL   C399 5033   1.026   1.786   5.795 -0.0145 -0.0849  0.4079
    8MOL   C400 5034   1.121   1.902   5.765 -0.0290  0.3819 -0.6761
    8MOL   C401 5035   1.268   1.861   5.754 -0.0422 -0.1716  0.2852
    8MOL   C402 5036   1.308   1.766   5.637  0.3563 -0.4275  0.2961
    8MOL   C403 5037   1.467   1.763   5.613  0.6855 -0.6641 -0.6617
    8MOL   C404 5038   1.509   1.654   5.504 -0.2193  0.1622  0.5540
    8MOL   C405 5039   1.663   1.659   5.478  0.6381 -0.3468 -1.2625
    8MOL   C406 5040   1.703   1.541   5.383 -0.1317 -0.0141  0.0226
    8MOL   C407 5041   1.858   1.549   5.349 -0.0609  0.0700 -0.1467
    8MOL   C408 5042   1.910   1.661   5.251  0.9468  0.1303 -0.8949
    8MOL   H409 5043   1.108   1.799   5.999  1.7068 -1.9833 -0.5787
    8MOL   H410 5044   0.936   1.803   5.986 -1.0541 -2.5846  0.5405
    8MOL   H411 5045   1.059   1.702   5.734 -3.9268 -1.4767  0.0978
    8MOL   H412 5046   1.104   1.985   5.833  0.5486  0.1192 -0.2141
    8MOL   H413 5047   1.109   1.951   5.668 -1.6509  0.1545 -0.6172
    8MOL   H414 5048   1.328   1.951   5.741  0.2466  0.0790  3.0579
    8MOL   H415 5049   1.300   1.815   5.847  1.9300  1.7218  0.5941
    8MOL   H416 5050   1.259   1.669   5.644  1.3837 -0.9063  0.8332
    8MOL   H417 5051   1.266   1.811   5.547  0.1715 -2.2476 -0.5628
    8MOL   H418 5052   1.530   1.748   5.701  0.3805  1.1369 -0.1324
    8MOL   H419 5053   1.493   1.852   5.555 -0.5223  0.0803 -0.0747
    8MOL   H420 5054   1.471   1.556   5.534  2.0910 -0.5873  1.2229
    8MOL   H421 5055   1.467   1.683   5.408  2.5162  0.4675 -0.6159
    8MOL   H422 5056   1.717   1.666   5.573 -1.2913 -3.2412  0.1128
    8MOL   H423 5057   1.701   1.753   5.439  0.2078 -0.1688 -1.2489
    8MOL   H424 5058   1.690   1.447   5.436  0.7167 -0.0647  0.1510
    8MOL   H425 5059   1.645   1.525   5.293 -0.6392 -1.1161  0.5384
    8MOL   H426 5060   1.886   1.445   5.329  1.0246  0.6986 -1.9612
    8MOL   H427 5061   1.915   1.572   5.438  0.4991 -0.6775 -0.3019
    8MOL   H428 5062   1.887   1.752   5.305  0.2071 -0.6843  0.1794
    8MOL   H429 5063   1.864   1.665   5.152 -3.2103  0.7381  0.9777
    8MOL   H430 5064   2.017   1.677   5.244  0.6479  2.6283  0.0207
    8MOL   C431 5065   0.890   1.839   5.742  0.5892 -0.4530  0.5846
    8MOL   C432 5066   0.871   1.848   5.588 -0.1211 -0.5128  0.2360
    8MOL   C433 5067   0.812   1.987   5.549  0.0955 -0.2850  0.0136
    8MOL   C434 5068   0.842   2.027   5.404  0.0437 -0.5357  0.2799
    8MOL   C435 5069   0.767   2.155   5.383  0.1259  0.4575 -0.1399
    8MOL   C436 5070   0.812   2.239   5.270  0.6940  0.2661  0.7694
    8MOL   C437 5071   0.762   2.188   5.136 -0.2914 -0.8300  0.4476
    8MOL   C438 5072   0.802   2.291   5.029  0.5745 -1.0227 -0.2266
    8MOL   C439 5073   0.765   2.260   4.881 -0.5538 -0.1329  0.3447
    8MOL   C440 5074   0.816   2.374   4.791  0.0579 -1.0010  0.4549
    8MOL   C441 5075   0.811   2.328   4.650  0.2838 -0.5695  0.1401
    8MOL   H442 5076   0.854   1.929   5.793  0.8143 -1.1534  1.9934
    8MOL   H443 5077   0.807   1.773   5.765 -0.4648 -0.2240 -2.3661
    8MOL   H444 5078   0.964   1.848   5.532 -1.4858 -0.8110 -2.0942
    8MOL   H445 5079   0.704   1.989   5.568  0.3193  0.3026  1.2602
    8MOL   H446 5080   0.857   2.063   5.612 -2.0548  2.5929 -1.7967
    8MOL   H447 5081   0.826   1.940   5.341  1.7198 -0.0441 -0.8662
    8MOL   H448 5082   0.949   2.044   5.389 -0.2298  0.0372 -1.0642
    8MOL   H449 5083   0.785   2.209   5.476  2.9098 -1.5565  0.5394
    8MOL   H450 5084   0.662   2.129   5.372 -0.0492 -0.4261  3.1292
    8MOL   H451 5085   0.920   2.239   5.259  0.7299 -1.5074  0.9940
    8MOL   H452 5086   0.787   2.345   5.284 -0.7883  0.1408 -0.7803
    8MOL   H453 5087   0.654   2.196   5.137 -0.2836 -0.6723  0.0269
    8MOL   H454 5088   0.795   2.087   5.112 -0.9371 -1.4977  2.2591
    8MOL   H455 5089   0.759   2.385   5.062  0.2014  0.4724 -4.7274
    8MOL   H456 5090   0.910   2.308   5.028  0.3020  0.7644 -2.3568
    8MOL   H457 5091   0.659   2.250   4.855 -0.5772  1.4794 -0.2415
    8MOL   H458 5092   0.810   2.162   4.863  2.3709  1.1836  0.1408
    8MOL   H459 5093   0.915   2.407   4.823  0.9800 -2.4429 -0.8372
    8MOL   H460 5094   0.762   2.469   4.796  0.0383 -1.1229  3.6273
    8MOL   H461 5095   0.822   2.416   4.587  0.5185 -1.7294 -1.4941
    8MOL   H462 5096   0.885   2.256   4.615 -2.0451 -2.8807 -0.2311
    8MOL   H463 5097   0.713   2.284   4.628  0.8063 -0.9193 -1.5127
    8MOL   C464 5098   0.788   1.729   5.526  0.9500 -0.2068 -0.3107
    8MOL   C465 5099   0.860   1.581   5.537  0.2071  0.3347  0.1850
    8MOL   C466 5100   0.766   1.479   5.467 -0.2717 -0.3395 -0.8369
    8MOL   C467 5101   0.619   1.490   5.498  0.1112  0.8025 -0.5516
    8MOL   C468 5102   0.547   1.390   5.414  0.7942  0.0087 -0.0074
    8MOL   C469 5103   0.394   1.390   5.435 -0.0542 -0.4590  0.7400
    8MOL   C470 5104   0.317   1.314   5.320 -0.1772 -0.4446 -0.3674
    8MOL   C471 5105   0.164   1.323   5.336  0.1003 -0.0541 -0.6088
    8MOL   C472 5106   0.114   1.300   5.481 -0.1937  0.0773  0.3350
    8MOL   C473 5107   7.672   1.278   5.480  0.0813 -0.5497  0.0309
    8MOL   C474 5108   7.593   1.251   5.609  0.4068  0.0696  0.1185
    8MOL   H475 5109   0.767   1.754   5.422 -0.2472 -1.4155 -0.3655
    8MOL   H476 5110   0.692   1.738   5.576  1.4439  3.0019  0.2062
    8MOL   H477 5111   0.878   1.554   5.641 -2.0760  0.4674  0.6359
    8MOL   H478 5112   0.794   1.384   5.513  0.0278  0.9970  1.7845
    8MOL   H479 5113   0.776   1.468   5.359 -1.8884  1.0980 -1.1468
    8MOL   H480 5114   0.599   1.480   5.605 -1.0674 -0.0814 -0.8445
    8MOL   H481 5115   0.581   1.584   5.459 -0.0231  0.4592 -1.2644
    8MOL   H482 5116   0.584   1.289   5.436 -1.8007 -0.8395  0.6154
    8MOL   H483 5117   0.565   1.411   5.309 -1.1788  0.1648 -0.3302
    8MOL   H484 5118   0.371   1.347   5.533 -0.4762 -1.2587  0.2951
    8MOL   H485 5119   0.351   1.491   5.429  1.5176  0.2488  1.1594
    8MOL   H486 5120   0.336   1.349   5.219  1.7481 -0.1924  0.0555
    8MOL   H487 5121   0.340   1.208   5.314 -0.0604 -0.3949 -0.7639
    8MOL   H488 5122   0.121   1.419   5.308 -0.5260 -0.3459 -0.6570
    8MOL   H489 5123   0.120   1.245   5.275  0.1569 -1.5583  1.2329
    8MOL   H490 5124   0.164   1.209   5.514 -0.8816 -0.9313 -1.3642
    8MOL   H491 5125   0.147   1.387   5.538 -0.3236  1.9910 -2.4542
    8MOL   H492 5126   7.621   1.367   5.443 -0.2160 -0.8835 -0.3646
    8MOL   H493 5127   7.652   1.204   5.403  0.4189  1.9208 -2.5181
    8MOL   H494 5128   7.638   1.181   5.679  1.7225  1.7026  0.9224
    8MOL   H495 5129   7.488   1.230   5.589  0.2045  0.9223  0.2504
    8MOL   H496 5130   7.585   1.343   5.667 -0.5888  0.2823 -0.3461
    8MOL   C497 5131   1.002   1.583   5.472 -1.0738 -0.2091 -0.0511
    8MOL   C498 5132   1.074   1.444   5.456  0.6747 -0.5651 -0.4243
    8MOL   C499 5133   1.109   1.384   5.593  0.2414  0.3659 -0.4204
    8MOL   C500 5134   1.126   1.230   5.598 -0.3694 -0.0161 -0.1755
    8MOL   C501 5135   1.174   1.191   5.737 -0.0607  0.5083  0.4628
    8MOL   C502 5136   1.238   1.056   5.747 -0.1298 -0.8102 -0.8961
    8MOL   C503 5137   1.254   1.008   5.887  0.4623 -0.2786 -0.4304
    8MOL   C504 5138   1.293   0.853   5.902  0.5405 -0.6318  0.1585
    8MOL   C505 5139   1.343   0.832   6.042 -0.0752 -0.1920 -0.0547
    8MOL   C506 5140   1.366   0.685   6.076  0.4280 -0.0158 -1.2797
    8MOL   C507 5141   1.423   0.661   6.221 -0.1210 -0.9065  0.2126
    8MOL   H508 5142   0.992   1.623   5.371  0.7431  0.1407 -0.1118
    8MOL   H509 5143   1.064   1.657   5.522 -1.1421 -0.8437  0.9726
    8MOL   H510 5144   1.010   1.370   5.409 -2.3597  2.6219 -1.4748
    8MOL   H511 5145   1.020   1.401   5.654  1.1513 -2.4899  1.8100
    8MOL   H512 5146   1.189   1.444   5.634 -1.1127  1.3633  0.8301
    8MOL   H513 5147   1.200   1.187   5.531  0.3705  1.8098 -0.5586
    8MOL   H514 5148   1.031   1.179   5.579 -0.1360 -1.6953  2.8718
    8MOL   H515 5149   1.258   1.252   5.769  0.3304 -0.3207  1.0351
    8MOL   H516 5150   1.097   1.200   5.813 -0.0394  0.7008  0.4611
    8MOL   H517 5151   1.181   0.978   5.697  1.2849 -2.0218 -0.6494
    8MOL   H518 5152   1.336   1.059   5.699  0.5293  3.8406  0.4343
    8MOL   H519 5153   1.326   1.076   5.932 -0.9626  0.4359  0.8382
    8MOL   H520 5154   1.156   1.011   5.935  1.2057 -3.1684  1.4150
    8MOL   H521 5155   1.373   0.830   5.832  0.6600  1.0979 -0.3079
    8MOL   H522 5156   1.215   0.783   5.873 -2.4622  1.9206  1.7436
    8MOL   H523 5157   1.268   0.858   6.117 -1.4537 -0.9734 -1.1423
    8MOL   H524 5158   1.434   0.886   6.068 -1.2578  0.6004  2.7134
    8MOL   H525 5159   1.431   0.627   6.010  0.5317 -0.5567 -0.7058
    8MOL   H526 5160   1.266   0.640   6.079  0.4784 -0.0066  0.7489
    8MOL   H527 5161   1.413   0.553   6.230  0.8315 -0.9660  0.6282
    8MOL   H528 5162   1.374   0.716   6.300  3.0487  0.7317  1.1324
    8MOL   H529 5163   1.525   0.696   6.237 -0.0832 -1.2121  0.6497
    8MOL   C530 5164   1.202   1.453   5.375  0.4260 -0.3047  0.9086
    8MOL   C531 5165   1.172   1.455   5.221 -0.5740  0.7531 -0.7683
    8MOL   C532 5166   1.170   1.308   5.175 -0.3598 -0.2720 -0.7600
    8MOL   C533 5167   1.300   1.221   5.189 -0.4826 -0.0031  0.2097
    8MOL   C534 5168   1.277   1.071   5.157  0.4329 -0.1450  0.4663
    8MOL   C535 5169   1.210   1.001   5.276  0.0260 -0.7139  0.3781
    8MOL   C536 5170   1.211   0.843   5.273  0.4229  0.4266  0.0983
    8MOL   C537 5171   1.135   0.769   5.385 -0.4027 -0.7741  0.3068
    8MOL   C538 5172   1.126   0.625   5.366 -0.2301  0.3156  0.1118
    8MOL   C539 5173   1.032   0.561   5.473 -1.0216 -0.4704 -0.8003
    8MOL   C540 5174   0.887   0.527   5.424  0.0300  0.5273 -0.5970
    8MOL   H541 5175   1.253   1.547   5.398 -0.6533  0.1722  1.4352
    8MOL   H542 5176   1.271   1.377   5.412 -0.2521 -0.5429  1.7117
    8MOL   H543 5177   1.077   1.507   5.205 -1.3600  0.0435  1.4786
    8MOL   H544 5178   1.142   1.304   5.070 -2.3744  2.2886 -0.3634
    8MOL   H545 5179   1.094   1.261   5.238  0.0433 -0.0140 -0.0674
    8MOL   H546 5180   1.331   1.217   5.293  1.2189  0.6357 -0.2573
    8MOL   H547 5181   1.379   1.266   5.128  1.0626 -2.7270  0.1088
    8MOL   H548 5182   1.376   1.030   5.134 -0.3370 -2.7432  1.5901
    8MOL   H549 5183   1.225   1.061   5.062  0.7648 -0.4806  0.3174
    8MOL   H550 5184   1.107   1.037   5.280 -0.0889 -0.9886 -0.0806
    8MOL   H551 5185   1.254   1.032   5.370 -0.0812 -2.2290  0.9384
    8MOL   H552 5186   1.310   0.797   5.277  0.1515 -0.1790 -0.0145
    8MOL   H553 5187   1.172   0.799   5.181 -0.1029  1.5341 -0.2110
    8MOL   H554 5188   1.035   0.812   5.394 -1.1221 -2.4840  0.6708
    8MOL   H555 5189   1.177   0.787   5.484  0.4087 -0.0675 -0.1602
    8MOL   H556 5190   1.223   0.575   5.364  0.0315  0.7874  0.9610
    8MOL   H557 5191   1.093   0.592   5.268 -0.7937 -1.8561  0.9791
    8MOL   H558 5192   1.024   0.629   5.558 -0.4432 -0.2617 -0.9096
    8MOL   H559 5193   1.089   0.476   5.510  0.4027  0.2079 -1.4272
    8MOL   H560 5194   0.894   0.459   5.339 -0.4056  0.9456 -0.9683
    8MOL   H561 5195   0.826   0.485   5.504  3.4516 -0.2796  1.7185
    8MOL   H562 5196   0.841   0.616   5.381 -0.4216 -0.0229 -1.2493
    8MOL   C563 5197   1.274   1.535   5.139 -0.1020 -0.3703  0.4301
    8MOL   C564 5198   1.228   1.564   4.994 -0.2545 -0.2699  0.4403
    8MOL   C565 5199   1.340   1.607   4.894  1.0068  0.1208  0.5729
    8MOL   C566 5200   1.445   1.500   4.866  0.0991  0.1376  0.3342
    8MOL   C567 5201   1.573   1.536   4.789 -0.1862 -0.3115 -0.6614
    8MOL   C568 5202   1.676   1.423   4.772 -0.0076 -0.0806 -0.0699
    8MOL   C569 5203   1.819   1.459   4.724  0.4373  0.2148  0.0025
    8MOL   C570 5204   1.905   1.333   4.726  0.5118  0.6519  0.5263
    8MOL   C571 5205   2.059   1.367   4.722  0.4798 -0.1371  0.7478
    8MOL   C572 5206   2.143   1.253   4.653 -0.6204  0.0009  0.4289
    8MOL   C573 5207   2.148   1.119   4.731  0.2234  0.3197 -0.2121
    8MOL   H574 5208   1.370   1.484   5.149 -1.3632 -3.2530 -1.4822
    8MOL   H575 5209   1.294   1.631   5.185  1.1521 -0.1667 -0.5114
    8MOL   H576 5210   1.188   1.466   4.965  1.1577 -0.6052 -0.4142
    8MOL   H577 5211   1.386   1.695   4.938 -2.2025  1.8743  0.4968
    8MOL   H578 5212   1.304   1.643   4.798  1.6011 -1.2242 -0.1745
    8MOL   H579 5213   1.393   1.422   4.810  1.0740 -0.5446  0.3667
    8MOL   H580 5214   1.479   1.453   4.958  2.0093  2.2827  0.7730
    8MOL   H581 5215   1.632   1.611   4.842  1.4220 -2.0785  0.0662
    8MOL   H582 5216   1.552   1.589   4.696 -2.2225  2.1132  1.1090
    8MOL   H583 5217   1.686   1.377   4.870  3.0436  0.2944 -0.1749
    8MOL   H584 5218   1.622   1.357   4.704  0.5897  0.3446 -0.9526
    8MOL   H585 5219   1.817   1.504   4.625  0.8823  1.3425  0.5074
    8MOL   H586 5220   1.857   1.532   4.795  0.3881 -0.1926  0.4475
    8MOL   H587 5221   1.879   1.274   4.638  1.6868  0.6002  0.2023
    8MOL   H588 5222   1.870   1.266   4.805 -0.2028 -1.1853 -1.2920
    8MOL   H589 5223   2.092   1.376   4.826  0.0083 -2.8073  1.1921
    8MOL   H590 5224   2.075   1.460   4.668  1.3465 -1.6499 -1.6783
    8MOL   H591 5225   2.244   1.295   4.643 -1.3937  1.4028 -1.8902
    8MOL   H592 5226   2.124   1.226   4.550  3.5803 -1.7309  0.0070
    8MOL   H593 5227   2.162   1.128   4.838 -2.5003  0.9552  0.1507
    8MOL   H594 5228   2.057   1.062   4.712  1.9180 -1.7455 -2.4355
    8MOL   H595 5229   2.230   1.054   4.702  1.3635  1.6153  0.0296
    8MOL   C596 5230   1.113   1.662   4.977 -0.2714 -0.2887 -0.4398
    8MOL   C597 5231   1.132   1.816   4.991  0.3003 -0.3528  0.1636
    8MOL   C598 5232   1.126   1.867   5.136 -0.4502  0.5842  0.6012
    8MOL   C599 5233   1.233   1.963   5.171 -0.2003 -0.5645  0.2897
    8MOL   C600 5234   1.243   1.976   5.318  0.0485 -0.0750 -0.0236
    8MOL   C601 5235   1.316   2.111   5.352  0.3003 -0.0501  0.3481
    8MOL   C602 5236   1.324   2.141   5.501  0.3798  0.0737  0.2679
    8MOL   C603 5237   1.423   2.257   5.547 -0.7675 -0.5073  0.1004
    8MOL   C604 5238   1.418   2.300   5.694 -0.3191  0.8012 -0.0715
    8MOL   C605 5239   1.481   2.438   5.702 -0.1192 -0.3157  0.0174
    8MOL   C606 5240   1.485   2.493   5.848 -0.6975 -0.1815  0.2824
    8MOL   H607 5241   1.074   1.636   4.878 -0.3376 -0.2535 -0.4238
    8MOL   H608 5242   1.029   1.642   5.044 -1.6332 -1.0191 -2.3267
    8MOL   H609 5243   1.233   1.833   4.954  0.4211 -1.4707 -0.0496
    8MOL   H610 5244   1.126   1.780   5.202 -0.3735 -0.5171 -0.8040
    8MOL   H611 5245   1.026   1.907   5.150 -0.6610  0.1955  0.2436
    8MOL   H612 5246   1.223   2.059   5.119  0.0043 -0.0917  1.1156
    8MOL   H613 5247   1.323   1.912   5.136  0.7329 -0.1598  2.0407
    8MOL   H614 5248   1.293   1.887   5.354 -0.0236 -0.0806  0.0625
    8MOL   H615 5249   1.149   1.993   5.370  0.4166  0.3284  0.5260
    8MOL   H616 5250   1.422   2.112   5.326  0.9439 -1.6347  2.7138
    8MOL   H617 5251   1.275   2.199   5.304  1.0671 -0.8695 -1.8588
    8MOL   H618 5252   1.364   2.048   5.542  1.8214  0.7474  0.4119
    8MOL   H619 5253   1.222   2.168   5.528 -0.2286 -2.4417  0.6404
    8MOL   H620 5254   1.378   2.341   5.493 -0.4628 -0.9662 -0.8665
    8MOL   H621 5255   1.527   2.249   5.517 -1.3834 -0.9608 -1.9741
    8MOL   H622 5256   1.314   2.304   5.725 -0.4365  0.7761 -0.4586
    8MOL   H623 5257   1.470   2.219   5.745 -0.2653  0.2766 -0.9487
    8MOL   H624 5258   1.422   2.511   5.646  2.3793  1.5706 -0.2639
    8MOL   H625 5259   1.585   2.436   5.668  0.3585  1.1160  1.2917
    8MOL   H626 5260   1.396   2.459   5.901 -0.2434 -3.1194 -0.7217
    8MOL   H627 5261   1.581   2.494   5.898 -0.3468  0.7948 -0.3896
    8MOL   H628 5262   1.465   2.599   5.833  0.3185  0.0102  0.2683
    8MOL   C629 5263   1.039   1.889   4.904 -0.4244  0.7177  0.2697
    8MOL   C630 5264   1.086   1.883   4.759  0.1678 -0.0745 -0.4464
    8MOL   C631 5265   0.994   1.974   4.668  0.2738  0.1554  0.1395
    8MOL   C632 5266   0.975   1.908   4.533  0.4490 -0.1982  0.2429
    8MOL   C633 5267   1.099   1.908   4.440  0.0164 -0.2577  0.7957
    8MOL   C634 5268   1.083   1.825   4.312  0.0889  0.2350 -0.0861
    8MOL   C635 5269   1.204   1.826   4.218 -0.2666  0.4437 -0.1757
    8MOL   C636 5270   1.188   1.742   4.085  0.3055  0.5148 -0.0766
    8MOL   C637 5271   1.275   1.795   3.971  0.3995  0.3582 -0.6807
    8MOL   C638 5272   1.229   1.934   3.921 -0.1361 -0.0602  0.1188
    8MOL   C639 5273   1.082   1.924   3.861 -0.8342  0.3020  0.5737
    8MOL   H640 5274   0.938   1.852   4.923  0.5349 -1.5131  1.1661
    8MOL   H641 5275   1.023   1.993   4.934  2.8210  1.0208  1.1607
    8MOL   H642 5276   1.180   1.936   4.747 -0.0193  0.5762  0.9064
    8MOL   H643 5277   0.900   2.000   4.716 -0.1532  2.7406 -1.9993
    8MOL   H644 5278   1.037   2.074   4.659  1.8130 -0.3313  1.6984
    8MOL   H645 5279   0.897   1.958   4.476 -1.0215 -3.0065 -0.2922
    8MOL   H646 5280   0.933   1.809   4.551 -0.6120  0.5225  1.8587
    8MOL   H647 5281   1.190   1.875   4.490 -0.1986  0.4232  1.6455
    8MOL   H648 5282   1.122   2.010   4.407  1.4130 -1.1824 -1.2245
    8MOL   H649 5283   0.998   1.853   4.250 -0.0737 -1.7704 -0.7983
    8MOL   H650 5284   1.064   1.722   4.341  0.6338  0.8351  2.5250
    8MOL   H651 5285   1.289   1.792   4.277 -0.4424  1.9487  0.9624
    8MOL   H652 5286   1.228   1.931   4.198 -1.0751  1.0763  2.0682
    8MOL   H653 5287   1.084   1.725   4.056  1.0111  0.2191 -2.5466
    8MOL   H654 5288   1.222   1.642   4.115  1.0206  1.4449  2.3571
    8MOL   H655 5289   1.282   1.710   3.903 -2.3079 -0.0676 -0.4804
    8MOL   H656 5290   1.380   1.796   3.999  0.4148  0.1360 -0.7272
    8MOL   H657 5291   1.293   1.983   3.848  1.2719 -0.0645  1.3415
    8MOL   H658 5292   1.231   2.007   4.002  1.4614  0.0123  0.0287
    8MOL   H659 5293   1.065   1.840   3.793  1.0593  0.7949 -0.5629
    8MOL   H660 5294   1.068   2.013   3.799 -2.2669 -1.8829 -2.3807
    8MOL   H661 5295   0.993   1.920   3.923 -0.5051  1.7899  1.1525
    8MOL   H662 5296   1.092   1.781   4.720  0.8251 -0.5246  0.8086
    9MOL     C1 5297   4.826   4.940   5.339  0.2891  0.1323  0.4238
    9MOL     C2 5298   4.816   5.043   5.465  0.8528  0.0476 -0.3651
    9MOL     C3 5299   4.682   5.029   5.540  0.1421 -0.4035 -0.6996
    9MOL     C4 5300   4.664   4.900   5.631 -0.1140  1.4428  0.3664
    9MOL     C5 5301   4.514   4.859   5.649 -1.1261  0.0575  0.0740
    9MOL     C6 5302   4.502   4.763   5.768  0.7608  0.1802 -0.0363
    9MOL     C7 5303   4.508   4.821   5.911  1.0149 -0.0348  0.4296
    9MOL     C8 5304   4.481   4.701   6.001  0.1305  0.5795  0.0368
    9MOL     C9 5305   4.469   4.737   6.149 -0.6591 -0.0843 -0.1366
    9MOL    C10 5306   4.351   4.819   6.189 -0.0792  0.1211 -1.1340
    9MOL    C11 5307   4.209   4.768   6.154 -0.1839  0.3410 -0.4975
    9MOL    H12 5308   4.815   4.835   5.364  1.3476 -0.3538 -1.0739
    9MOL    H13 5309   4.916   4.946   5.277 -1.1911  0.2302 -1.7849
    9MOL    H14 5310   4.807   5.144   5.426 -3.2406 -0.7259 -1.7230
    9MOL    H15 5311   4.601   5.038   5.468 -0.9249  0.2328  0.5567
    9MOL    H16 5312   4.672   5.123   5.595  1.3716 -0.4360 -0.3818
    9MOL    H17 5313   4.707   4.920   5.729 -1.7349  0.3660  1.3429
    9MOL    H18 5314   4.711   4.820   5.574 -0.7912  0.6641  0.8769
    9MOL    H19 5315   4.441   4.939   5.644 -2.2661 -0.9534  0.4107
    9MOL    H20 5316   4.485   4.800   5.562 -0.0239 -1.4812  0.7203
    9MOL    H21 5317   4.579   4.687   5.761 -0.2979 -0.8255 -1.1694
    9MOL    H22 5318   4.409   4.707   5.756  1.6644 -1.1350 -1.0599
    9MOL    H23 5319   4.605   4.861   5.940  1.4606 -2.0249  1.8074
    9MOL    H24 5320   4.440   4.905   5.924  0.3181 -0.7688  1.6098
    9MOL    H25 5321   4.553   4.619   5.994  1.4320  1.8579 -2.2237
    9MOL    H26 5322   4.383   4.656   5.982  0.9613 -0.9504 -0.6948
    9MOL    H27 5323   4.557   4.783   6.194  0.1173 -1.5909 -0.0887
    9MOL    H28 5324   4.483   4.637   6.191  1.7225 -0.4581 -1.7328
    9MOL    H29 5325   4.359   4.922   6.151 -1.5890  1.5763  2.3063
    9MOL    H30 5326   4.356   4.839   6.296  4.2962 -1.4102 -0.9408
    9MOL    H31 5327   4.137   4.814   6.222  1.4796 -2.2195  3.1401
    9MOL    H32 5328   4.174   4.782   6.051  0.6375 -1.7532 -1.1081
    9MOL    H33 5329   4.199   4.663   6.184  0.0820  0.0973 -1.2418
    9MOL    H34 5330   4.744   4.972   5.275  3.5158  0.9681 -3.5069
    9MOL    C35 5331   4.937   5.037   5.555  0.7106 -0.2970  0.0481
    9MOL    C36 5332   5.071   5.091   5.511 -0.1497  0.6269  0.4077
    9MOL    C37 5333   5.070   5.237   5.464  0.3865 -0.1318 -0.2495
    9MOL    C38 5334   5.002   5.333   5.559  0.0886 -0.4747  0.3985
    9MOL    C39 5335   5.001   5.481   5.515  0.0835  0.4307 -0.4007
    9MOL    C40 5336   4.916   5.563   5.620 -0.1937 -0.4660  0.0889
    9MOL    C41 5337   4.764   5.561   5.586 -0.3893 -0.3276 -0.0810
    9MOL    C42 5338   4.668   5.633   5.677 -1.0914 -0.0737 -0.0869
    9MOL    C43 5339   4.530   5.638   5.630 -0.1292 -0.8160  0.1424
    9MOL    C44 5340   4.437   5.719   5.719  0.1261 -0.1800 -0.8942
    9MOL    C45 5341   4.415   5.671   5.866  0.0782 -0.4637  0.0061
    9MOL    H46 5342   4.957   4.933   5.581 -1.4651 -0.5306  0.9308
    9MOL    H47 5343   4.913   5.082   5.652 -3.9624  0.4613 -1.3439
    9MOL    H48 5344   5.105   5.044   5.419 -0.1536  3.0141 -0.8634
    9MOL    H49 5345   5.166   5.283   5.438 -1.2347  2.3015 -2.1680
    9MOL    H50 5346   5.021   5.247   5.368 -2.3478  1.5734  1.2605
    9MOL    H51 5347   5.057   5.332   5.653  1.0121 -0.8332 -0.1419
    9MOL    H52 5348   4.901   5.296   5.572 -0.5451  1.3396  0.8537
    9MOL    H53 5349   4.968   5.501   5.413  0.9630  1.7068 -0.4443
    9MOL    H54 5350   5.104   5.515   5.509  0.0431  0.2589 -2.7152
    9MOL    H55 5351   4.956   5.662   5.640 -0.1687 -0.9699  2.6608
    9MOL    H56 5352   4.916   5.504   5.712 -1.6309 -0.3628  0.1696
    9MOL    H57 5353   4.740   5.599   5.487 -0.5341 -0.8198 -0.2353
    9MOL    H58 5354   4.729   5.458   5.592 -2.9635  0.5349  0.2704
    9MOL    H59 5355   4.695   5.738   5.688 -2.3660 -0.0181  3.3340
    9MOL    H60 5356   4.672   5.586   5.776  1.8037  0.8250  0.2635
    9MOL    H61 5357   4.502   5.533   5.638 -0.1492 -0.6791  2.0613
    9MOL    H62 5358   4.539   5.676   5.528 -1.8526  0.9131  0.6182
    9MOL    H63 5359   4.440   5.828   5.715 -2.3821  0.0386  1.7195
    9MOL    H64 5360   4.338   5.700   5.676 -1.1802 -0.4785  2.0955
    9MOL    H65 5361   4.332   5.721   5.914 -0.5829 -1.0779 -0.4891
    9MOL    H66 5362   4.415   5.566   5.895  2.5181 -1.0313 -1.8607
    9MOL    H67 5363   4.501   5.709   5.922  0.6074  0.9536 -1.7385
    9MOL    C68 5364   5.186   5.067   5.612  0.3899  0.4823  0.2309
    9MOL    C69 5365   5.223   4.927   5.649 -0.1051 -0.0700  0.1799
    9MOL    C70 5366   5.279   4.855   5.523  0.1609 -0.0647 -0.1182
    9MOL    C71 5367   5.278   4.704   5.530  0.3199 -0.1689  0.2328
    9MOL    C72 5368   5.361   4.630   5.425 -0.0552 -0.7814  0.0618
    9MOL    C73 5369   5.299   4.627   5.277  0.1095  0.4860 -0.0192
    9MOL    C74 5370   5.396   4.702   5.176  0.2629  0.1693 -0.4078
    9MOL    C75 5371   5.330   4.708   5.038 -0.4356 -0.8429 -0.0354
    9MOL    C76 5372   5.412   4.806   4.946  0.2675  0.0399 -0.0657
    9MOL    C77 5373   5.360   4.821   4.802 -0.3923 -1.0678  1.0031
    9MOL    C78 5374   5.444   4.921   4.731  0.5055  0.5718  0.3609
    9MOL    H79 5375   5.168   5.128   5.701  1.6461  2.0758 -0.5706
    9MOL    H80 5376   5.271   5.119   5.567  0.1268  1.3736  0.7393
    9MOL    H81 5377   5.129   4.881   5.679 -0.1651  0.1313  0.2988
    9MOL    H82 5378   5.383   4.885   5.510  0.6522 -0.7773  1.9980
    9MOL    H83 5379   5.233   4.885   5.428 -0.2366  0.1120  0.1287
    9MOL    H84 5380   5.333   4.674   5.619 -2.1693 -0.5272  1.7020
    9MOL    H85 5381   5.181   4.663   5.558  1.3830 -0.8694  3.0355
    9MOL    H86 5382   5.363   4.529   5.466 -0.3968 -0.8101  0.0047
    9MOL    H87 5383   5.458   4.680   5.425 -1.4059  1.9409 -0.5005
    9MOL    H88 5384   5.291   4.525   5.241 -0.8984  0.7221 -0.4778
    9MOL    H89 5385   5.198   4.666   5.281  0.1879  0.6157  0.6963
    9MOL    H90 5386   5.500   4.674   5.190 -0.2400 -1.2797  0.4831
    9MOL    H91 5387   5.389   4.806   5.210 -1.6163 -0.0099 -0.1876
    9MOL    H92 5388   5.333   4.605   5.002  1.2480  0.3849 -3.6693
    9MOL    H93 5389   5.228   4.747   5.042 -0.5990 -1.4454  1.9530
    9MOL    H94 5390   5.406   4.900   5.001 -0.1086 -0.1483  0.2113
    9MOL    H95 5391   5.519   4.786   4.937 -0.1418 -2.5974  0.4642
    9MOL    H96 5392   5.354   4.736   4.735  1.6691  0.4469 -1.1737
    9MOL    H97 5393   5.262   4.866   4.817  1.3235  3.3668 -0.4394
    9MOL    H98 5394   5.551   4.901   4.733 -0.2009 -3.6909  0.2199
    9MOL    H99 5395   5.439   5.019   4.778 -3.9213  1.0131 -0.7705
    9MOL   H100 5396   5.412   4.912   4.627  0.9237 -0.8834  0.3448
    9MOL   C101 5397   5.321   4.931   5.763  0.2636 -0.2839 -0.2013
    9MOL   C102 5398   5.249   4.930   5.904  0.1639  0.2942  0.2957
    9MOL   C103 5399   5.333   4.998   6.011 -0.3460 -0.3100  0.1220
    9MOL   C104 5400   5.337   5.153   5.987  0.0235  0.1809  0.3918
    9MOL   C105 5401   5.449   5.214   6.071 -0.5207  0.2757 -0.1739
    9MOL   C106 5402   5.418   5.223   6.226 -0.0950 -0.9513  1.1531
    9MOL   C107 5403   5.544   5.254   6.304 -0.3713  1.0418 -0.2460
    9MOL   C108 5404   5.515   5.267   6.454  0.2212 -0.0328 -0.5441
    9MOL   C109 5405   5.632   5.330   6.529  0.4137  0.1869  0.6997
    9MOL   C110 5406   5.600   5.368   6.673  0.4436 -0.2559  0.0664
    9MOL   C111 5407   5.696   5.469   6.734 -0.1132  0.3585  0.5726
    9MOL   H112 5408   5.383   4.842   5.754  0.5561 -0.0761 -0.2287
    9MOL   H113 5409   5.391   5.013   5.750  1.3315 -0.6575  2.6818
    9MOL   H114 5410   5.155   4.985   5.900  0.4427  0.7009 -0.7284
    9MOL   H115 5411   5.286   4.984   6.109  1.1973  0.1733  0.9527
    9MOL   H116 5412   5.436   4.961   6.019 -0.7114 -1.2609  0.4500
    9MOL   H117 5413   5.355   5.184   5.884 -0.4341 -0.1366  0.2109
    9MOL   H118 5414   5.241   5.192   6.022  0.6950  1.4926  0.7966
    9MOL   H119 5415   5.544   5.165   6.048  0.0236  1.1425  0.1799
    9MOL   H120 5416   5.449   5.313   6.024 -0.9518  1.6265  2.5402
    9MOL   H121 5417   5.341   5.291   6.261 -0.1716 -0.7690  0.6256
    9MOL   H122 5418   5.383   5.123   6.253 -0.4292 -0.4524  2.6470
    9MOL   H123 5419   5.584   5.346   6.261  3.1464 -1.1315 -1.7411
    9MOL   H124 5420   5.624   5.182   6.297  0.9243  2.3495  0.7973
    9MOL   H125 5421   5.431   5.335   6.455  0.0653 -0.1886 -2.0812
    9MOL   H126 5422   5.457   5.186   6.498  2.0579 -0.5799  0.9144
    9MOL   H127 5423   5.714   5.258   6.530 -0.2483 -0.6012 -0.7579
    9MOL   H128 5424   5.665   5.414   6.468 -0.3368 -0.2272 -0.2940
    9MOL   H129 5425   5.594   5.283   6.741  0.7260 -0.9856 -0.8212
    9MOL   H130 5426   5.502   5.416   6.679  0.2745 -0.4072 -1.4082
    9MOL   H131 5427   5.699   5.474   6.843  2.7645 -1.3387  0.6353
    9MOL   H132 5428   5.798   5.448   6.702 -0.8651  0.3190 -1.8603
    9MOL   H133 5429   5.684   5.571   6.698 -1.1487  0.1650  0.3781
    9MOL   C134 5430   5.200   4.788   5.945  0.3747  0.3869 -0.2019
    9MOL   C135 5431   5.090   4.776   6.054  0.2132 -0.6487 -0.0242
    9MOL   C136 5432   5.077   4.631   6.094  0.3070  0.8664  0.1200
    9MOL   C137 5433   5.198   4.561   6.165 -0.1636 -0.0785  0.2407
    9MOL   C138 5434   5.225   4.609   6.309 -0.0663 -0.1869  0.4788
    9MOL   C139 5435   5.346   4.533   6.380  0.2612  0.1651 -0.1182
    9MOL   C140 5436   5.322   4.382   6.385  0.3615  0.1556  0.1913
    9MOL   C141 5437   5.415   4.306   6.482  0.1836  0.8098 -0.8297
    9MOL   C142 5438   5.355   4.162   6.521 -0.0900 -0.0568  0.6769
    9MOL   C143 5439   5.468   4.067   6.568 -0.8705 -0.2928  0.3550
    9MOL   C144 5440   5.427   3.917   6.601 -0.7542 -0.4882  0.3869
    9MOL   H145 5441   5.173   4.740   5.852  2.0368 -3.2788  1.1215
    9MOL   H146 5442   5.289   4.738   5.983  1.2974  1.5957 -0.7201
    9MOL   H147 5443   5.128   4.824   6.145  0.2486 -1.0471  0.1739
    9MOL   H148 5444   5.038   4.575   6.009 -0.0873 -0.3950  1.1325
    9MOL   H149 5445   4.996   4.604   6.161  1.9565  0.0180  1.8295
    9MOL   H150 5446   5.167   4.456   6.167 -0.1253 -0.0806  0.9022
    9MOL   H151 5447   5.295   4.558   6.116 -0.6632 -2.3620 -0.6695
    9MOL   H152 5448   5.251   4.715   6.306 -0.0836 -0.2353 -2.1298
    9MOL   H153 5449   5.126   4.599   6.354  0.9308 -0.2168  2.7468
    9MOL   H154 5450   5.446   4.560   6.346  0.5259  0.3026  0.7618
    9MOL   H155 5451   5.353   4.575   6.480 -1.1789  0.2031 -0.0183
    9MOL   H156 5452   5.215   4.374   6.403  0.6400  0.2643  2.0351
    9MOL   H157 5453   5.327   4.335   6.287 -0.5180  0.4919 -0.0153
    9MOL   H158 5454   5.514   4.298   6.437  0.9611 -1.6063  1.1716
    9MOL   H159 5455   5.425   4.373   6.567  1.9229  1.9926 -1.9324
    9MOL   H160 5456   5.275   4.188   6.590  1.5137 -0.6901  2.8443
    9MOL   H161 5457   5.311   4.115   6.433 -0.3569 -1.5126  1.5681
    9MOL   H162 5458   5.546   4.065   6.492  0.3220 -0.4533  1.5775
    9MOL   H163 5459   5.529   4.104   6.650 -1.6376 -0.6097  1.0791
    9MOL   H164 5460   5.364   3.878   6.521  0.3465 -0.3195 -0.5782
    9MOL   H165 5461   5.369   3.914   6.693 -2.7401  0.3340 -0.8175
    9MOL   H166 5462   5.517   3.855   6.600  0.3801  1.1177 -0.7418
    9MOL   C167 5463   4.958   4.843   6.022 -0.1127 -0.2311  0.3690
    9MOL   C168 5464   4.945   4.987   6.075  0.3725 -0.3634 -1.2792
    9MOL   C169 5465   4.855   4.991   6.195  0.3724 -0.9055 -1.0264
    9MOL   C170 5466   4.896   4.898   6.311  0.0777  0.3207  0.2397
    9MOL   C171 5467   5.024   4.950   6.380 -0.7397 -0.5684  0.2306
    9MOL   C172 5468   5.011   5.081   6.470  0.4734  0.2736  0.7039
    9MOL   C173 5469   5.140   5.176   6.465  0.0725  0.9268  0.4738
    9MOL   C174 5470   5.137   5.289   6.562  0.1501 -0.6098  0.1920
    9MOL   C175 5471   5.217   5.256   6.692 -0.6705 -0.1888  0.2649
    9MOL   C176 5472   5.226   5.371   6.788 -0.3170  0.0583 -1.1189
    9MOL   C177 5473   5.308   5.340   6.908 -0.3082  0.1409  0.1756
    9MOL   H178 5474   4.943   4.842   5.914  0.7112  1.4092  0.2242
    9MOL   H179 5475   4.877   4.782   6.063 -1.3037 -0.3599 -2.1255
    9MOL   H180 5476   5.041   5.020   6.114 -0.2443  0.1008 -0.1248
    9MOL   H181 5477   4.756   4.957   6.166 -0.0597 -0.8334  0.3188
    9MOL   H182 5478   4.843   5.091   6.237 -0.4987 -1.7137  0.7206
    9MOL   H183 5479   4.813   4.896   6.382 -0.9971 -1.5263 -1.0190
    9MOL   H184 5480   4.924   4.796   6.285  1.3134  0.2930  1.5987
    9MOL   H185 5481   5.102   4.962   6.305 -1.2356 -4.0804 -0.9603
    9MOL   H186 5482   5.057   4.868   6.444  0.6732 -0.8570 -0.8458
    9MOL   H187 5483   4.925   5.142   6.443 -0.2452 -1.6300 -1.4615
    9MOL   H188 5484   4.983   5.046   6.569 -2.5967 -1.6581 -0.7711
    9MOL   H189 5485   5.140   5.214   6.363 -1.4985 -2.0615 -0.6874
    9MOL   H190 5486   5.228   5.114   6.480 -0.2837  0.7352  1.8810
    9MOL   H191 5487   5.167   5.385   6.519  0.0652  0.4313  2.3769
    9MOL   H192 5488   5.035   5.323   6.574  0.5154  0.1123  1.2869
    9MOL   H193 5489   5.314   5.214   6.665 -0.8229 -1.3767  1.4667
    9MOL   H194 5490   5.160   5.176   6.740  0.2116  0.2960  2.1603
    9MOL   H195 5491   5.124   5.385   6.825 -1.0084 -0.5936 -2.7579
    9MOL   H196 5492   5.271   5.457   6.739 -0.1307 -1.0768 -2.9800
    9MOL   H197 5493   5.403   5.302   6.872  0.4105  0.1218  2.0722
    9MOL   H198 5494   5.268   5.264   6.975  0.8078 -0.0383  0.6447
    9MOL   H199 5495   5.331   5.435   6.956  0.5526 -0.4653  0.9806
    9MOL   C200 5496   4.878   5.079   5.965 -0.2268  0.0058  0.4711
    9MOL   C201 5497   4.848   5.233   6.008 -0.6265  0.2642 -0.4037
    9MOL   C202 5498   4.740   5.296   5.911  0.4070  0.0972 -0.4865
    9MOL   C203 5499   4.618   5.199   5.899 -0.2423  0.1863  0.4636
    9MOL   C204 5500   4.498   5.286   5.856 -0.0278 -0.1573 -0.1651
    9MOL   C205 5501   4.375   5.201   5.834  0.4552 -0.8613  0.1166
    9MOL   C206 5502   4.249   5.283   5.788 -0.5983 -0.2153  0.2158
    9MOL   C207 5503   4.109   5.203   5.787 -0.6479 -0.4121 -0.0811
    9MOL   C208 5504   4.092   5.120   5.668  0.0459 -0.2785 -0.2745
    9MOL   C209 5505   3.987   5.006   5.678 -0.2028 -0.1143 -0.1471
    9MOL   C210 5506   3.968   4.915   5.552  0.3000  0.1350 -0.2281
    9MOL   H211 5507   4.938   5.091   5.875  0.2165 -2.3076  0.4421
    9MOL   H212 5508   4.785   5.029   5.935 -0.1542 -0.6107  1.2740
    9MOL   H213 5509   4.792   5.227   6.102 -0.0144  0.7656 -0.0010
    9MOL   H214 5510   4.785   5.316   5.814  0.8469  0.0803 -0.2851
    9MOL   H215 5511   4.704   5.391   5.951  2.0131  1.0593 -1.2769
    9MOL   H216 5512   4.605   5.149   5.996  2.8532  0.4103  1.0253
    9MOL   H217 5513   4.629   5.124   5.820  1.0849  0.2298  0.5943
    9MOL   H218 5514   4.531   5.344   5.770 -1.8075  1.3602  0.1424
    9MOL   H219 5515   4.473   5.354   5.938 -1.5944 -0.6745 -0.1954
    9MOL   H220 5516   4.408   5.124   5.764  4.7003  0.7281  0.2168
    9MOL   H221 5517   4.345   5.143   5.921 -1.2352 -1.0762 -0.5780
    9MOL   H222 5518   4.263   5.333   5.692  0.2919  1.3531  1.1367
    9MOL   H223 5519   4.227   5.373   5.846  2.2893  1.1619 -0.7098
    9MOL   H224 5520   4.029   5.277   5.779 -0.3724 -0.2040 -1.0248
    9MOL   H225 5521   4.102   5.144   5.878  0.6337 -2.3536 -1.2207
    9MOL   H226 5522   4.190   5.083   5.638  0.1332 -0.6818  0.4972
    9MOL   H227 5523   4.066   5.195   5.593  2.7176  0.5242 -0.4367
    9MOL   H228 5524   4.013   4.934   5.755  1.5752 -0.6119 -1.1963
    9MOL   H229 5525   3.893   5.050   5.711  0.8941  0.6525  2.0702
    9MOL   H230 5526   3.976   4.976   5.462 -0.2882  0.0998 -0.3037
    9MOL   H231 5527   3.878   4.854   5.565  0.6618 -0.0547  1.4169
    9MOL   H232 5528   4.045   4.838   5.551 -0.5585 -0.7433 -1.4883
    9MOL   C233 5529   4.974   5.302   6.036  0.2436  0.8861  0.1285
    9MOL   C234 5530   4.970   5.434   6.109 -0.1989  0.3723  0.1924
    9MOL   C235 5531   5.107   5.501   6.097  0.1468 -0.1102 -0.0281
    9MOL   C236 5532   5.143   5.545   5.954 -0.6387 -0.5092 -0.4649
    9MOL   C237 5533   5.217   5.683   5.957  0.1659 -0.6279  0.0382
    9MOL   C238 5534   5.359   5.667   6.012  0.3634 -0.9110  0.4363
    9MOL   C239 5535   5.465   5.634   5.910  0.2024 -0.2478  0.8547
    9MOL   C240 5536   5.606   5.637   5.981  0.1229  0.4355  0.2238
    9MOL   C241 5537   5.719   5.608   5.876  0.5947 -0.0188  0.8395
    9MOL   C242 5538   5.860   5.621   5.949  0.5197  0.0838 -0.2710
    9MOL   C243 5539   5.982   5.599   5.862 -0.2797  0.1676  0.9195
    9MOL   H244 5540   5.028   5.321   5.943 -1.7175  0.9928 -0.9946
    9MOL   H245 5541   5.036   5.235   6.096 -2.2581 -0.1533  1.6287
    9MOL   H246 5542   4.900   5.499   6.057 -1.1459 -0.9997 -0.2686
    9MOL   H247 5543   5.104   5.589   6.161 -1.2306 -1.1559  1.3682
    9MOL   H248 5544   5.182   5.443   6.151  0.2387 -1.6753 -1.7961
    9MOL   H249 5545   5.054   5.560   5.893 -0.0047  0.9936 -1.0356
    9MOL   H250 5546   5.201   5.468   5.903  0.7251 -0.9615  1.6808
    9MOL   H251 5547   5.165   5.761   6.013  2.3776  0.2797  0.9138
    9MOL   H252 5548   5.222   5.721   5.855  2.9425 -1.4507 -0.1651
    9MOL   H253 5549   5.369   5.594   6.092 -0.2870 -2.0442 -0.4901
    9MOL   H254 5550   5.383   5.764   6.054 -1.4434  0.3868 -1.4101
    9MOL   H255 5551   5.455   5.537   5.862 -2.5949 -0.8331  2.5303
    9MOL   H256 5552   5.463   5.710   5.832  2.9699  0.4797  1.4104
    9MOL   H257 5553   5.615   5.720   6.050 -1.5465  1.1872 -0.4181
    9MOL   H258 5554   5.597   5.555   6.052 -0.6138  0.7430  0.4894
    9MOL   H259 5555   5.717   5.506   5.837  2.8173 -0.0575  0.7802
    9MOL   H260 5556   5.715   5.674   5.789  1.0393 -0.8178  0.2118
    9MOL   H261 5557   5.851   5.543   6.024 -0.7037  1.3303  0.9302
    9MOL   H262 5558   5.865   5.709   6.013 -0.4172 -0.1826  0.1763
    9MOL   H263 5559   6.000   5.684   5.797  0.2115  0.5952  1.6032
    9MOL   H264 5560   5.981   5.509   5.801 -0.4034  1.7913 -1.5086
    9MOL   H265 5561   6.069   5.596   5.928  0.0089  2.6072  0.6867
    9MOL   C266 5562   4.922   5.417   6.259 -0.5301 -0.6794  0.6734
    9MOL   C267 5563   4.818   5.516   6.308  0.1973  0.1674 -0.2013
    9MOL   C268 5564   4.680   5.498   6.255 -0.1878  0.2024 -0.3024
    9MOL   C269 5565   4.606   5.376   6.320  0.3387  0.0848  0.3470
    9MOL   C270 5566   4.459   5.355   6.268  0.5340 -0.5205  0.0677
    9MOL   C271 5567   4.369   5.487   6.265  0.3871 -0.4067 -1.0442
    9MOL   C272 5568   4.322   5.534   6.402 -0.1264 -0.2483 -0.3575
    9MOL   C273 5569   4.212   5.644   6.404 -0.1965 -0.0937 -0.0225
    9MOL   C274 5570   4.199   5.731   6.534 -0.1744 -0.0329  0.7283
    9MOL   C275 5571   4.060   5.797   6.539  0.0577  0.5314  0.2341
    9MOL   C276 5572   4.065   5.928   6.617 -0.0038  0.3876 -0.3453
    9MOL   H277 5573   5.008   5.407   6.326  0.0167  1.7571  0.3905
    9MOL   H278 5574   4.871   5.320   6.255  2.2703 -2.1082 -2.7418
    9MOL   H279 5575   4.813   5.493   6.415  1.7373  0.1727 -0.1130
    9MOL   H280 5576   4.616   5.581   6.284  1.2477  0.6944  1.5372
    9MOL   H281 5577   4.684   5.495   6.146  0.2326  0.8199 -0.3067
    9MOL   H282 5578   4.603   5.398   6.427  1.6451  0.4799  0.3162
    9MOL   H283 5579   4.660   5.282   6.309  0.2152 -0.2236  2.2574
    9MOL   H284 5580   4.417   5.273   6.326 -1.1912  0.3625  0.1209
    9MOL   H285 5581   4.472   5.320   6.166  0.4667 -2.5998  0.7540
    9MOL   H286 5582   4.286   5.452   6.203  0.6748  1.5387 -2.5525
    9MOL   H287 5583   4.409   5.567   6.203 -1.7247  1.8239  0.3898
    9MOL   H288 5584   4.292   5.455   6.472 -1.5970  1.5403  1.0678
    9MOL   H289 5585   4.412   5.576   6.445 -1.6563  0.2451  2.4608
    9MOL   H290 5586   4.115   5.597   6.392 -0.7749  0.7854  1.0893
    9MOL   H291 5587   4.236   5.711   6.322  0.6154 -0.8877 -0.4416
    9MOL   H292 5588   4.222   5.674   6.624 -1.2770 -2.5208 -0.5199
    9MOL   H293 5589   4.282   5.802   6.537 -1.4742  1.5315  0.2916
    9MOL   H294 5590   3.983   5.737   6.587  1.8067 -2.0201 -0.0394
    9MOL   H295 5591   4.038   5.808   6.433  2.6812  1.3318 -0.2829
    9MOL   H296 5592   3.978   5.981   6.578 -0.1040  1.4129  1.2306
    9MOL   H297 5593   4.158   5.985   6.616 -0.0844  0.5097 -0.7849
    9MOL   H298 5594   4.040   5.915   6.722 -0.3623 -0.3710 -0.5207
    9MOL   C299 5595   4.868   5.657   6.303 -0.6625 -0.0466  0.7091
    9MOL   C300 5596   4.805   5.738   6.415  0.1022  0.1252  0.5293
    9MOL   C301 5597   4.809   5.893   6.373  0.5987  0.2986  0.5556
    9MOL   C302 5598   4.696   5.950   6.273  0.8570 -0.2278 -0.1077
    9MOL   C303 5599   4.547   5.945   6.326 -0.0132 -0.5230  0.7330
    9MOL   C304 5600   4.440   5.986   6.225  0.2954  0.5706  0.4612
    9MOL   C305 5601   4.305   6.018   6.290  0.0512 -0.0781  0.3343
    9MOL   C306 5602   4.207   6.091   6.188 -0.0751  0.2494  0.8399
    9MOL   C307 5603   4.062   6.088   6.246 -0.1388 -0.5008 -0.2744
    9MOL   C308 5604   3.954   6.136   6.150 -0.2688  0.0155 -0.2551
    9MOL   C309 5605   3.822   6.167   6.224 -0.8769  0.1030 -0.5528
    9MOL   H310 5606   4.865   5.693   6.200  0.2438 -2.5392 -0.2318
    9MOL   H311 5607   4.974   5.666   6.325 -0.7075  2.6121  0.0193
    9MOL   H312 5608   4.699   5.717   6.421  0.5897 -2.8139 -0.6269
    9MOL   H313 5609   4.793   5.952   6.463 -0.5430  0.3886  0.3014
    9MOL   H314 5610   4.910   5.920   6.342  0.6150 -0.4391 -0.0308
    9MOL   H315 5611   4.729   6.048   6.239  1.9110 -0.7798 -0.7315
    9MOL   H316 5612   4.711   5.904   6.175 -0.0351 -0.1519 -0.2814
    9MOL   H317 5613   4.529   5.844   6.364  1.7162 -1.4213 -0.7400
    9MOL   H318 5614   4.543   6.020   6.404 -0.9721 -0.3034  0.4782
    9MOL   H319 5615   4.429   5.913   6.145 -0.7473  0.3569  0.7867
    9MOL   H320 5616   4.469   6.082   6.182 -0.6833  0.3143 -0.7758
    9MOL   H321 5617   4.260   5.931   6.338  1.0135 -0.9269 -0.2870
    9MOL   H322 5618   4.325   6.089   6.370 -2.5553  1.1107 -0.0144
    9MOL   H323 5619   4.192   6.030   6.100  0.5531 -0.4948  1.2459
    9MOL   H324 5620   4.236   6.195   6.172 -0.2966  0.1204 -0.4407
    9MOL   H325 5621   4.066   6.150   6.335 -0.3911 -1.5470  0.4805
    9MOL   H326 5622   4.040   5.984   6.271  1.2807 -1.0273 -1.1348
    9MOL   H327 5623   3.929   6.067   6.070  1.8356  2.5540 -3.2252
    9MOL   H328 5624   3.988   6.222   6.092  0.4637 -0.8453 -1.1167
    9MOL   H329 5625   3.764   6.238   6.165  1.7430  0.8810 -2.3183
    9MOL   H330 5626   3.765   6.081   6.259  0.2595 -0.0327  1.0018
    9MOL   H331 5627   3.844   6.204   6.324  0.4523  0.0961 -0.8296
    9MOL   C332 5628   4.874   5.714   6.558 -0.1485 -0.3567  0.3986
    9MOL   C333 5629   4.789   5.756   6.679 -0.2507 -0.3013 -0.2290
    9MOL   C334 5630   4.878   5.755   6.806 -0.4095 -0.2020  0.4701
    9MOL   C335 5631   4.905   5.619   6.876  0.1081  0.1864 -0.0830
    9MOL   C336 5632   4.948   5.642   7.024 -0.9096  0.0979 -0.3763
    9MOL   C337 5633   5.094   5.695   7.033  0.1443 -0.0696 -0.6052
    9MOL   C338 5634   5.155   5.709   7.178 -0.3863  0.0498 -0.4509
    9MOL   C339 5635   5.298   5.754   7.165  0.3312 -0.9384  0.5013
    9MOL   C340 5636   5.369   5.756   7.303 -0.8383 -0.3943  0.0527
    9MOL   C341 5637   5.521   5.752   7.287  0.1870 -0.0311  0.4510
    9MOL   C342 5638   5.589   5.764   7.426  0.1210  0.2487 -0.5798
    9MOL   H343 5639   4.904   5.610   6.562  0.6456 -0.0746  2.6220
    9MOL   H344 5640   4.963   5.777   6.562  1.8943 -3.2918  3.4318
    9MOL   H345 5641   4.777   5.863   6.668  0.3413 -0.2662 -0.5993
    9MOL   H346 5642   4.849   5.836   6.873 -1.5097  1.4732 -1.9429
    9MOL   H347 5643   4.973   5.791   6.764 -1.4716  3.6893  1.1683
    9MOL   H348 5644   4.818   5.555   6.887  0.1442  0.0110 -0.7921
    9MOL   H349 5645   4.983   5.557   6.831 -0.8539 -1.5333  0.5828
    9MOL   H350 5646   4.882   5.701   7.088  0.6730 -1.3854  2.7008
    9MOL   H351 5647   4.947   5.545   7.073 -1.5788 -0.8087 -2.1159
    9MOL   H352 5648   5.096   5.788   6.975 -1.4853  1.4973  1.7714
    9MOL   H353 5649   5.160   5.638   6.967  1.6502  2.5183 -1.4327
    9MOL   H354 5650   5.157   5.614   7.232  2.9511 -1.2280 -2.7252
    9MOL   H355 5651   5.101   5.782   7.239 -2.1780 -2.2716  0.8107
    9MOL   H356 5652   5.360   5.693   7.100 -0.1477 -1.0200  0.1136
    9MOL   H357 5653   5.308   5.851   7.117  0.4052 -0.3366  1.7082
    9MOL   H358 5654   5.341   5.677   7.373  0.6408 -1.2839 -0.3394
    9MOL   H359 5655   5.358   5.846   7.364  1.2091  0.1620 -0.3544
    9MOL   H360 5656   5.562   5.833   7.226  0.6353 -1.0559 -0.6287
    9MOL   H361 5657   5.554   5.661   7.236  0.2887  1.0499 -1.4616
    9MOL   H362 5658   5.698   5.768   7.425  0.3870 -3.1123  2.3639
    9MOL   H363 5659   5.558   5.852   7.483  1.1832 -0.1119  0.5813
    9MOL   H364 5660   5.574   5.685   7.501  1.1352  0.3832 -0.2227
    9MOL   C365 5661   4.650   5.682   6.698 -1.1315 -0.2826  0.8716
    9MOL   C366 5662   4.557   5.749   6.809 -0.3958 -0.0930  0.3776
    9MOL   C367 5663   4.512   5.889   6.748 -0.0200 -0.4354  0.4832
    9MOL   C368 5664   4.559   6.017   6.828 -0.0857  0.1208 -1.1509
    9MOL   C369 5665   4.565   6.149   6.749 -0.3553 -1.1768  0.0968
    9MOL   C370 5666   4.444   6.191   6.661  0.6458 -0.2042 -0.8349
    9MOL   C371 5667   4.311   6.209   6.733  0.3205  0.3513 -0.3664
    9MOL   C372 5668   4.187   6.275   6.665 -0.4780  0.1093 -0.3664
    9MOL   C373 5669   4.065   6.273   6.753  0.0726 -0.8517  1.0688
    9MOL   C374 5670   3.952   6.333   6.668 -0.2678 -0.0947  0.0444
    9MOL   C375 5671   3.832   6.369   6.761 -0.5564 -0.5456  0.1038
    9MOL   H376 5672   4.586   5.669   6.611 -0.9891  0.2828  0.6771
    9MOL   H377 5673   4.668   5.580   6.731 -1.4884 -0.0230  1.9118
    9MOL   H378 5674   4.618   5.779   6.894 -0.5966  2.1359 -0.2342
    9MOL   H379 5675   4.406   5.890   6.723  0.0243  1.0903  0.3301
    9MOL   H380 5676   4.544   5.892   6.644  0.0501 -1.4930  0.4708
    9MOL   H381 5677   4.662   5.987   6.850 -0.3026  1.0172  1.1891
    9MOL   H382 5678   4.499   6.033   6.917 -0.9828 -0.5593 -1.6298
    9MOL   H383 5679   4.653   6.156   6.685 -0.7595 -0.8667 -0.4341
    9MOL   H384 5680   4.571   6.218   6.833 -1.6463  1.2255 -1.7166
    9MOL   H385 5681   4.438   6.119   6.579 -2.8006 -0.2376 -0.6120
    9MOL   H386 5682   4.458   6.292   6.622 -0.4562  0.5097  0.5847
    9MOL   H387 5683   4.275   6.110   6.759  0.9832  0.4670  1.0359
    9MOL   H388 5684   4.329   6.269   6.822 -1.0279 -0.7582  0.6725
    9MOL   H389 5685   4.174   6.228   6.568  2.8505 -2.0525  0.1679
    9MOL   H390 5686   4.213   6.378   6.640  1.6493 -0.4886 -0.6643
    9MOL   H391 5687   4.040   6.176   6.796  0.4477 -1.0517  0.8421
    9MOL   H392 5688   4.082   6.340   6.838  0.4834 -0.2392  0.5100
    9MOL   H393 5689   3.974   6.420   6.607 -1.4669 -0.0412 -0.3268
    9MOL   H394 5690   3.923   6.253   6.600 -2.9080  0.9063 -0.0602
    9MOL   H395 5691   3.811   6.297   6.839 -0.5582 -0.9441 -0.2658
    9MOL   H396 5692   3.741   6.392   6.706 -1.5896 -4.1676  0.2243
    9MOL   H397 5693   3.867   6.449   6.826 -1.9135 -1.3995  1.9018
    9MOL   C398 5694   4.433   5.663   6.858  0.0264 -0.6334  0.2092
    9MOL   C399 5695   4.355   5.722   6.971 -0.3031 -0.0361 -0.0597
    9MOL   C400 5696   4.437   5.754   7.097 -0.4903 -0.6834  0.7596
    9MOL   C401 5697   4.501   5.627   7.164  0.3014  0.5871  0.0743
    9MOL   C402 5698   4.559   5.658   7.308  0.1557 -0.6643 -0.2201
    9MOL   C403 5699   4.449   5.690   7.411  0.0193 -0.0449  0.6196
    9MOL   C404 5700   4.503   5.694   7.553 -0.0522 -0.2654  0.2469
    9MOL   C405 5701   4.392   5.745   7.647 -0.2863  0.0966 -0.2462
    9MOL   C406 5702   4.441   5.743   0.090  0.6477  0.3895  0.4406
    9MOL   C407 5703   4.393   5.865   0.164  0.0018 -1.1620 -0.1387
    9MOL   C408 5704   4.407   5.859   0.317  0.6074 -0.1570  0.5220
    9MOL   H409 5705   4.487   5.573   6.887  0.6409  0.1233  1.4811
    9MOL   H410 5706   4.371   5.642   6.771  0.1323 -0.5428  0.1116
    9MOL   H411 5707   4.315   5.816   6.934 -0.8003 -0.4739 -0.6445
    9MOL   H412 5708   4.362   5.804   7.158  0.4790  1.6878  0.0391
    9MOL   H413 5709   4.502   5.839   7.082 -0.1054 -1.5055 -2.5024
    9MOL   H414 5710   4.427   5.548   7.153  0.6411  0.2810 -0.0008
    9MOL   H415 5711   4.587   5.598   7.104  0.0244  2.7344 -1.3994
    9MOL   H416 5712   4.617   5.571   7.340  0.5716  0.5195  2.3635
    9MOL   H417 5713   4.627   5.743   7.306 -1.2705  0.4960  0.0317
    9MOL   H418 5714   4.379   5.608   7.392  0.6585 -0.4978  0.1812
    9MOL   H419 5715   4.396   5.782   7.389 -1.3852 -0.3966  2.3857
    9MOL   H420 5716   4.527   5.590   7.573 -0.1763 -0.0315  1.7273
    9MOL   H421 5717   4.595   5.749   7.571 -0.0217  0.5637 -2.2683
    9MOL   H422 5718   4.304   5.681   7.647  0.3813 -0.8333  1.5305
    9MOL   H423 5719   4.365   5.845   7.612 -0.9386  1.1728  3.1325
    9MOL   H424 5720   4.404   5.653   0.140 -1.6359  0.4091 -1.1425
    9MOL   H425 5721   4.550   5.748   0.091  0.6001  1.9168 -0.7538
    9MOL   H426 5722   4.287   5.876   0.140 -0.4184 -1.9973  1.2679
    9MOL   H427 5723   4.450   5.951   0.129 -0.2021 -0.7471  0.5507
    9MOL   H428 5724   4.352   5.769   0.345 -0.4933 -0.1212 -1.3969
    9MOL   H429 5725   4.350   5.941   0.360 -1.1204 -1.9590  1.7879
    9MOL   H430 5726   4.509   5.858   0.354  0.7473 -2.2427  0.1469
    9MOL   C431 5727   4.224   5.638   6.992 -0.3498 -0.2682 -0.1458
    9MOL   C432 5728   4.120   5.715   7.072  0.1489 -0.0659  0.2562
    9MOL   C433 5729   4.030   5.610   7.142 -0.2074  0.2486 -0.3194
    9MOL   C434 5730   4.095   5.537   7.267 -0.7027 -0.0419  0.2103
    9MOL   C435 5731   4.027   5.412   7.322  0.6916 -0.4808  0.3079
    9MOL   C436 5732   4.094   5.345   7.443 -0.0405  0.3137  0.1073
    9MOL   C437 5733   4.016   5.238   7.515 -0.4181  0.1530  0.6417
    9MOL   C438 5734   4.104   5.156   7.604  0.4385  0.5635 -0.5633
    9MOL   C439 5735   4.031   5.108   0.033  0.6522  0.5150 -0.0083
    9MOL   C440 5736   4.121   5.044   0.135  0.3042 -0.4043  0.0248
    9MOL   C441 5737   4.043   5.040   0.270 -0.1919 -0.2679  0.5837
    9MOL   H442 5738   4.234   5.540   7.038 -0.7771 -0.2304  0.0200
    9MOL   H443 5739   4.188   5.615   6.892  3.9123 -0.4899 -1.7414
    9MOL   H444 5740   4.165   5.757   7.162 -0.0674  2.1694 -0.6619
    9MOL   H445 5741   3.938   5.656   7.177 -1.1939  0.3880 -2.9723
    9MOL   H446 5742   4.004   5.531   7.072 -1.6717  0.3769  0.0687
    9MOL   H447 5743   4.088   5.600   7.356 -0.7046  0.4783 -0.1577
    9MOL   H448 5744   4.198   5.510   7.244 -0.7764 -2.8433  2.8076
    9MOL   H449 5745   4.022   5.337   7.243  1.4906 -0.9947  0.7279
    9MOL   H450 5746   3.927   5.440   7.354  0.4983 -0.9196  0.0972
    9MOL   H451 5747   4.132   5.421   7.511 -1.1725 -0.9121  2.1985
    9MOL   H452 5748   4.179   5.292   7.400  0.1318  1.9310 -1.5553
    9MOL   H453 5749   3.974   5.171   7.440  1.4226  0.6260 -0.8530
    9MOL   H454 5750   3.935   5.276   7.577 -1.0923 -1.5151  0.8083
    9MOL   H455 5751   4.138   5.071   7.545 -1.7497  0.1627 -1.3039
    9MOL   H456 5752   4.191   5.211   7.638  1.5942 -0.9421 -1.0343
    9MOL   H457 5753   3.953   5.038   0.004 -0.5725  0.6382  2.8330
    9MOL   H458 5754   3.973   5.190   0.075 -0.0714  0.6445 -1.2144
    9MOL   H459 5755   4.214   5.100   0.144 -0.9863  2.0100 -0.9415
    9MOL   H460 5756   4.133   4.938   0.115 -1.2515 -0.5636 -0.1806
    9MOL   H461 5757   4.110   4.998   0.344  0.6765  0.8212  0.4324
    9MOL   H462 5758   3.994   5.131   0.306 -1.4869 -0.6314 -0.1878
    9MOL   H463 5759   3.950   4.983   0.262 -0.9757  1.1075 -0.5958
    9MOL   C464 5760   4.027   5.821   7.004  0.3764 -0.0928  0.2579
    9MOL   C465 5761   3.955   5.919   7.087  0.4146  0.2821  0.1742
    9MOL   C466 5762   4.052   6.018   7.153 -0.0462  0.3171 -0.3047
    9MOL   C467 5763   4.000   6.095   7.272 -0.1965  0.5006 -0.5141
    9MOL   C468 5764   4.043   6.035   7.411  0.0105 -0.3797  0.0098
    9MOL   C469 5765   4.012   6.123   7.532 -0.1037  0.1033 -0.1694
    9MOL   C470 5766   4.032   6.061   7.672  0.1987  0.2434  0.6024
    9MOL   C471 5767   3.992   6.159   0.086  0.4632 -0.4255  0.0156
    9MOL   C472 5768   4.013   6.113   0.238 -0.1505 -0.3983 -0.0925
    9MOL   C473 5769   3.913   6.008   0.273  0.6617 -0.0690  0.6366
    9MOL   C474 5770   3.772   6.066   0.290  0.7021 -0.0966 -0.5079
    9MOL   H475 5771   3.962   5.779   6.928  1.0887  1.4861 -1.2505
    9MOL   H476 5772   4.089   5.889   6.945 -0.4896 -0.1063 -0.6797
    9MOL   H477 5773   3.914   5.863   7.171 -1.7185 -0.0712 -1.0728
    9MOL   H478 5774   4.068   6.089   7.071  0.2107  0.0390 -0.4985
    9MOL   H479 5775   4.147   5.971   7.180 -0.9454 -0.6536  1.1708
    9MOL   H480 5776   4.052   6.191   7.261 -1.8462  1.4663 -0.1249
    9MOL   H481 5777   3.892   6.106   7.280  0.0486  0.8014  3.6967
    9MOL   H482 5778   4.152   6.027   7.406  0.0400 -0.0503  0.1056
    9MOL   H483 5779   3.997   5.937   7.426 -0.7162 -0.1246 -0.5117
    9MOL   H484 5780   4.066   6.218   7.526 -0.0388  0.1399  0.8358
    9MOL   H485 5781   3.909   6.158   7.522 -0.1973  0.2283  1.0729
    9MOL   H486 5782   3.975   5.969   7.671  1.1974 -0.3788  0.4719
    9MOL   H487 5783   4.134   6.024   7.680  0.1868 -0.2666 -1.4431
    9MOL   H488 5784   4.041   6.256   0.080  2.0876 -1.3065 -1.9300
    9MOL   H489 5785   3.886   6.179   0.074  0.6039  0.7909  0.7618
    9MOL   H490 5786   4.114   6.074   0.249 -0.2574 -1.0505 -1.2659
    9MOL   H491 5787   4.002   6.197   0.305 -1.2055 -0.6237  0.0222
    9MOL   H492 5788   3.920   5.928   0.200  0.1280  0.6629 -0.2282
    9MOL   H493 5789   3.943   5.950   0.360  0.5013 -1.9469 -0.5374
    9MOL   H494 5790   3.712   6.054   0.200 -0.0609 -2.5621  0.2747
    9MOL   H495 5791   3.779   6.167   0.330 -0.7017 -1.1818  2.6316
    9MOL   H496 5792   3.719   6.009   0.367  0.8891 -0.6714 -0.7995
    9MOL   C497 5793   3.835   5.985   7.010 -0.2748  0.6989 -0.2244
    9MOL   C498 5794   3.704   5.897   6.995  1.0335  0.3358  0.2730
    9MOL   C499 5795   3.644   5.936   6.859  0.1645 -0.1850 -0.2325
    9MOL   C500 5796   3.718   5.872   6.737  0.5239  0.1824 -0.1044
    9MOL   C501 5797   3.624   5.827   6.616 -0.3673  0.7839  0.3972
    9MOL   C502 5798   3.713   5.808   6.488  0.3183  0.7269  0.0826
    9MOL   C503 5799   3.623   5.783   6.368  0.4651  0.2235 -0.2452
    9MOL   C504 5800   3.701   5.764   6.233 -0.1596  0.1347  0.3586
    9MOL   C505 5801   3.629   5.713   6.108 -0.3599  0.2907 -0.0546
    9MOL   C506 5802   3.508   5.798   6.057  0.5866  0.0087  0.6656
    9MOL   C507 5803   3.450   5.761   5.919  0.0977 -0.4780  0.5080
    9MOL   H508 5804   3.809   6.081   7.056 -0.8093  0.2599  0.3993
    9MOL   H509 5805   3.868   6.014   6.911  2.6138  0.0456  0.4912
    9MOL   H510 5806   3.716   5.789   7.000 -0.5856  0.1068 -0.5183
    9MOL   H511 5807   3.644   6.044   6.847 -0.5166 -0.3953 -2.2573
    9MOL   H512 5808   3.541   5.902   6.849  0.9558 -2.8831  0.1895
    9MOL   H513 5809   3.785   5.791   6.766  1.4513  1.2329  0.7088
    9MOL   H514 5810   3.789   5.946   6.700  1.9653 -0.3247  1.5884
    9MOL   H515 5811   3.583   5.730   6.644  1.5849 -0.2506 -0.2250
    9MOL   H516 5812   3.546   5.898   6.586 -0.2471  0.2131 -1.3644
    9MOL   H517 5813   3.780   5.892   6.473 -0.9831  1.8895  0.6511
    9MOL   H518 5814   3.781   5.726   6.511  0.4613  0.9719  0.5448
    9MOL   H519 5815   3.565   5.693   6.387  1.7166 -0.1059  2.3734
    9MOL   H520 5816   3.550   5.860   6.343 -0.5696 -0.5802  0.2543
    9MOL   H521 5817   3.781   5.692   6.246 -0.7163 -1.2190 -3.0649
    9MOL   H522 5818   3.757   5.854   6.211 -0.6385  1.0311  2.6237
    9MOL   H523 5819   3.579   5.618   6.132 -1.3125  0.3975 -1.5325
    9MOL   H524 5820   3.698   5.693   6.026  0.2682  0.5153  0.4253
    9MOL   H525 5821   3.548   5.899   6.048  1.6392 -0.4122  0.4918
    9MOL   H526 5822   3.427   5.792   6.130  1.8960 -0.0009  2.1396
    9MOL   H527 5823   3.368   5.825   5.883 -0.9686 -0.7739  2.3779
    9MOL   H528 5824   3.408   5.661   5.907 -1.5900  0.4795 -2.1493
    9MOL   H529 5825   3.522   5.775   5.839 -1.9151 -1.8018 -1.6180
    9MOL   C530 5826   3.610   5.937   7.116  0.0126  0.1007  0.5325
    9MOL   C531 5827   3.537   5.822   7.190 -0.3447 -0.0836  0.2557
    9MOL   C532 5828   3.633   5.728   7.266  0.2998  0.5121 -0.3434
    9MOL   C533 5829   3.556   5.656   7.375 -0.0806  0.5092  0.3109
    9MOL   C534 5830   3.651   5.575   7.468  0.8271  0.0782 -0.3377
    9MOL   C535 5831   3.580   5.522   7.589  0.1647  0.1843 -0.1335
    9MOL   C536 5832   3.675   5.454   7.689 -0.1879 -1.2651 -0.2784
    9MOL   C537 5833   3.600   5.390   0.100 -0.4626  0.0416  0.1488
    9MOL   C538 5834   3.702   5.322   0.195  0.3339 -0.1436 -0.0491
    9MOL   C539 5835   3.651   5.260   0.325  0.2885  0.1838 -0.0060
    9MOL   C540 5836   3.560   5.135   0.305  0.2056 -0.8403 -0.6174
    9MOL   H541 5837   3.682   5.978   7.186  0.7499  0.8501 -0.6585
    9MOL   H542 5838   3.544   6.015   7.077 -1.2226 -1.8322 -1.3911
    9MOL   H543 5839   3.472   5.868   7.265 -0.9387  1.1274 -0.9834
    9MOL   H544 5840   3.721   5.781   7.301 -0.0987 -0.7207  2.6380
    9MOL   H545 5841   3.672   5.651   7.199 -1.2780 -0.6597  0.0578
    9MOL   H546 5842   3.487   5.582   7.335  2.0556 -1.2926 -0.1349
    9MOL   H547 5843   3.492   5.730   7.423 -2.0280  0.4305 -2.0408
    9MOL   H548 5844   3.729   5.642   7.505 -0.4353  0.8140  1.0264
    9MOL   H549 5845   3.703   5.499   7.409 -0.8726 -1.7095  0.4305
    9MOL   H550 5846   3.498   5.457   7.560  0.1205 -0.0662  0.5445
    9MOL   H551 5847   3.541   5.600   7.655 -0.0207  0.1401 -0.1924
    9MOL   H552 5848   3.746   5.526   0.027 -0.2268 -1.8717  0.8623
    9MOL   H553 5849   3.727   5.379   7.630 -0.2418  0.2736 -2.3463
    9MOL   H554 5850   3.531   5.314   0.062  0.2284 -0.7331  0.4431
    9MOL   H555 5851   3.549   5.467   0.158  0.6336  0.3107  0.7697
    9MOL   H556 5852   3.768   5.406   0.214 -1.4184  1.8341 -2.2629
    9MOL   H557 5853   3.760   5.241   0.150 -0.9917 -0.3332 -1.4774
    9MOL   H558 5854   3.593   5.331   0.383 -2.0700 -0.5590 -1.4252
    9MOL   H559 5855   3.731   5.221   0.388 -0.5618 -3.2569 -0.9717
    9MOL   H560 5856   3.519   5.096   0.398  2.4630 -2.0615 -0.1076
    9MOL   H561 5857   3.467   5.146   0.249 -0.4250  2.2852  0.8885
    9MOL   H562 5858   3.623   5.056   0.264  1.1734  0.2549 -1.2785
    9MOL   C563 5859   3.442   5.745   7.100 -0.0641  0.4236 -0.7025
    9MOL   C564 5860   3.300   5.802   7.068  0.3642  0.7973 -0.0569
    9MOL   C565 5861   3.201   5.809   7.194  0.2256  0.3745  0.0301
    9MOL   C566 5862   3.183   5.944   7.263 -0.1101 -0.2433  0.7496
    9MOL   C567 5863   3.089   5.947   7.379 -0.2783  0.2933 -0.1135
    9MOL   C568 5864   3.084   6.087   7.434 -0.1671  0.9581  0.1228
    9MOL   C569 5865   2.984   6.102   7.549 -0.4604  0.3779  0.0107
    9MOL   C570 5866   3.019   6.221   7.641 -0.0175 -0.5102 -0.0033
    9MOL   C571 5867   2.936   6.227   0.067  0.2957 -0.6260 -0.5800
    9MOL   C572 5868   2.963   6.112   0.163  1.3977 -0.0625 -0.0325
    9MOL   C573 5869   2.909   6.139   0.303  0.1857  0.2641  0.9248
    9MOL   H574 5870   3.428   5.643   7.135  0.8269  0.8104  0.8324
    9MOL   H575 5871   3.493   5.729   7.005  1.2194 -1.2610  0.2301
    9MOL   H576 5872   3.314   5.903   7.030 -2.3832  0.4090 -2.3405
    9MOL   H577 5873   3.241   5.734   7.263 -1.3484 -0.5912 -0.1010
    9MOL   H578 5874   3.106   5.772   7.157  2.3141 -2.0508 -3.1941
    9MOL   H579 5875   3.152   6.019   7.191 -0.9463 -0.7607  0.5622
    9MOL   H580 5876   3.283   5.969   7.299  1.2173  1.4467 -3.7794
    9MOL   H581 5877   3.127   5.871   7.448 -0.4705  0.1604 -0.1543
    9MOL   H582 5878   2.992   5.914   7.343 -1.0120 -0.1814  2.1690
    9MOL   H583 5879   3.183   6.101   7.477  0.6772 -0.0721 -1.4594
    9MOL   H584 5880   3.052   6.163   7.362 -0.2593  1.3874  0.6116
    9MOL   H585 5881   2.882   6.110   7.511 -2.1115  0.8646  4.2735
    9MOL   H586 5882   2.982   6.009   7.606 -0.6342  0.5509  0.2886
    9MOL   H587 5883   3.012   6.320   7.595 -2.7529 -0.3395  0.7152
    9MOL   H588 5884   3.121   6.210   7.679 -0.2042 -3.3323 -0.2280
    9MOL   H589 5885   2.833   6.240   0.032  0.1647  0.9143  0.3006
    9MOL   H590 5886   2.968   6.314   0.125 -0.0124  1.1043 -2.9374
    9MOL   H591 5887   3.071   6.107   0.177  1.5217  0.9723 -0.5523
    9MOL   H592 5888   2.924   6.020   0.118  1.0324  0.2839 -0.4305
    9MOL   H593 5889   2.879   6.044   0.347 -1.4773 -1.4505 -3.6240
    9MOL   H594 5890   2.980   6.208   0.350  1.3399  1.0717 -1.9209
    9MOL   H595 5891   2.820   6.202   0.301  1.1622  1.6247 -1.3275
    9MOL   C596 5892   3.241   5.718   6.955 -0.5531 -0.7607  0.1566
    9MOL   C597 5893   3.113   5.763   6.882  0.3309  0.0176  0.2385
    9MOL   C598 5894   3.079   5.662   6.771 -0.7673  0.0691 -0.0688
    9MOL   C599 5895   2.943   5.680   6.706 -0.0909  0.1796  0.3876
    9MOL   C600 5896   2.914   5.558   6.614  0.0892  0.4947 -0.1307
    9MOL   C601 5897   2.815   5.593   6.508 -0.4663 -0.4034  0.0970
    9MOL   C602 5898   2.809   5.478   6.410 -0.2330 -0.0481  0.0668
    9MOL   C603 5899   2.760   5.344   6.476  0.3096 -0.1777  0.7685
    9MOL   C604 5900   2.803   5.219   6.399 -0.2337 -0.0450  0.5759
    9MOL   C605 5901   2.755   5.096   6.472  0.0628  0.7895 -0.4939
    9MOL   C606 5902   2.758   4.981   6.373  0.7130  0.2293  1.0057
    9MOL   H607 5903   3.310   5.703   6.872 -1.1136 -1.7071 -0.1505
    9MOL   H608 5904   3.220   5.623   7.004  1.0009 -0.6417  1.0990
    9MOL   H609 5905   3.033   5.764   6.956 -0.3572 -0.7221 -0.4765
    9MOL   H610 5906   3.086   5.560   6.807  2.8478  0.0243 -0.6787
    9MOL   H611 5907   3.155   5.659   6.692 -2.5246  0.9494 -1.8482
    9MOL   H612 5908   2.940   5.774   6.651 -1.3598 -0.3678 -0.4874
    9MOL   H613 5909   2.858   5.679   6.775  1.0476 -0.2705  1.8199
    9MOL   H614 5910   2.895   5.471   6.678  2.9985  0.1805  0.3848
    9MOL   H615 5911   3.014   5.545   6.571 -0.0445 -0.5628 -0.1309
    9MOL   H616 5912   2.712   5.608   6.540  0.7065  2.7003  2.6292
    9MOL   H617 5913   2.835   5.689   6.462 -0.5416 -0.5991 -0.3446
    9MOL   H618 5914   2.903   5.471   6.356 -0.7170  0.0190 -0.8058
    9MOL   H619 5915   2.741   5.506   6.329  2.0911 -0.0707 -1.9388
    9MOL   H620 5916   2.652   5.351   6.489  0.4758 -0.9210  2.6976
    9MOL   H621 5917   2.803   5.326   6.574  2.4321 -1.5087 -0.3670
    9MOL   H622 5918   2.778   5.210   6.293  0.8402 -0.6374  0.3600
    9MOL   H623 5919   2.911   5.206   6.404 -0.0547 -0.7792 -3.1907
    9MOL   H624 5920   2.653   5.118   6.504  0.4567  1.3516  0.4086
    9MOL   H625 5921   2.827   5.086   6.554 -1.1321  0.4620  0.5340
    9MOL   H626 5922   2.852   4.962   6.322  0.9523 -0.7024  1.7944
    9MOL   H627 5923   2.728   4.892   6.427  1.5266  0.1866  1.3911
    9MOL   H628 5924   2.682   4.995   6.295  1.6101 -0.9260 -0.0843
    9MOL   C629 5925   3.119   5.911   6.838  0.1008 -0.1076  0.5135
    9MOL   C630 5926   3.245   5.951   6.743  0.0729 -0.1039 -1.1621
    9MOL   C631 5927   3.270   6.098   6.729 -0.1249 -0.7361 -0.1830
    9MOL   C632 5928   3.392   6.130   6.634 -0.0915  0.0841 -0.0706
    9MOL   C633 5929   3.397   6.281   6.621  0.4139 -0.9634 -0.0647
    9MOL   C634 5930   3.518   6.334   6.539  0.4604 -0.1386 -0.5624
    9MOL   C635 5931   3.512   6.489   6.529  1.1614  0.0399 -0.5650
    9MOL   C636 5932   3.651   6.561   6.496  0.2472  0.4370 -0.1358
    9MOL   C637 5933   3.703   6.516   6.363  0.0164 -0.3612  0.4735
    9MOL   C638 5934   3.839   6.573   6.334  0.1819  0.5897  0.7112
    9MOL   C639 5935   3.865   6.577   6.179 -0.6453 -0.0443 -0.7257
    9MOL   H640 5936   3.028   5.933   6.782  0.9006 -0.7640 -1.0613
    9MOL   H641 5937   3.115   5.970   6.930 -1.4568 -0.1543  0.4906
    9MOL   H642 5938   3.325   5.901   6.798  0.2365  1.7998  0.4001
    9MOL   H643 5939   3.178   6.136   6.684 -1.7595 -3.8848  0.3626
    9MOL   H644 5940   3.281   6.146   6.826 -0.8925 -1.1992  0.1359
    9MOL   H645 5941   3.395   6.076   6.540 -1.2695  0.0297 -0.0872
    9MOL   H646 5942   3.482   6.094   6.684  1.1359  1.8257 -0.9638
    9MOL   H647 5943   3.397   6.334   6.716  0.9199  1.7568 -1.5513
    9MOL   H648 5944   3.306   6.304   6.564  1.1709  0.3483 -0.7710
    9MOL   H649 5945   3.521   6.302   6.435 -0.5538  0.0072 -0.6446
    9MOL   H650 5946   3.604   6.286   6.585  0.1712  0.2119  0.3618
    9MOL   H651 5947   3.468   6.528   6.621  2.8918 -1.0493  0.7410
    9MOL   H652 5948   3.444   6.493   6.443 -0.9346 -1.0819  0.9932
    9MOL   H653 5949   3.721   6.550   6.579 -1.7829  0.3512  1.6143
    9MOL   H654 5950   3.635   6.669   6.495 -2.3795  0.0833  0.3230
    9MOL   H655 5951   3.634   6.543   6.283 -0.0048 -1.8098 -0.0189
    9MOL   H656 5952   3.719   6.408   6.366  3.6038  0.1449  1.9002
    9MOL   H657 5953   3.918   6.507   6.371 -1.0221 -1.2484  0.0684
    9MOL   H658 5954   3.836   6.675   6.370  0.8585  1.1269 -0.7312
    9MOL   H659 5955   3.943   6.649   6.151  1.2305 -1.4218  0.7816
    9MOL   H660 5956   3.774   6.613   6.132 -2.5621 -1.1907  1.9931
    9MOL   H661 5957   3.887   6.483   6.128  0.5602 -0.3930  0.4057
    9MOL   H662 5958   3.224   5.907   6.646 -1.1378 -1.3991 -0.3337
   10MOL     C1 5959   2.895   2.165   4.450 -0.4471  0.7638  0.1914
   10MOL     C2 5960   2.975   2.186   4.317 -0.4649  0.0431  0.6853
   10MOL     C3 5961   3.117   2.221   4.357 -0.8282  0.5324  0.1382
   10MOL     C4 5962   3.175   2.302   4.236 -0.8272  0.6890  0.5668
   10MOL     C5 5963   3.325   2.272   4.228 -1.2492  0.0198 -0.2153
   10MOL     C6 5964   3.401   2.387   4.150  0.3740  0.3129 -0.0042
   10MOL     C7 5965   3.553   2.379   4.190  0.1549  0.1468  0.5249
   10MOL     C8 5966   3.630   2.518   4.180  1.4422  0.4386  0.6046
   10MOL     C9 5967   3.788   2.529   4.184  0.4550  0.6455 -0.5084
   10MOL    C10 5968   3.836   2.672   4.152  0.9247  0.4412  0.1861
   10MOL    C11 5969   3.813   2.721   4.013 -0.1472  0.4445 -0.5178
   10MOL    H12 5970   2.895   2.247   4.521  1.9152  1.9455 -1.1053
   10MOL    H13 5971   2.936   2.080   4.505 -0.9153  1.4766  1.6725
   10MOL    H14 5972   2.933   2.275   4.270 -0.9405  1.3894  3.5401
   10MOL    H15 5973   3.166   2.124   4.367  0.3952  1.3378  2.2773
   10MOL    H16 5974   3.127   2.280   4.448  1.1874  0.8766 -0.2928
   10MOL    H17 5975   3.159   2.408   4.255  3.4149  1.8045 -1.6020
   10MOL    H18 5976   3.133   2.267   4.142  3.2279 -0.0899 -1.0503
   10MOL    H19 5977   3.367   2.267   4.328 -0.7745  3.9462 -0.1628
   10MOL    H20 5978   3.335   2.178   4.173 -3.8905 -1.3874  1.5809
   10MOL    H21 5979   3.367   2.483   4.189  2.6788  0.9951  0.3865
   10MOL    H22 5980   3.387   2.374   4.042 -4.1933 -0.1822  0.5415
   10MOL    H23 5981   3.554   2.335   4.290 -0.2267 -2.2451 -0.4841
   10MOL    H24 5982   3.602   2.307   4.124 -1.3441  0.2952 -0.7683
   10MOL    H25 5983   3.594   2.592   4.252 -1.3423 -0.0278 -0.2481
   10MOL    H26 5984   3.602   2.561   4.084  0.7417  1.2707  1.1730
   10MOL    H27 5985   3.832   2.446   4.127  3.3369 -0.0609  2.5693
   10MOL    H28 5986   3.814   2.511   4.288  0.1878  0.2018 -0.5161
   10MOL    H29 5987   3.940   2.683   4.180 -0.3319  1.9685  4.5844
   10MOL    H30 5988   3.785   2.742   4.218  2.2590  0.6210  1.0447
   10MOL    H31 5989   3.824   2.644   3.937  0.7280 -0.9929  1.0356
   10MOL    H32 5990   3.714   2.766   4.010  0.0577  0.9029 -0.5285
   10MOL    H33 5991   3.888   2.795   3.981  0.2190 -0.3432 -1.4996
   10MOL    H34 5992   2.790   2.146   4.426 -0.4043  1.0642 -0.2482
   10MOL    C35 5993   2.964   2.063   4.223  0.2860 -0.7343 -0.4540
   10MOL    C36 5994   2.839   2.056   4.132  0.2354 -0.2271  0.1749
   10MOL    C37 5995   2.868   2.149   4.007 -0.8217  0.8566  0.2606
   10MOL    C38 5996   2.755   2.173   3.911  0.2400  0.1104 -0.4769
   10MOL    C39 5997   2.644   2.257   3.981  0.7447  0.2069  0.2409
   10MOL    C40 5998   2.531   2.296   3.878 -0.1045  0.8706  0.6337
   10MOL    C41 5999   2.438   2.176   3.845  0.2508 -0.8853  0.0819
   10MOL    C42 6000   2.332   2.210   3.734  0.1687  0.0680  0.0746
   10MOL    C43 6001   2.378   2.257   3.595  0.1625 -0.5208  0.0912
   10MOL    C44 6002   2.266   2.286   3.494 -0.0138 -0.3781  0.2446
   10MOL    C45 6003   2.305   2.345   3.363 -0.5491  0.4926  0.3243
   10MOL    H46 6004   2.980   1.973   4.281  1.6302 -0.0813  0.2095
   10MOL    H47 6005   3.046   2.059   4.151  0.0435  0.8808 -0.8454
   10MOL    H48 6006   2.758   2.076   4.203  1.6784  1.4303  1.3970
   10MOL    H49 6007   2.909   2.243   4.044  2.5882 -1.5626  2.9518
   10MOL    H50 6008   2.958   2.112   3.958  0.1769  0.4841  2.3216
   10MOL    H51 6009   2.722   2.074   3.880 -0.6192 -0.3976  1.9162
   10MOL    H52 6010   2.796   2.218   3.820  0.1857  1.3129  0.0789
   10MOL    H53 6011   2.690   2.340   4.035 -1.6550  0.9485  1.1986
   10MOL    H54 6012   2.605   2.192   4.059  1.1977 -1.1781 -0.6663
   10MOL    H55 6013   2.579   2.330   3.786  2.2329 -4.1494 -0.1892
   10MOL    H56 6014   2.481   2.367   3.943  0.5977 -0.4252  2.6452
   10MOL    H57 6015   2.493   2.087   3.814  0.8541  0.0909 -1.7301
   10MOL    H58 6016   2.395   2.157   3.944  2.0132 -1.2236  0.7921
   10MOL    H59 6017   2.247   2.266   3.772 -0.3370  0.2517 -1.2832
   10MOL    H60 6018   2.272   2.121   3.715 -2.2480  1.5823  0.4423
   10MOL    H61 6019   2.427   2.167   3.557 -0.7897 -0.0279 -2.3567
   10MOL    H62 6020   2.440   2.346   3.605 -0.4947 -0.2756  2.5393
   10MOL    H63 6021   2.214   2.192   3.477 -1.7493  0.6535 -0.2816
   10MOL    H64 6022   2.203   2.357   3.547  1.4263  0.6631  0.5952
   10MOL    H65 6023   2.349   2.440   3.396 -0.1150  0.3203  0.2431
   10MOL    H66 6024   2.384   2.292   3.310  0.2918 -0.4606  2.4796
   10MOL    H67 6025   2.223   2.366   3.294  0.5321  0.9710 -0.8380
   10MOL    C68 6026   2.817   1.901   4.106 -0.4582 -0.1813 -0.1288
   10MOL    C69 6027   2.757   1.809   4.213  0.1362  0.2924  0.4189
   10MOL    C70 6028   2.614   1.859   4.258  0.0631  0.7544  1.0614
   10MOL    C71 6029   2.502   1.882   4.155  0.2308  0.5173 -0.0915
   10MOL    C72 6030   2.377   1.934   4.217  0.1289  0.7492 -0.6738
   10MOL    C73 6031   2.250   1.942   4.121 -1.1886 -0.3009 -0.5817
   10MOL    C74 6032   2.117   1.998   4.172 -0.6065 -0.1120 -0.0800
   10MOL    C75 6033   2.115   2.140   4.218 -0.6640 -0.6758 -0.0654
   10MOL    C76 6034   1.969   2.189   4.253  0.5357 -0.4153 -0.0483
   10MOL    C77 6035   1.974   2.311   4.337  0.0674  0.6058 -0.5757
   10MOL    C78 6036   1.838   2.361   4.390  0.3212 -0.0354  0.0927
   10MOL    H79 6037   2.909   1.850   4.078  0.2208  0.8424  0.2269
   10MOL    H80 6038   2.748   1.888   4.022 -0.3871  0.3132 -0.2608
   10MOL    H81 6039   2.820   1.810   4.301  1.1669 -0.3413 -0.3067
   10MOL    H82 6040   2.644   1.944   4.320  2.4688  2.0847 -1.7919
   10MOL    H83 6041   2.584   1.776   4.321  1.1110 -1.6644 -1.5589
   10MOL    H84 6042   2.542   1.948   4.078 -0.4867  0.1068 -0.8177
   10MOL    H85 6043   2.486   1.782   4.116  2.4440 -0.3934  1.2245
   10MOL    H86 6044   2.399   2.032   4.259  1.7138  0.6849 -1.3556
   10MOL    H87 6045   2.352   1.874   4.305 -0.7520  0.6570 -0.9748
   10MOL    H88 6046   2.286   2.009   4.042  0.3162 -0.6764 -0.2427
   10MOL    H89 6047   2.234   1.844   4.078 -1.3542 -1.0732  1.2033
   10MOL    H90 6048   2.063   1.929   4.237 -1.2813  1.1498  0.7154
   10MOL    H91 6049   2.049   2.007   4.087 -1.0739  3.5826  0.6063
   10MOL    H92 6050   2.188   2.153   4.298 -0.9468 -0.2071  0.1152
   10MOL    H93 6051   2.156   2.204   4.140  0.8352 -1.4157  0.0835
   10MOL    H94 6052   1.910   2.194   4.162  2.5437 -1.5330 -1.4532
   10MOL    H95 6053   1.918   2.108   4.305  0.5600  0.7246  1.7903
   10MOL    H96 6054   2.036   2.282   4.422 -1.9719 -0.8687  0.4371
   10MOL    H97 6055   2.025   2.396   4.291  1.7232  1.2834  2.3862
   10MOL    H98 6056   1.792   2.413   4.307 -0.7167 -0.8411  0.1599
   10MOL    H99 6057   1.853   2.444   4.460  0.4212 -0.8997  1.1153
   10MOL   H100 6058   1.769   2.281   4.418  0.1050 -0.7624 -2.3749
   10MOL   C101 6059   2.747   1.662   4.157 -0.1013  0.3310 -0.3594
   10MOL   C102 6060   2.864   1.565   4.191  0.2234 -0.5138  0.3715
   10MOL   C103 6061   2.960   1.568   4.069  0.0866 -0.4152 -0.7160
   10MOL   C104 6062   3.101   1.504   4.084  0.4031 -0.0017 -0.0639
   10MOL   C105 6063   3.198   1.526   3.962 -0.3486 -0.5555 -0.1274
   10MOL   C106 6064   3.344   1.495   3.994 -0.0420 -0.0570 -0.0673
   10MOL   C107 6065   3.438   1.505   3.874 -0.2943 -0.3687 -0.2254
   10MOL   C108 6066   3.586   1.465   3.894  0.6216 -0.0916  0.1850
   10MOL   C109 6067   3.665   1.570   3.962 -0.4848 -0.6740  0.3574
   10MOL   C110 6068   3.777   1.502   4.050  0.1282 -0.0863  0.4019
   10MOL   C111 6069   3.872   1.614   4.093 -0.3612  0.2205  0.1285
   10MOL   H112 6070   2.646   1.627   4.182 -0.3459  1.0676 -0.2855
   10MOL   H113 6071   2.728   1.688   4.053  1.5931  1.8054 -0.3210
   10MOL   H114 6072   2.911   1.595   4.285  1.9524  0.9781 -0.9329
   10MOL   H115 6073   2.901   1.521   3.990 -0.3708 -0.8927 -0.1012
   10MOL   H116 6074   2.960   1.672   4.037  3.8502 -0.9427 -2.7146
   10MOL   H117 6075   3.160   1.544   4.168  1.8578  1.4119 -1.7221
   10MOL   H118 6076   3.097   1.398   4.105 -0.6087 -0.4221 -2.3352
   10MOL   H119 6077   3.160   1.475   3.874  0.7505  0.1155 -0.9959
   10MOL   H120 6078   3.176   1.629   3.935  1.5937 -0.1236 -0.1646
   10MOL   H121 6079   3.367   1.582   4.056 -0.0700 -0.7229  0.8991
   10MOL   H122 6080   3.355   1.395   4.036  0.4037 -0.1576 -0.4144
   10MOL   H123 6081   3.428   1.606   3.834 -2.0641 -1.1320 -1.8014
   10MOL   H124 6082   3.388   1.449   3.795 -1.4185 -0.6768  0.6845
   10MOL   H125 6083   3.595   1.376   3.955 -1.0149 -0.7031 -0.4439
   10MOL   H126 6084   3.630   1.446   3.796  0.7119 -0.2656  0.2580
   10MOL   H127 6085   3.706   1.646   3.896 -1.0172  0.0166  0.8181
   10MOL   H128 6086   3.593   1.614   4.031 -1.6750  0.1658 -1.4062
   10MOL   H129 6087   3.835   1.433   3.988  0.8824  2.3526 -1.6613
   10MOL   H130 6088   3.735   1.437   4.127  2.7632 -1.9631  0.3305
   10MOL   H131 6089   3.814   1.690   4.145 -1.8318 -1.6519  1.3057
   10MOL   H132 6090   3.948   1.590   4.167  0.7618  1.8575 -0.4614
   10MOL   H133 6091   3.924   1.669   4.015  0.3932  0.5450  0.8520
   10MOL   C134 6092   2.813   1.422   4.218 -0.3091  0.4835 -0.7798
   10MOL   C135 6093   2.729   1.400   4.344 -0.2254  0.0671  0.2173
   10MOL   C136 6094   2.800   1.410   4.477 -0.6435  0.1636 -0.1554
   10MOL   C137 6095   2.720   1.425   4.609  0.2501 -0.4438  0.7859
   10MOL   C138 6096   2.677   1.570   4.633  0.2939 -0.2787  0.2393
   10MOL   C139 6097   2.571   1.588   4.733  0.7166 -0.1873 -0.3821
   10MOL   C140 6098   2.548   1.743   4.752  0.1170  0.6586  0.9349
   10MOL   C141 6099   2.473   1.806   4.635 -0.2068  1.1121  0.1397
   10MOL   C142 6100   2.429   1.952   4.667 -0.1628 -0.3330  0.1339
   10MOL   C143 6101   2.369   2.040   4.559  0.2690  0.3441  0.7785
   10MOL   C144 6102   2.338   2.186   4.607  0.3196 -0.4902 -0.3277
   10MOL   H145 6103   2.762   1.394   4.126 -1.5846 -0.9750  0.3413
   10MOL   H146 6104   2.896   1.352   4.224 -0.6966  0.0924  0.0890
   10MOL   H147 6105   2.656   1.480   4.335  0.1501  0.5175  1.0918
   10MOL   H148 6106   2.874   1.489   4.472  1.5617 -1.8218  0.0276
   10MOL   H149 6107   2.841   1.309   4.485 -0.7141  0.3291  2.8813
   10MOL   H150 6108   2.634   1.359   4.619 -0.7139  0.1813 -2.6936
   10MOL   H151 6109   2.774   1.392   4.698  0.9193 -1.3946  0.0385
   10MOL   H152 6110   2.758   1.632   4.673  1.0768 -2.5748  2.3182
   10MOL   H153 6111   2.660   1.620   4.538  1.4908 -0.4516 -0.0761
   10MOL   H154 6112   2.479   1.553   4.686  1.4788  1.2617 -3.0635
   10MOL   H155 6113   2.592   1.538   4.828  1.5559 -0.5812 -0.7705
   10MOL   H156 6114   2.491   1.773   4.840 -0.0457  0.8491  0.7644
   10MOL   H157 6115   2.639   1.802   4.759 -0.1728  1.3946 -1.2296
   10MOL   H158 6116   2.527   1.800   4.540  1.1175 -1.9277  1.0344
   10MOL   H159 6117   2.387   1.741   4.619  0.2614  0.6125 -0.3571
   10MOL   H160 6118   2.367   1.943   4.756 -1.1613  1.7522 -0.3123
   10MOL   H161 6119   2.518   2.009   4.695 -0.0531  0.2732 -1.3828
   10MOL   H162 6120   2.438   2.042   4.475 -0.5005 -0.8936  0.1021
   10MOL   H163 6121   2.281   1.989   4.521  0.5540  0.1768  0.3396
   10MOL   H164 6122   2.425   2.229   4.657  0.4229 -0.6373 -0.3828
   10MOL   H165 6123   2.257   2.192   4.680  0.4982 -0.1646 -0.1548
   10MOL   H166 6124   2.317   2.247   4.519  1.4880 -0.4029 -0.5572
   10MOL   C167 6125   2.646   1.269   4.327  0.0574 -0.0750 -0.3245
   10MOL   C168 6126   2.531   1.257   4.214 -0.9331 -0.5837 -0.0419
   10MOL   C169 6127   2.448   1.385   4.215 -0.5709 -0.7711  0.4111
   10MOL   C170 6128   2.375   1.405   4.349  0.4758 -0.1484 -0.4066
   10MOL   C171 6129   2.292   1.528   4.373  0.4168  0.1853 -0.1249
   10MOL   C172 6130   2.159   1.533   4.291  0.0683  0.3893 -0.9979
   10MOL   C173 6131   2.085   1.665   4.329  0.9680  0.2968 -0.3131
   10MOL   C174 6132   2.020   1.687   4.466 -0.6515  0.2899 -0.3562
   10MOL   C175 6133   1.977   1.835   4.481 -0.4055 -0.0182 -0.7714
   10MOL   C176 6134   1.951   1.875   4.618  0.1853 -0.0686 -0.5806
   10MOL   C177 6135   1.918   2.017   4.638 -0.1885 -0.0662 -0.5248
   10MOL   H178 6136   2.722   1.192   4.313  0.7568  0.5106  0.2082
   10MOL   H179 6137   2.608   1.249   4.427 -0.5198  1.0192 -0.3187
   10MOL   H180 6138   2.571   1.266   4.113  0.2772 -0.2644  0.4555
   10MOL   H181 6139   2.369   1.373   4.140  1.4605  0.6046 -1.9990
   10MOL   H182 6140   2.508   1.468   4.180 -2.4732  0.1154 -0.8125
   10MOL   H183 6141   2.312   1.317   4.360  0.0081 -0.0523 -2.1253
   10MOL   H184 6142   2.440   1.398   4.436 -0.9494  0.1452  0.6950
   10MOL   H185 6143   2.350   1.616   4.344  0.6894 -0.4033 -1.3935
   10MOL   H186 6144   2.270   1.552   4.477  1.6161 -0.8181  0.3775
   10MOL   H187 6145   2.176   1.513   4.185  1.3034 -0.6745 -0.6156
   10MOL   H188 6146   2.096   1.446   4.313  1.7580 -0.8479 -0.9403
   10MOL   H189 6147   2.007   1.685   4.256  1.6061  0.1448 -1.0495
   10MOL   H190 6148   2.157   1.745   4.309  0.9119  0.5305  0.4028
   10MOL   H191 6149   1.940   1.618   4.493  0.1765 -0.6201 -0.1984
   10MOL   H192 6150   2.102   1.671   4.535  1.0974 -1.6582 -2.8155
   10MOL   H193 6151   1.898   1.850   4.408  0.2215 -0.4654 -1.5460
   10MOL   H194 6152   2.059   1.896   4.444  0.6204 -0.5156  0.6106
   10MOL   H195 6153   2.042   1.848   4.671 -1.7440 -2.7268  1.4768
   10MOL   H196 6154   1.868   1.818   4.660 -1.2934  1.4043 -1.4282
   10MOL   H197 6155   1.815   2.032   4.604 -0.8452  1.3163  1.9157
   10MOL   H198 6156   1.971   2.084   4.570 -2.5862  0.4315 -1.9699
   10MOL   H199 6157   1.919   2.042   4.744  1.5662 -0.3695 -0.4559
   10MOL   C200 6158   2.464   1.117   4.220  0.5088  0.2561  0.1595
   10MOL   C201 6159   2.560   0.998   4.191 -0.2214 -0.2916 -0.5007
   10MOL   C202 6160   2.586   0.997   4.040 -0.8851 -0.3308  0.3527
   10MOL   C203 6161   2.708   0.921   3.987 -0.2021  0.0034  0.1501
   10MOL   C204 6162   2.737   0.944   3.836 -0.7283  0.3268  0.2214
   10MOL   C205 6163   2.889   0.911   3.798  0.5200  1.4262  0.0740
   10MOL   C206 6164   2.968   1.036   3.838  0.2907 -0.2932 -0.5586
   10MOL   C207 6165   3.119   1.009   3.805  0.3002  0.5103 -0.1517
   10MOL   C208 6166   3.212   1.115   3.844  0.0994 -0.8190 -0.1162
   10MOL   C209 6167   3.356   1.101   3.778  0.1113  0.3364  0.0123
   10MOL   C210 6168   3.367   1.126   3.629  0.3215  0.3473 -0.0526
   10MOL   H211 6169   2.425   1.102   4.321  3.0404  0.1472  1.1678
   10MOL   H212 6170   2.379   1.105   4.153  0.9393 -1.2769 -0.1293
   10MOL   H213 6171   2.660   1.011   4.233  0.0931 -1.0147 -1.0243
   10MOL   H214 6172   2.601   1.096   3.997  1.5270 -1.3225 -1.2039
   10MOL   H215 6173   2.501   0.953   3.988 -0.3179 -0.8896 -0.1125
   10MOL   H216 6174   2.712   0.813   3.997 -1.8462 -0.1892 -1.0084
   10MOL   H217 6175   2.789   0.942   4.057  1.3658 -0.1865 -1.5763
   10MOL   H218 6176   2.706   1.040   3.793  0.1102  0.2064 -0.6650
   10MOL   H219 6177   2.669   0.883   3.778 -1.8043  1.6032  0.1280
   10MOL   H220 6178   2.929   0.816   3.834  0.1537  1.9250  1.8479
   10MOL   H221 6179   2.898   0.902   3.690  2.5606 -2.5972  0.4616
   10MOL   H222 6180   2.966   1.055   3.945  0.7710  1.1313 -0.7959
   10MOL   H223 6181   2.938   1.125   3.781  0.9227 -1.8927 -3.4984
   10MOL   H224 6182   3.129   0.984   3.699  0.0781  1.2311 -0.3470
   10MOL   H225 6183   3.139   0.912   3.849  1.4296  0.6243 -0.3933
   10MOL   H226 6184   3.224   1.096   3.951  0.4604  2.0484  0.4068
   10MOL   H227 6185   3.179   1.216   3.822 -0.0670 -0.4879  1.6009
   10MOL   H228 6186   3.426   1.161   3.836  0.0333  0.5579 -0.1198
   10MOL   H229 6187   3.405   1.004   3.782 -0.2233  0.1637 -0.0154
   10MOL   H230 6188   3.322   1.042   3.576  1.0755 -0.7480  1.0065
   10MOL   H231 6189   3.473   1.137   3.608  0.9885 -2.5384  1.5413
   10MOL   H232 6190   3.322   1.221   3.600 -0.8732 -0.9076 -2.3859
   10MOL   C233 6191   2.496   0.863   4.235  0.0844 -0.0080 -0.0143
   10MOL   C234 6192   2.455   0.836   4.380 -0.4671 -0.2052 -0.4875
   10MOL   C235 6193   2.579   0.866   4.481  0.2189 -0.6238 -0.2884
   10MOL   C236 6194   2.543   0.905   4.621 -0.2654  0.4093  0.1069
   10MOL   C237 6195   2.666   0.975   4.692  0.1647 -0.2421  0.0258
   10MOL   C238 6196   2.616   1.023   4.830 -0.6452  0.2255  0.2181
   10MOL   C239 6197   2.567   1.170   4.832  0.0302  0.2581  0.3242
   10MOL   C240 6198   2.554   1.234   4.972 -0.2413  0.2232 -0.3510
   10MOL   C241 6199   2.460   1.160   5.069  0.3117  0.4720  0.5303
   10MOL   C242 6200   2.393   1.245   5.189  0.5526  0.1220 -0.4385
   10MOL   C243 6201   2.500   1.321   5.269 -0.6073  0.2602 -0.8147
   10MOL   H244 6202   2.570   0.788   4.206  0.9094  1.5126 -1.9621
   10MOL   H245 6203   2.407   0.845   4.175  0.3708 -1.2148 -0.0954
   10MOL   H246 6204   2.369   0.900   4.400 -0.5741 -0.4372 -0.2126
   10MOL   H247 6205   2.645   0.780   4.487  0.8392 -0.1524 -0.3442
   10MOL   H248 6206   2.639   0.947   4.441 -0.0741 -0.5731 -0.6322
   10MOL   H249 6207   2.511   0.818   4.678  1.8516  0.9638  2.2209
   10MOL   H250 6208   2.464   0.978   4.609 -2.6189 -1.7565  1.9236
   10MOL   H251 6209   2.705   1.059   4.634  0.5961 -2.1449 -2.4792
   10MOL   H252 6210   2.747   0.902   4.698  0.2138 -0.3184 -1.5104
   10MOL   H253 6211   2.696   1.008   4.902 -1.0367 -1.6059  0.2920
   10MOL   H254 6212   2.536   0.957   4.865 -0.8564 -0.5895 -1.7074
   10MOL   H255 6213   2.642   1.231   4.781 -0.9321  0.0332 -1.4198
   10MOL   H256 6214   2.475   1.166   4.773  0.2232 -0.6894  0.0868
   10MOL   H257 6215   2.645   1.262   5.025 -0.7945  0.4023  0.5090
   10MOL   H258 6216   2.501   1.327   4.954  2.0125  2.2875  3.3261
   10MOL   H259 6217   2.379   1.134   5.001  0.7454 -1.2618  0.6520
   10MOL   H260 6218   2.502   1.069   5.111 -1.4951 -1.2875 -1.3159
   10MOL   H261 6219   2.349   1.176   5.260  0.3016 -0.8213 -1.4886
   10MOL   H262 6220   2.327   1.325   5.156 -0.1835 -0.7533 -1.1188
   10MOL   H263 6221   2.574   1.249   5.302 -0.3780  0.5782 -0.6379
   10MOL   H264 6222   2.458   1.375   5.354 -1.2628  0.9232 -1.5518
   10MOL   H265 6223   2.542   1.393   5.199  1.4189  0.0236  0.1288
   10MOL   C266 6224   2.397   0.695   4.401  0.0963 -0.8965 -0.0820
   10MOL   C267 6225   2.259   0.659   4.325 -0.5363  0.4455 -0.0983
   10MOL   C268 6226   2.137   0.745   4.380 -1.1888 -0.1927 -0.7349
   10MOL   C269 6227   2.092   0.874   4.303  0.2901  0.7279  0.0527
   10MOL   C270 6228   1.988   0.969   4.361 -0.1107  0.1877 -0.6715
   10MOL   C271 6229   1.961   1.079   4.257  0.0304 -0.2332 -0.1009
   10MOL   C272 6230   1.862   1.188   4.311 -0.6980 -0.0271  0.3039
   10MOL   C273 6231   1.837   1.301   4.204  0.2016  0.1586 -0.4130
   10MOL   C274 6232   1.764   1.429   4.260 -0.4031 -0.0298  0.8746
   10MOL   C275 6233   1.756   1.548   4.158  0.0973  0.1671 -0.0782
   10MOL   C276 6234   1.678   1.673   4.211 -0.1824 -0.1596 -0.0313
   10MOL   H277 6235   2.369   0.682   4.505  0.9153 -1.3799  0.0757
   10MOL   H278 6236   2.476   0.624   4.377 -0.8411 -2.5091  1.4484
   10MOL   H279 6237   2.276   0.682   4.219  1.4576 -2.3993 -0.4357
   10MOL   H280 6238   2.047   0.683   4.377 -2.0705  1.0890 -1.9616
   10MOL   H281 6239   2.163   0.776   4.481 -0.5812 -0.1868 -0.8929
   10MOL   H282 6240   2.063   0.842   4.203  2.3499  0.1880 -0.3974
   10MOL   H283 6241   2.190   0.923   4.296  1.8564 -2.4190 -1.1917
   10MOL   H284 6242   2.026   1.010   4.454 -2.9138 -0.5877  0.8832
   10MOL   H285 6243   1.899   0.915   4.393 -0.8854  1.1161 -1.2261
   10MOL   H286 6244   1.931   1.039   4.160 -0.1160 -0.3535 -0.0050
   10MOL   H287 6245   2.052   1.135   4.238  1.0573 -0.8746  2.6883
   10MOL   H288 6246   1.770   1.132   4.332 -0.6403  0.0149  0.6648
   10MOL   H289 6247   1.904   1.227   4.403  0.3365 -0.6722  0.1119
   10MOL   H290 6248   1.782   1.251   4.124  1.6651  0.3083 -1.5365
   10MOL   H291 6249   1.934   1.342   4.176  0.1433  0.5454 -0.0550
   10MOL   H292 6250   1.666   1.400   4.297 -0.6612 -0.3602 -0.0564
   10MOL   H293 6251   1.821   1.466   4.346  2.1224 -1.1058 -0.2929
   10MOL   H294 6252   1.685   1.515   4.081  0.9977 -0.1711 -0.7757
   10MOL   H295 6253   1.855   1.560   4.115  1.1087 -1.2226  1.7817
   10MOL   H296 6254   1.674   1.733   4.121  0.3871  2.1754  1.4764
   10MOL   H297 6255   1.722   1.733   4.290 -4.3572 -0.3719  2.6691
   10MOL   H298 6256   1.581   1.632   4.241  0.5705 -1.7637  0.2539
   10MOL   C299 6257   2.234   0.504   4.334 -0.6991 -0.6512  0.3782
   10MOL   C300 6258   2.154   0.446   4.216  0.1451  0.4481  0.0593
   10MOL   C301 6259   2.087   0.308   4.246  0.9217  0.0399 -0.3656
   10MOL   C302 6260   2.184   0.198   4.292  0.1240 -0.8968  0.1070
   10MOL   C303 6261   2.120   0.072   4.366 -0.5884  0.0419 -0.0619
   10MOL   C304 6262   2.042   7.685   4.264  0.8522  0.3381  0.5558
   10MOL   C305 6263   1.894   0.022   4.237  0.2896 -0.4387 -0.5107
   10MOL   C306 6264   1.812   7.638   4.146 -0.2981  0.0897  0.5096
   10MOL   C307 6265   1.675   7.694   4.116  0.3263  0.5740  0.4207
   10MOL   C308 6266   1.590   7.603   4.021 -0.5906  0.6194 -0.6182
   10MOL   C309 6267   1.450   7.659   4.001  0.1295  0.2856  0.5662
   10MOL   H310 6268   2.184   0.476   4.427 -2.7561 -1.0460 -0.8186
   10MOL   H311 6269   2.330   0.452   4.334 -0.9855 -1.2345  2.2245
   10MOL   H312 6270   2.075   0.520   4.202 -1.5072 -1.0177  1.4195
   10MOL   H313 6271   2.016   0.332   4.325 -0.0043 -0.6103 -0.9864
   10MOL   H314 6272   2.031   0.276   4.158  1.3218 -1.5422 -0.0621
   10MOL   H315 6273   2.248   0.170   4.208  0.7699  0.6966  0.0487
   10MOL   H316 6274   2.251   0.247   4.363  0.0135  0.3598 -0.6374
   10MOL   H317 6275   2.197   0.003   4.401 -0.8056 -0.8970 -1.3885
   10MOL   H318 6276   2.064   0.110   4.451 -1.1381  0.2001 -0.4952
   10MOL   H319 6277   2.042   7.589   4.317 -0.7350 -0.0274 -0.0764
   10MOL   H320 6278   2.093   7.660   4.171  0.9309  1.9038  0.1693
   10MOL   H321 6279   1.837   0.041   4.327  1.6292  2.8200 -0.2654
   10MOL   H322 6280   1.896   0.119   4.188 -1.9811  0.0215  0.2797
   10MOL   H323 6281   1.807   7.541   4.196 -0.7462 -1.1048 -1.8031
   10MOL   H324 6282   1.862   7.615   4.052 -1.9316 -1.2342 -0.0551
   10MOL   H325 6283   1.680   0.091   4.074  2.1870 -0.0660 -0.9768
   10MOL   H326 6284   1.624   0.003   4.212 -1.0010 -2.7755  0.1929
   10MOL   H327 6285   1.580   7.506   4.069  0.3878  1.8650  2.2298
   10MOL   H328 6286   1.634   7.590   3.922 -0.0075 -0.5490 -0.2054
   10MOL   H329 6287   1.456   0.059   3.966  1.5363 -0.1216 -0.4359
   10MOL   H330 6288   1.393   7.616   3.919  1.9388 -0.8217 -0.1576
   10MOL   H331 6289   1.399   7.641   4.095  0.2689 -2.3714  0.1795
   10MOL   C332 6290   2.251   0.440   4.099  0.3945 -0.4736 -0.2511
   10MOL   C333 6291   2.201   0.425   3.961  0.2478 -0.2698  0.2495
   10MOL   C334 6292   2.199   0.275   3.926  0.7776  0.2407  0.4061
   10MOL   C335 6293   2.136   0.254   3.788 -0.0948  0.2942  0.2721
   10MOL   C336 6294   2.145   0.111   3.740  0.3259 -0.4705 -0.0076
   10MOL   C337 6295   2.060   0.007   3.822  0.1969 -0.2130 -0.9938
   10MOL   C338 6296   2.022   7.598   3.728  0.3922 -0.5348 -0.6168
   10MOL   C339 6297   1.939   7.483   3.788 -0.1701  0.5099 -0.3267
   10MOL   C340 6298   1.918   7.380   3.672 -0.4914  0.7405  0.1166
   10MOL   C341 6299   1.817   7.273   3.709 -0.3146  0.1742 -0.7459
   10MOL   C342 6300   1.794   7.156   3.619  0.0072 -0.0089 -0.0536
   10MOL   H343 6301   2.313   0.530   4.105 -0.9535  0.4181  0.7063
   10MOL   H344 6302   2.328   0.369   4.130  1.1701  0.2851 -0.4144
   10MOL   H345 6303   2.098   0.459   3.948 -0.4843 -2.1989  0.7683
   10MOL   H346 6304   2.161   0.201   3.997  0.3897  0.9557  0.9540
   10MOL   H347 6305   2.302   0.241   3.927  0.0251 -2.1173  0.3341
   10MOL   H348 6306   2.036   0.293   3.808  0.4429  1.8611 -0.0044
   10MOL   H349 6307   2.166   0.315   3.703 -1.7240  0.6191 -0.0917
   10MOL   H350 6308   2.104   0.114   3.639  0.0720  2.1196  0.1442
   10MOL   H351 6309   2.249   0.079   3.743  0.0680 -1.5186 -1.6104
   10MOL   H352 6310   1.961   0.052   3.834  0.1369 -0.5951 -0.0740
   10MOL   H353 6311   2.094   7.685   3.922  1.2992 -0.2805 -1.3734
   10MOL   H354 6312   2.116   7.569   3.683  0.6619 -1.6192  0.6045
   10MOL   H355 6313   1.961   7.649   3.653  1.6645  0.5103 -0.9405
   10MOL   H356 6314   1.971   7.436   3.881 -0.3295  3.1171  1.0754
   10MOL   H357 6315   1.841   7.520   3.816  0.1047 -1.1351  3.0494
   10MOL   H358 6316   2.006   7.325   3.642 -2.7666 -2.4356 -1.0050
   10MOL   H359 6317   1.878   7.424   3.580  2.4226 -2.1467 -2.6371
   10MOL   H360 6318   1.718   7.316   3.723  0.4070  1.8615 -0.6549
   10MOL   H361 6319   1.847   7.233   3.806 -2.0370 -0.7223 -0.5773
   10MOL   H362 6320   1.720   7.090   3.665  0.0442  1.9291  2.9646
   10MOL   H363 6321   1.769   7.174   3.515  1.7663 -0.0799 -0.5063
   10MOL   H364 6322   1.885   7.096   3.616  0.1145  0.0511  1.6550
   10MOL   C365 6323   2.292   0.504   3.868  0.0608 -0.0852 -0.8994
   10MOL   C366 6324   2.263   0.657   3.860 -0.8903  0.3546  1.2298
   10MOL   C367 6325   2.392   0.715   3.790  0.7715 -0.3810  1.0600
   10MOL   C368 6326   2.408   0.681   3.641 -0.4382  0.6583 -0.0339
   10MOL   C369 6327   2.501   0.777   3.557  0.6448 -0.5428  0.5252
   10MOL   C370 6328   2.451   0.919   3.563  0.7346  0.3348  0.5700
   10MOL   C371 6329   2.482   1.000   3.438  0.3281 -0.3280 -0.0470
   10MOL   C372 6330   2.432   1.144   3.447  0.2498  0.3898  0.6483
   10MOL   C373 6331   2.442   1.227   3.318  0.0221 -0.1322 -0.7418
   10MOL   C374 6332   2.361   1.360   3.324 -0.8089 -0.5473  1.1949
   10MOL   C375 6333   2.398   1.460   3.207 -0.1547  0.4866 -0.0849
   10MOL   H376 6334   2.397   0.491   3.896 -0.7909 -0.2357  2.3461
   10MOL   H377 6335   2.280   0.469   3.765  0.1607 -1.5651 -0.4297
   10MOL   H378 6336   2.269   0.689   3.964  2.6213  1.1359  0.8522
   10MOL   H379 6337   2.485   0.698   3.843  1.4746  1.8519  0.6273
   10MOL   H380 6338   2.380   0.823   3.796 -0.9656 -0.5340  0.6213
   10MOL   H381 6339   2.311   0.683   3.591 -0.3446 -1.7218 -0.3873
   10MOL   H382 6340   2.455   0.583   3.642 -1.2633  0.1573 -3.6989
   10MOL   H383 6341   2.505   0.750   3.452  3.0272  2.2817 -0.1932
   10MOL   H384 6342   2.604   0.775   3.594  1.0969  3.6490 -0.2346
   10MOL   H385 6343   2.492   0.971   3.650 -1.7316  0.7212  1.5202
   10MOL   H386 6344   2.343   0.931   3.562  0.9552  2.8346  2.4122
   10MOL   H387 6345   2.589   1.010   3.423  0.1948  0.8703 -0.2101
   10MOL   H388 6346   2.434   0.952   3.352 -0.3315 -0.5586  0.4501
   10MOL   H389 6347   2.480   1.189   3.534 -0.5684  1.1746  0.6980
   10MOL   H390 6348   2.327   1.142   3.476  0.3791  3.3827  1.5580
   10MOL   H391 6349   2.543   1.231   3.277  0.4657 -1.3470  0.2281
   10MOL   H392 6350   2.396   1.174   3.234 -0.9930 -0.0903 -0.2209
   10MOL   H393 6351   2.255   1.351   3.349 -0.4133  0.5333  3.4085
   10MOL   H394 6352   2.391   1.415   3.413 -0.1074  0.0712  0.5816
   10MOL   H395 6353   2.505   1.476   3.190 -0.3238 -0.0700 -1.7955
   10MOL   H396 6354   2.355   1.558   3.229  0.3513  0.5518  0.6346
   10MOL   H397 6355   2.349   1.435   3.113 -1.2403 -1.8126  1.0580
   10MOL   C398 6356   2.130   0.696   3.798  0.1007 -0.8951  0.6826
   10MOL   C399 6357   2.101   0.848   3.778 -0.6210 -0.5439  0.0306
   10MOL   C400 6358   2.123   0.933   3.904  0.6289 -0.2126  0.0297
   10MOL   C401 6359   2.183   1.076   3.872 -0.4436  0.1670  0.3642
   10MOL   C402 6360   2.101   1.168   3.787 -0.1147 -0.6223  0.1302
   10MOL   C403 6361   1.987   1.238   3.852 -0.3306 -0.0327 -0.0112
   10MOL   C404 6362   1.873   1.287   3.754 -0.0401 -0.5199 -0.5026
   10MOL   C405 6363   1.755   1.356   3.828  0.0041  0.1482 -0.5050
   10MOL   C406 6364   1.655   1.412   3.734 -0.2084  0.0134  0.5030
   10MOL   C407 6365   1.709   1.487   3.611 -0.5295  0.2213 -0.1900
   10MOL   C408 6366   1.603   1.559   3.535  0.4368  0.0264 -0.3005
   10MOL   H409 6367   2.056   0.658   3.868 -0.9354  0.6292  0.4318
   10MOL   H410 6368   2.110   0.652   3.701  1.0160  1.0479 -0.4140
   10MOL   H411 6369   2.168   0.884   3.701  0.8629 -2.2324  0.5032
   10MOL   H412 6370   2.187   0.878   3.974 -0.5738 -3.0147 -0.9785
   10MOL   H413 6371   2.032   0.953   3.959  1.6836 -2.0623  2.5847
   10MOL   H414 6372   2.205   1.127   3.966  3.6150  1.6840 -1.3106
   10MOL   H415 6373   2.280   1.065   3.824 -0.4390 -1.0887  0.6477
   10MOL   H416 6374   2.167   1.249   3.757  0.3988 -1.3632 -0.7717
   10MOL   H417 6375   2.078   1.109   3.698  0.1884 -0.9549  0.2700
   10MOL   H418 6376   2.026   1.320   3.913  2.7196 -1.1832 -0.3193
   10MOL   H419 6377   1.936   1.169   3.921 -0.0526 -0.7629 -0.5269
   10MOL   H420 6378   1.922   1.356   3.685  2.4821 -1.8787 -0.1323
   10MOL   H421 6379   1.835   1.204   3.693 -1.0387 -1.6340  1.5825
   10MOL   H422 6380   1.793   1.435   3.893  2.4837 -0.5652 -1.0493
   10MOL   H423 6381   1.694   1.292   3.892 -0.9631  1.7499  0.2277
   10MOL   H424 6382   1.589   1.334   3.696 -0.5308  0.9349 -0.8717
   10MOL   H425 6383   1.600   1.479   3.799 -0.2602  1.2373 -0.7832
   10MOL   H426 6384   1.767   1.423   3.544 -0.2086 -1.5682  1.7337
   10MOL   H427 6385   1.784   1.558   3.646 -2.1111  2.3051 -0.9312
   10MOL   H428 6386   1.550   1.493   3.466 -1.6383  0.0681  1.1956
   10MOL   H429 6387   1.647   1.645   3.486 -0.0075  0.1735 -0.4499
   10MOL   H430 6388   1.529   1.601   3.604  0.6911 -0.4767  0.2809
   10MOL   C431 6389   1.952   0.865   3.719  0.1094  0.4426 -0.8784
   10MOL   C432 6390   1.921   0.832   3.570 -0.2239 -0.4340 -1.0056
   10MOL   C433 6391   2.027   0.894   3.478 -0.4901 -0.3300  0.3492
   10MOL   C434 6392   2.018   0.861   3.324 -0.4063 -0.3019  0.2479
   10MOL   C435 6393   1.986   0.995   3.248  0.4228 -0.3445  0.6717
   10MOL   C436 6394   2.108   1.085   3.219  0.6272  0.0622 -0.1720
   10MOL   C437 6395   2.056   1.210   3.160 -0.4261 -0.7560  0.9453
   10MOL   C438 6396   1.982   1.183   3.019 -0.1172  0.0041 -0.4891
   10MOL   C439 6397   1.969   1.307   2.928  0.3800 -0.4439 -0.2608
   10MOL   C440 6398   1.956   1.267   2.781  0.3835  1.2131 -0.2129
   10MOL   C441 6399   1.820   1.207   2.758 -0.0643 -0.0909 -0.0157
   10MOL   H442 6400   1.927   0.970   3.738  0.2396  0.6484 -1.7808
   10MOL   H443 6401   1.894   0.801   3.786  0.8472 -0.4393 -1.0750
   10MOL   H444 6402   1.933   0.724   3.567  1.8240 -0.2505  0.0466
   10MOL   H445 6403   2.047   1.000   3.496  0.2974 -0.5848  0.9738
   10MOL   H446 6404   2.118   0.850   3.519 -0.4182 -0.1818  0.3495
   10MOL   H447 6405   1.949   0.782   3.295  0.3627 -0.2108 -1.9108
   10MOL   H448 6406   2.116   0.830   3.287  0.3447  1.5040  0.6512
   10MOL   H449 6407   1.913   1.052   3.305 -0.1808 -1.4901  1.0595
   10MOL   H450 6408   1.936   0.967   3.155  0.9276  2.5194 -0.4968
   10MOL   H451 6409   2.164   1.033   3.141 -3.1791 -0.7630 -2.4833
   10MOL   H452 6410   2.157   1.106   3.314 -0.4857 -1.0146  0.6642
   10MOL   H453 6411   2.142   1.276   3.151 -0.5620 -0.7603 -0.5467
   10MOL   H454 6412   1.983   1.264   3.220 -1.6347 -0.5650 -0.6531
   10MOL   H455 6413   2.033   1.105   2.962  0.1883 -1.1148  1.2541
   10MOL   H456 6414   1.885   1.136   3.037  0.9947 -1.3583  2.4692
   10MOL   H457 6415   2.048   1.380   2.946  0.0206 -0.1079 -0.0510
   10MOL   H458 6416   1.885   1.366   2.964  0.5514  0.3108 -1.0879
   10MOL   H459 6417   2.042   1.201   2.766 -0.4785  0.1403 -0.4981
   10MOL   H460 6418   1.963   1.352   2.713  1.0261  0.6824 -0.8218
   10MOL   H461 6419   1.738   1.271   2.791  1.0752  1.0983  0.5511
   10MOL   H462 6420   1.789   1.204   2.653 -0.3730  0.0586  0.0731
   10MOL   H463 6421   1.813   1.106   2.798 -1.4560  0.0544  0.1414
   10MOL   C464 6422   1.776   0.879   3.543  0.2217 -0.0476 -0.3281
   10MOL   C465 6423   1.670   0.769   3.529  0.2195  0.0593 -0.1156
   10MOL   C466 6424   1.688   0.685   3.403 -0.1129 -0.3283  0.2352
   10MOL   C467 6425   1.635   0.747   3.278 -0.9542 -0.0581  0.2047
   10MOL   C468 6426   1.662   0.663   3.151  0.0000 -0.5561 -0.1789
   10MOL   C469 6427   1.619   0.728   3.018  0.1677 -0.6640 -0.8553
   10MOL   C470 6428   1.648   0.626   2.908 -0.2665 -0.4565  0.5627
   10MOL   C471 6429   1.606   0.671   2.771 -0.0697  0.5804 -0.2574
   10MOL   C472 6430   1.631   0.571   2.658 -0.1662  0.6225  0.1372
   10MOL   C473 6431   1.608   0.629   2.520  0.2471  0.8940 -0.4009
   10MOL   C474 6432   1.576   0.514   2.418  0.1935  0.4401 -0.2921
   10MOL   H475 6433   1.755   0.938   3.454  0.5645  1.6968  0.7235
   10MOL   H476 6434   1.732   0.935   3.626  1.7966  0.5141  0.1358
   10MOL   H477 6435   1.572   0.816   3.520  0.6274  1.2063  1.2766
   10MOL   H478 6436   1.632   0.593   3.419 -1.7677  0.5574 -0.3766
   10MOL   H479 6437   1.792   0.654   3.392 -0.3191 -0.8066 -0.3427
   10MOL   H480 6438   1.527   0.759   3.283 -1.0083  0.9745 -2.5112
   10MOL   H481 6439   1.683   0.845   3.279 -0.2658 -0.4066  2.1425
   10MOL   H482 6440   1.617   0.564   3.163 -1.1737  0.2019  1.8412
   10MOL   H483 6441   1.769   0.646   3.135 -0.0751 -2.0182  0.7407
   10MOL   H484 6442   1.516   0.763   3.008  0.4218  0.2013 -0.4564
   10MOL   H485 6443   1.695   0.804   3.002 -0.5824  0.7002  1.8478
   10MOL   H486 6444   1.753   0.603   2.886 -0.0839 -0.7678  1.6856
   10MOL   H487 6445   1.595   0.533   2.925 -1.6000  0.1135 -0.3728
   10MOL   H488 6446   1.503   0.707   2.773 -0.8707 -1.6785  1.7489
   10MOL   H489 6447   1.672   0.756   2.751  1.2384 -0.7683 -1.7728
   10MOL   H490 6448   1.725   0.518   2.664  0.6824  1.9814 -0.9061
   10MOL   H491 6449   1.559   0.492   2.680  0.5063 -0.0262 -0.0145
   10MOL   H492 6450   1.517   0.689   2.516 -1.5105 -1.5768  1.1462
   10MOL   H493 6451   1.690   0.688   2.480  0.7037  0.0384 -0.7345
   10MOL   H494 6452   1.508   0.545   2.339 -0.1861  2.2060  0.6963
   10MOL   H495 6453   1.533   0.428   2.469  0.5963  0.6086  0.3481
   10MOL   H496 6454   1.670   0.484   2.371  0.5644  1.1116  0.0039
   10MOL   C497 6455   1.650   0.695   3.664 -0.7835 -0.0984  0.4940
   10MOL   C498 6456   1.531   0.599   3.682 -0.5701 -0.2191  0.3378
   10MOL   C499 6457   1.398   0.678   3.695 -0.0524  0.1555 -0.0631
   10MOL   C500 6458   1.276   0.590   3.654  0.1606  0.2154 -0.6768
   10MOL   C501 6459   1.153   0.670   3.616 -0.0612  0.2482 -0.5059
   10MOL   C502 6460   1.040   0.573   3.587 -1.2566  0.0760  0.5874
   10MOL   C503 6461   0.901   0.633   3.563  0.2672  0.3875 -0.2796
   10MOL   C504 6462   0.806   0.534   3.507  0.1183 -0.6513 -0.0892
   10MOL   C505 6463   0.662   0.602   3.496 -0.5448 -0.2766  0.3536
   10MOL   C506 6464   0.557   0.505   3.434  0.5573 -0.0896 -0.0607
   10MOL   C507 6465   0.423   0.566   3.408 -0.1573 -0.2259  0.5324
   10MOL   H508 6466   1.740   0.636   3.686  0.2392  2.1085  2.4337
   10MOL   H509 6467   1.647   0.768   3.745  3.1300  0.1139  0.5777
   10MOL   H510 6468   1.534   0.528   3.600 -1.7311  0.7713 -0.5970
   10MOL   H511 6469   1.389   0.775   3.647  0.1231  1.0963  1.7515
   10MOL   H512 6470   1.375   0.723   3.792 -1.6123 -1.2502  0.2483
   10MOL   H513 6471   1.247   0.524   3.736 -0.6031  1.7566  0.3092
   10MOL   H514 6472   1.300   0.518   3.575  3.1356 -0.3620  0.6474
   10MOL   H515 6473   1.126   0.724   3.706 -0.6837  1.4107 -1.3835
   10MOL   H516 6474   1.173   0.735   3.531  0.6363 -1.4062 -1.6360
   10MOL   H517 6475   1.072   0.528   3.493 -1.6032 -2.3306  1.5873
   10MOL   H518 6476   1.033   0.489   3.657  1.7527  0.4402  1.4027
   10MOL   H519 6477   0.856   0.667   3.656  1.0044 -0.2597  0.3255
   10MOL   H520 6478   0.918   0.722   3.502  1.3767 -0.5996 -1.4485
   10MOL   H521 6479   0.806   0.443   3.567  0.6647 -1.1970 -0.9022
   10MOL   H522 6480   0.833   0.508   3.405  1.3844 -1.4575  0.4441
   10MOL   H523 6481   0.686   0.681   3.425  3.2942 -2.1852 -0.5999
   10MOL   H524 6482   0.630   0.643   3.591  0.3347  2.9782 -0.6742
   10MOL   H525 6483   0.541   0.417   3.497 -2.9328  0.1759 -0.4863
   10MOL   H526 6484   0.606   0.457   3.349  0.6146 -0.2439  0.0608
   10MOL   H527 6485   0.376   0.602   3.500  0.5206  2.3142 -0.0838
   10MOL   H528 6486   0.360   0.499   3.350  0.7575 -0.3399 -0.3403
   10MOL   H529 6487   0.436   0.652   3.342  2.3505  0.9369  2.4392
   10MOL   C530 6488   1.533   0.512   3.813  0.3856 -1.2797 -0.5806
   10MOL   C531 6489   1.668   0.449   3.850 -0.1297 -0.8397  0.0910
   10MOL   C532 6490   1.707   0.336   3.749 -0.4735 -0.1164  0.4441
   10MOL   C533 6491   1.610   0.219   3.722  0.4611 -0.0050  0.2456
   10MOL   C534 6492   1.674   0.098   3.659  0.3060  0.2796  0.2797
   10MOL   C535 6493   1.560   0.016   3.606  0.0100 -0.4564  0.2076
   10MOL   C536 6494   1.599   7.578   3.585 -0.0972  0.0318  0.2660
   10MOL   C537 6495   1.488   7.494   3.505  0.0728 -0.2035 -0.3560
   10MOL   C538 6496   1.530   7.347   3.470 -0.0238 -0.2487  0.9809
   10MOL   C539 6497   1.417   7.261   3.409  0.2351 -0.1585 -0.1525
   10MOL   C540 6498   1.455   7.114   3.399 -0.0653  0.1443 -0.3914
   10MOL   H541 6499   1.498   0.575   3.895  0.8833  2.5409 -3.1532
   10MOL   H542 6500   1.460   0.431   3.803 -1.5918  0.5575 -1.5919
   10MOL   H543 6501   1.747   0.523   3.851 -2.1690  1.4377 -1.3071
   10MOL   H544 6502   1.802   0.290   3.776 -1.2394 -0.5854  2.4086
   10MOL   H545 6503   1.736   0.389   3.659 -1.5617  1.4404  0.9990
   10MOL   H546 6504   1.538   0.266   3.655  0.8341  0.0087 -0.1494
   10MOL   H547 6505   1.558   0.184   3.811 -0.3542 -0.3552 -0.3619
   10MOL   H548 6506   1.745   0.046   3.724  1.5450 -0.1480 -1.3688
   10MOL   H549 6507   1.739   0.129   3.577 -2.7613  1.3517 -1.8459
   10MOL   H550 6508   1.535   0.051   3.506  1.1558 -1.2886 -0.3851
   10MOL   H551 6509   1.478   0.020   3.678  1.1289  2.7486  1.4130
   10MOL   H552 6510   1.622   7.539   3.685 -0.6183  0.5775  0.5993
   10MOL   H553 6511   1.688   7.576   3.522  0.0136  2.5960  0.3094
   10MOL   H554 6512   1.464   7.542   3.410  0.9805  1.5176  0.2610
   10MOL   H555 6513   1.402   7.494   3.572  1.0881  0.6657  0.9707
   10MOL   H556 6514   1.565   7.297   3.561  0.1695 -0.7946  0.6050
   10MOL   H557 6515   1.618   7.353   3.406 -1.0018 -1.3500 -0.4843
   10MOL   H558 6516   1.388   7.302   3.312  1.4550 -0.7426 -0.7687
   10MOL   H559 6517   1.333   7.257   3.478  0.8198  0.3120  0.6091
   10MOL   H560 6518   1.544   7.093   3.340 -2.5098  0.8698 -4.5473
   10MOL   H561 6519   1.455   7.061   3.494  2.6485 -0.8704 -0.9229
   10MOL   H562 6520   1.374   7.071   3.341 -1.9121  0.2191  2.0467
   10MOL   C563 6521   1.661   0.387   3.995 -0.8949  0.0743 -0.2209
   10MOL   C564 6522   1.660   0.481   4.121  0.4412 -0.7818  0.3102
   10MOL   C565 6523   1.776   0.586   4.131 -0.1935 -0.6263  0.6469
   10MOL   C566 6524   1.754   0.726   4.062  0.3718 -0.8017 -0.0085
   10MOL   C567 6525   1.681   0.822   4.153 -1.0044  0.1104 -0.0640
   10MOL   C568 6526   1.624   0.941   4.075 -0.1154 -0.2004 -0.4908
   10MOL   C569 6527   1.513   1.014   4.152 -0.3659 -0.3031 -0.2699
   10MOL   C570 6528   1.452   1.126   4.058 -0.1721  0.1407  0.0730
   10MOL   C571 6529   1.389   1.237   4.146 -0.2019 -0.3132  0.6591
   10MOL   C572 6530   1.284   1.324   4.083  0.3066 -0.3361  0.6902
   10MOL   C573 6531   1.343   1.419   3.977 -0.0564 -0.4237 -0.0918
   10MOL   H574 6532   1.750   0.324   3.998  0.5947  2.1236  0.0585
   10MOL   H575 6533   1.579   0.315   3.993 -1.8900  1.1663  0.9880
   10MOL   H576 6534   1.569   0.540   4.109  1.4987  0.7754 -0.2005
   10MOL   H577 6535   1.859   0.534   4.084 -0.0554  2.0579 -2.2409
   10MOL   H578 6536   1.787   0.608   4.238  1.9445  1.8589 -0.0130
   10MOL   H579 6537   1.707   0.715   3.964  0.2310  2.0442 -0.2863
   10MOL   H580 6538   1.846   0.781   4.044  1.3886 -2.6977 -0.7123
   10MOL   H581 6539   1.754   0.858   4.225 -1.5005 -2.9070  2.0273
   10MOL   H582 6540   1.594   0.775   4.199 -1.3841 -1.1195 -1.9666
   10MOL   H583 6541   1.706   1.013   4.067 -1.0808  1.0550  0.6822
   10MOL   H584 6542   1.597   0.918   3.972 -1.7338 -0.6627  0.0309
   10MOL   H585 6543   1.426   0.955   4.179 -0.9255  0.9675  0.7326
   10MOL   H586 6544   1.548   1.048   4.249 -2.7027 -1.6025  1.0471
   10MOL   H587 6545   1.379   1.085   3.988  0.1696  0.1466 -0.2935
   10MOL   H588 6546   1.528   1.167   3.991 -0.7192  1.2141  0.1042
   10MOL   H589 6547   1.468   1.301   4.187  0.2176 -0.1468 -0.3747
   10MOL   H590 6548   1.343   1.192   4.234  0.9360 -1.1149  0.8487
   10MOL   H591 6549   1.230   1.383   4.157 -0.5850 -0.6204  0.2760
   10MOL   H592 6550   1.204   1.273   4.028 -0.6027  0.7386  0.9871
   10MOL   H593 6551   1.406   1.374   3.901 -1.1609  0.8524 -1.8068
   10MOL   H594 6552   1.269   1.476   3.922  1.0803  0.9711 -0.1973
   10MOL   H595 6553   1.412   1.487   4.027 -1.4923  0.0008  1.3775
   10MOL   C596 6554   1.649   0.402   4.256 -0.0674  0.1107 -0.4134
   10MOL   C597 6555   1.569   0.477   4.372 -0.1218  0.4344  0.4146
   10MOL   C598 6556   1.632   0.440   4.511 -0.2247 -0.8578  0.1393
   10MOL   C599 6557   1.645   0.290   4.553 -0.5287 -0.9294  0.2623
   10MOL   C600 6558   1.708   0.267   4.690 -0.4508  0.4317 -0.5401
   10MOL   C601 6559   1.630   0.149   4.756  0.4897 -0.7231  0.4798
   10MOL   C602 6560   1.695   0.125   4.891 -0.3512 -0.7478  0.5728
   10MOL   C603 6561   1.610   0.039   4.982  0.1205  0.2528  0.3728
   10MOL   C604 6562   1.676   0.032   5.121 -0.5643  0.2880  0.3928
   10MOL   C605 6563   1.628   7.617   5.200 -0.5481  0.0527 -1.1279
   10MOL   C606 6564   1.634   7.647   5.353  0.7849 -0.4459  0.0613
   10MOL   H607 6565   1.604   0.307   4.228  0.7955 -0.9545  1.6933
   10MOL   H608 6566   1.751   0.381   4.289 -0.2404 -0.8485 -0.4817
   10MOL   H609 6567   1.586   0.584   4.356  0.9625  0.4716  1.7141
   10MOL   H610 6568   1.579   0.498   4.587 -0.1225  1.7074 -1.6793
   10MOL   H611 6569   1.728   0.490   4.509 -0.1618 -0.9154  1.3310
   10MOL   H612 6570   1.702   0.242   4.474 -1.0628 -0.3623 -0.4856
   10MOL   H613 6571   1.543   0.251   4.547 -0.3444 -1.6241  1.5980
   10MOL   H614 6572   1.704   0.356   4.753 -3.3887 -0.5979  0.8071
   10MOL   H615 6573   1.811   0.240   4.664 -0.4014 -0.5720  0.6484
   10MOL   H616 6574   1.529   0.188   4.769  0.8945  0.6893 -0.4626
   10MOL   H617 6575   1.632   0.066   4.686 -0.2738 -0.4342  0.1125
   10MOL   H618 6576   1.710   0.222   4.940 -1.5525 -1.0197  1.5003
   10MOL   H619 6577   1.788   0.071   4.871  0.3503  0.8571 -0.5933
   10MOL   H620 6578   1.610   7.639   4.948 -2.6399 -0.2198  1.5936
   10MOL   H621 6579   1.507   0.073   4.995 -0.3648 -0.2444 -2.0251
   10MOL   H622 6580   1.783   0.011   5.109 -1.1736 -2.2261 -1.0973
   10MOL   H623 6581   1.667   0.129   5.170  0.8084  0.1368  0.9607
   10MOL   H624 6582   1.695   7.534   5.180 -1.4146 -1.3716  1.6638
   10MOL   H625 6583   1.525   7.591   5.177 -1.4839  1.4873  1.3012
   10MOL   H626 6584   1.593   7.560   5.404 -0.7015  1.4873  2.2565
   10MOL   H627 6585   1.739   7.657   5.381  0.5550  0.9313  0.4844
   10MOL   H628 6586   1.574   0.029   5.385  0.8176 -0.7838  1.0338
   10MOL   C629 6587   1.416   0.448   4.357  0.4267 -0.0670 -1.0820
   10MOL   C630 6588   1.333   0.553   4.433 -0.3532  0.3279  0.5570
   10MOL   C631 6589   1.184   0.530   4.435  0.1279  0.1366  0.2932
   10MOL   C632 6590   1.099   0.654   4.469 -0.6161  0.4617 -0.3256
   10MOL   C633 6591   1.148   0.730   4.588 -0.0415  1.1050 -0.4430
   10MOL   C634 6592   1.090   0.868   4.612  0.2719 -0.1151  0.5637
   10MOL   C635 6593   1.117   0.963   4.492  0.3468  0.0829 -0.1540
   10MOL   C636 6594   1.095   1.110   4.537 -0.2687 -0.9745 -0.0188
   10MOL   C637 6595   1.130   1.216   4.428 -0.2267 -0.8545 -0.4054
   10MOL   C638 6596   1.087   1.358   4.460 -0.9710  0.0590 -0.5921
   10MOL   C639 6597   1.196   1.442   4.522  0.1043 -0.7119  0.1539
   10MOL   H640 6598   1.377   0.459   4.256 -2.5338  1.4771  0.1557
   10MOL   H641 6599   1.385   0.348   4.389 -0.4642  0.4131 -0.4215
   10MOL   H642 6600   1.373   0.548   4.534  0.9553  0.2274  0.0399
   10MOL   H643 6601   1.153   0.485   4.340 -0.5023  1.3563 -0.0969
   10MOL   H644 6602   1.160   0.459   4.514  1.5099 -2.5692 -1.6320
   10MOL   H645 6603   0.995   0.623   4.482 -0.0727 -0.5179  1.8904
   10MOL   H646 6604   1.093   0.712   4.377 -1.7048 -0.5672 -0.9157
   10MOL   H647 6605   1.255   0.752   4.588 -0.3365  2.5871  0.4522
   10MOL   H648 6606   1.133   0.662   4.672 -0.3251  0.4480 -1.0258
   10MOL   H649 6607   1.139   0.894   4.705  1.7270  1.4697 -0.6116
   10MOL   H650 6608   0.983   0.873   4.630  0.4999  3.6427  1.1910
   10MOL   H651 6609   1.056   0.948   4.403 -1.4811  0.5762  0.9890
   10MOL   H652 6610   1.220   0.955   4.456  0.3641 -3.3512  0.4763
   10MOL   H653 6611   1.161   1.140   4.618 -0.9255  0.1199  0.1162
   10MOL   H654 6612   0.992   1.127   4.568 -0.4603  2.9830 -2.4546
   10MOL   H655 6613   1.073   1.198   4.337  0.1810 -1.1424 -0.6051
   10MOL   H656 6614   1.234   1.194   4.405  0.2375  0.9073 -0.1217
   10MOL   H657 6615   1.004   1.365   4.530  0.4856  2.0466  0.9928
   10MOL   H658 6616   1.056   1.410   4.369 -0.0066  1.0797 -0.3462
   10MOL   H659 6617   1.172   1.545   4.549  0.4374 -0.3661 -0.8643
   10MOL   H660 6618   1.284   1.440   4.458 -0.5899  3.4507 -1.0950
   10MOL   H661 6619   1.229   1.393   4.614 -1.6250 -1.5497  0.3548
   10MOL   H662 6620   1.355   0.653   4.393 -2.6846  1.1187  1.1697
   11MOL     C1 6621   4.024   7.530   6.045 -0.1499 -0.9308  0.8592
   11MOL     C2 6622   3.884   7.540   6.109  0.1085  0.9756 -0.0087
   11MOL     C3 6623   3.879   7.645   6.218  0.2273 -0.4091  0.1529
   11MOL     C4 6624   3.967   7.605   6.338  0.2693 -0.2229  0.5971
   11MOL     C5 6625   3.941   7.695   6.459 -0.0666  0.0225  0.1383
   11MOL     C6 6626   3.980   0.135   6.427 -0.4527  0.7906  0.6955
   11MOL     C7 6627   3.977   0.238   6.535 -0.2912 -0.3791  0.3293
   11MOL     C8 6628   3.839   0.284   6.569  0.2178  0.7889  0.4365
   11MOL     C9 6629   3.830   0.387   6.681 -0.6167 -0.1515 -0.3017
   11MOL    C10 6630   3.681   0.431   6.696 -0.5599 -0.2389 -0.2382
   11MOL    C11 6631   3.658   0.546   6.796 -0.2569 -0.2344  1.0527
   11MOL    H12 6632   4.038   7.445   5.979  2.7721 -0.7466  1.1811
   11MOL    H13 6633   4.103   7.540   6.119  1.3616  2.1735 -1.0309
   11MOL    H14 6634   3.876   7.439   6.151 -0.1539  1.6372  1.5680
   11MOL    H15 6635   3.778   7.671   6.252  0.2277 -0.6119  0.3099
   11MOL    H16 6636   3.901   0.035   6.167  1.4613 -2.2198 -2.8187
   11MOL    H17 6637   4.070   7.619   6.306  0.5476  1.2414  2.0306
   11MOL    H18 6638   3.960   7.501   6.367 -0.0855 -0.3048  0.2148
   11MOL    H19 6639   3.839   7.683   6.494  0.1065 -1.4001  0.1877
   11MOL    H20 6640   4.006   7.672   6.543 -2.2873  0.0127  1.8859
   11MOL    H21 6641   3.924   0.181   6.345  0.2050 -0.0651 -0.2424
   11MOL    H22 6642   4.078   0.126   6.381 -1.7929  2.0064 -2.5292
   11MOL    H23 6643   4.028   0.203   6.625  0.7816  2.8311  1.0350
   11MOL    H24 6644   4.040   0.321   6.504 -0.9773 -0.5926 -1.6602
   11MOL    H25 6645   3.777   0.200   6.598  0.6776  1.4356  3.4535
   11MOL    H26 6646   3.800   0.330   6.478  2.6601  2.1445  0.0163
   11MOL    H27 6647   3.890   0.477   6.667 -1.9778  0.6628 -0.9242
   11MOL    H28 6648   3.871   0.356   6.778 -1.9699 -3.0825 -0.6057
   11MOL    H29 6649   3.617   0.347   6.723  0.2688 -0.8294 -0.0794
   11MOL    H30 6650   3.641   0.462   6.600 -1.2235  0.5878  0.2924
   11MOL    H31 6651   3.698   0.640   6.756 -0.1947 -1.1664 -1.1761
   11MOL    H32 6652   3.552   0.568   6.812  0.3533  3.0886  0.8368
   11MOL    H33 6653   3.690   0.517   6.895 -1.4742 -3.5519  0.5344
   11MOL    H34 6654   4.044   7.624   5.993  0.2942 -2.0264 -1.0117
   11MOL    C35 6655   3.773   7.576   6.009 -0.9473  0.3768  0.5825
   11MOL    C36 6656   3.736   7.460   5.912 -0.1477  0.1966 -0.2199
   11MOL    C37 6657   3.653   7.347   5.978  0.0179 -0.3680 -0.3805
   11MOL    C38 6658   3.506   7.375   6.034 -0.6064  0.9541  0.5903
   11MOL    C39 6659   3.457   7.272   6.143  0.4015  0.1111  0.0181
   11MOL    C40 6660   3.307   7.279   6.189 -0.5339  1.0057 -0.0840
   11MOL    C41 6661   3.197   7.280   6.086  0.7111 -0.1694  0.0500
   11MOL    C42 6662   3.188   7.152   5.994 -0.5022 -0.6939 -0.4248
   11MOL    C43 6663   3.083   7.139   5.887 -0.4458 -0.3391  0.2218
   11MOL    C44 6664   2.939   7.116   5.941  0.1968 -0.5101 -0.3417
   11MOL    C45 6665   2.837   7.094   5.833  0.3067 -0.4905  0.4441
   11MOL    H46 6666   3.808   7.666   5.959 -1.5369  0.7340  0.8032
   11MOL    H47 6667   3.681   7.616   6.053  0.4654  3.2968  0.9799
   11MOL    H48 6668   3.825   7.409   5.875 -0.9047  0.1389 -2.0323
   11MOL    H49 6669   3.643   7.258   5.915  1.0598 -0.2527 -0.7126
   11MOL    H50 6670   3.720   7.306   6.053  3.0145  0.1858 -2.6629
   11MOL    H51 6671   3.437   7.379   5.950  1.2271 -1.1345 -1.0617
   11MOL    H52 6672   3.500   7.474   6.080 -0.9915  0.9131  0.6315
   11MOL    H53 6673   3.517   7.273   6.234  0.2665 -0.5605  0.1150
   11MOL    H54 6674   3.483   7.176   6.099  0.0482 -0.0546  0.1724
   11MOL    H55 6675   3.291   7.367   6.251 -0.3839  0.8168  0.2197
   11MOL    H56 6676   3.292   7.192   6.253 -0.2640  0.4930 -0.7028
   11MOL    H57 6677   3.094   7.300   6.117 -0.3439 -2.3349 -1.8797
   11MOL    H58 6678   3.206   7.367   6.020 -0.6438  0.6072  0.8572
   11MOL    H59 6679   3.189   7.073   6.069 -0.7015 -0.2059  0.1047
   11MOL    H60 6680   3.283   7.136   5.943 -0.0392 -0.3635  0.3097
   11MOL    H61 6681   3.099   7.050   5.826 -0.3296  2.3205 -3.8129
   11MOL    H62 6682   3.081   7.220   5.815 -0.3297 -1.0052 -0.5317
   11MOL    H63 6683   2.948   7.028   6.005  0.9043  1.1978  1.9840
   11MOL    H64 6684   2.903   7.196   6.006  0.7548 -0.3790 -0.1900
   11MOL    H65 6685   2.876   7.022   5.762 -1.5966  0.9407 -2.1266
   11MOL    H66 6686   2.740   7.058   5.869  0.0844 -0.7608 -0.4307
   11MOL    H67 6687   2.821   7.189   5.782  0.7814 -0.3418  0.5717
   11MOL    C68 6688   3.657   7.531   5.799 -0.7884 -0.2622 -0.2082
   11MOL    C69 6689   3.583   7.442   5.691 -0.0397  0.1596  0.5643
   11MOL    C70 6690   3.490   7.524   5.600 -0.4686 -0.5811  0.0776
   11MOL    C71 6691   3.542   7.642   5.524 -0.1191 -0.0513  0.0695
   11MOL    C72 6692   3.430   0.011   5.443  0.3286  1.2057 -0.4431
   11MOL    C73 6693   3.474   0.106   5.334  0.0733 -0.3527 -0.3875
   11MOL    C74 6694   3.353   0.189   5.276 -0.5104  1.0084 -0.6848
   11MOL    C75 6695   3.391   0.268   5.155 -0.5635 -0.1400 -0.1334
   11MOL    C76 6696   3.282   0.362   5.099 -0.1699 -0.0653 -0.4611
   11MOL    C77 6697   3.173   0.272   5.032 -0.3933 -0.3450 -0.4600
   11MOL    C78 6698   3.075   0.358   4.953 -0.1048 -0.5008 -0.4227
   11MOL    H79 6699   3.735   7.593   5.755 -0.5947 -0.2316  0.1762
   11MOL    H80 6700   3.585   7.604   5.834 -0.9087  0.3738 -1.7225
   11MOL    H81 6701   3.515   7.385   5.755 -1.2085  1.1222  0.2147
   11MOL    H82 6702   3.420   7.571   5.670  1.3971  1.2360  0.7811
   11MOL    H83 6703   3.442   7.460   5.526 -0.3745  2.1704 -2.4681
   11MOL    H84 6704   3.590   0.013   5.588 -0.1612  0.2437 -0.2370
   11MOL    H85 6705   3.617   7.629   5.446 -1.0041  1.8652 -1.1523
   11MOL    H86 6706   3.352   0.058   5.503 -0.9822 -2.2444  0.6964
   11MOL    H87 6707   3.374   7.631   5.401  1.0388  0.8805 -0.7574
   11MOL    H88 6708   3.548   0.173   5.378  1.9160 -0.6664 -2.8906
   11MOL    H89 6709   3.522   0.065   5.246  0.5691  1.9620 -1.2423
   11MOL    H90 6710   3.313   0.254   5.354  1.8728  0.0756  1.4157
   11MOL    H91 6711   3.268   0.126   5.251 -2.0285  2.8500 -0.2952
   11MOL    H92 6712   3.469   0.336   5.191 -2.9136  1.2314  2.5694
   11MOL    H93 6713   3.434   0.199   5.082 -3.1255 -1.5583 -0.3468
   11MOL    H94 6714   3.236   0.425   5.175 -0.2201 -1.5122  0.7312
   11MOL    H95 6715   3.323   0.415   5.013  0.4506 -0.4767 -0.4226
   11MOL    H96 6716   3.204   0.193   4.963 -1.8118 -0.2299 -1.2378
   11MOL    H97 6717   3.119   0.226   5.114  1.6924  1.4936  2.0250
   11MOL    H98 6718   3.028   0.437   5.012 -2.4612 -1.2065 -1.3009
   11MOL    H99 6719   2.990   0.300   4.916  1.6220 -1.2908 -3.3080
   11MOL   H100 6720   3.110   0.416   4.867 -2.6643  1.5036 -0.1889
   11MOL   C101 6721   3.693   7.367   5.612 -0.6304 -0.6156 -1.0797
   11MOL   C102 6722   3.635   7.249   5.527  0.1022 -0.2808 -0.1533
   11MOL   C103 6723   3.550   7.154   5.603  0.7033 -0.5862 -0.4231
   11MOL   C104 6724   3.480   7.049   5.524 -0.3320 -0.3075 -0.4370
   11MOL   C105 6725   3.369   6.980   5.604 -0.5426 -0.7897 -0.3356
   11MOL   C106 6726   3.304   6.858   5.525  0.7446  0.4752  0.0040
   11MOL   C107 6727   3.213   6.773   5.612 -0.2496 -0.1307 -0.1230
   11MOL   C108 6728   3.155   6.647   5.543 -0.8476  0.0764 -0.2888
   11MOL   C109 6729   3.113   6.545   5.651 -0.3772 -0.2737 -0.2012
   11MOL   C110 6730   3.016   6.434   5.609 -0.1320  0.7110  0.3057
   11MOL   C111 6731   2.987   6.340   5.725  0.0539 -0.4534  0.0489
   11MOL   H112 6732   3.743   7.438   5.546  0.4199 -0.4983 -0.1676
   11MOL   H113 6733   3.764   7.323   5.682  1.7042  0.9843 -2.4127
   11MOL   H114 6734   3.568   7.303   5.461  1.1524 -1.3985 -2.1688
   11MOL   H115 6735   3.613   7.117   5.685  0.2779 -0.0068  0.1752
   11MOL   H116 6736   3.471   7.205   5.658  0.4877 -1.3299 -0.0358
   11MOL   H117 6737   3.431   7.098   5.440 -3.0358 -0.9949  0.6741
   11MOL   H118 6738   3.541   6.969   5.483 -0.5523 -0.5486 -0.3021
   11MOL   H119 6739   3.401   6.937   5.699 -1.8398 -2.3187 -0.5710
   11MOL   H120 6740   3.290   7.055   5.617  2.5805  2.1886  2.3568
   11MOL   H121 6741   3.249   6.890   5.436  0.1979 -0.6787 -0.0777
   11MOL   H122 6742   3.387   6.800   5.485  0.6414  1.1993 -1.3191
   11MOL   H123 6743   3.132   6.832   5.654 -0.1884 -1.1734  1.5116
   11MOL   H124 6744   3.274   6.748   5.699  0.2128  0.4907 -0.2626
   11MOL   H125 6745   3.073   6.669   5.474  0.0562  1.7385 -0.8626
   11MOL   H126 6746   3.238   6.604   5.486  0.0774  0.6992  0.5828
   11MOL   H127 6747   3.204   6.490   5.674  0.8179  1.4249 -0.8103
   11MOL   H128 6748   3.076   6.592   5.742 -1.4554 -1.7298  0.1383
   11MOL   H129 6749   3.057   6.380   5.524 -3.3715  1.1326 -1.6034
   11MOL   H130 6750   2.919   6.470   5.574  0.6185  0.6968 -1.8916
   11MOL   H131 6751   2.967   6.399   5.814 -1.8709 -0.7665 -0.1543
   11MOL   H132 6752   2.892   6.288   5.718  1.6449 -3.5009  0.2715
   11MOL   H133 6753   3.073   6.275   5.741  0.3206 -0.3807 -1.0204
   11MOL   C134 6754   3.737   7.174   5.444 -0.0543 -0.0745  0.0643
   11MOL   C135 6755   3.843   7.251   5.359  0.3582 -0.0208 -0.0420
   11MOL   C136 6756   3.772   7.322   5.237 -0.7880 -0.0022  0.3213
   11MOL   C137 6757   3.864   7.442   5.189 -0.0135 -0.0221 -0.1585
   11MOL   C138 6758   3.812   7.497   5.060  0.2080 -0.0210  0.0976
   11MOL   C139 6759   3.677   7.571   5.075 -0.1515 -0.4209  0.2855
   11MOL   C140 6760   3.614   7.637   4.949  0.1163 -0.6765  0.1812
   11MOL   C141 6761   3.712   0.017   4.861  0.8537 -0.5045 -0.3838
   11MOL   C142 6762   3.645   0.118   4.767 -0.3563  0.4451 -0.2250
   11MOL   C143 6763   3.546   0.050   4.666  0.1287  0.2175 -0.0931
   11MOL   C144 6764   3.627   7.683   4.558 -0.5131  0.5635  0.1503
   11MOL   H145 6765   3.780   7.121   5.529 -1.8347 -0.5804  0.6797
   11MOL   H146 6766   3.700   7.091   5.383  0.0430 -1.0257  1.2821
   11MOL   H147 6767   3.886   7.328   5.423  0.0870 -0.9269  1.2515
   11MOL   H148 6768   3.680   7.368   5.273 -0.2100  1.0410  0.4880
   11MOL   H149 6769   3.748   7.248   5.161 -2.9030 -1.2169  2.1238
   11MOL   H150 6770   3.873   7.519   5.266  1.9091  1.4876 -1.8426
   11MOL   H151 6771   3.962   7.396   5.180  1.0193  1.9892  0.5989
   11MOL   H152 6772   3.883   7.576   5.033  0.5847 -0.3209  0.2068
   11MOL   H153 6773   3.821   7.434   4.972 -1.9422  0.4613 -0.4889
   11MOL   H154 6774   3.603   7.503   5.118 -0.9032  1.1602  1.5349
   11MOL   H155 6775   3.695   7.649   5.149 -0.6649 -1.0199  1.0521
   11MOL   H156 6776   3.568   7.559   4.888  0.9735 -1.5280  0.6084
   11MOL   H157 6777   3.531   7.695   4.990  0.0357  0.4597 -1.5311
   11MOL   H158 6778   3.780   0.076   4.923 -0.5203 -1.1009  1.7168
   11MOL   H159 6779   3.774   7.646   4.810  0.5101 -0.5118 -0.7970
   11MOL   H160 6780   3.597   0.196   4.825  0.1372 -0.2815  1.1771
   11MOL   H161 6781   3.724   0.167   4.710 -0.1814  0.8443  0.3683
   11MOL   H162 6782   3.474   7.692   4.719  1.7655 -0.6681  1.1371
   11MOL   H163 6783   3.484   0.132   4.628 -0.5812 -1.1455 -1.9296
   11MOL   H164 6784   3.683   7.593   4.583 -2.8473 -1.4380 -1.6572
   11MOL   H165 6785   3.698   0.044   4.506  1.1888 -1.9363 -0.7287
   11MOL   H166 6786   3.555   7.654   4.482 -0.5040  1.5981 -0.2580
   11MOL   C167 6787   3.944   7.148   5.303 -0.3514  0.5035 -0.8003
   11MOL   C168 6788   4.038   7.070   5.405 -0.1045 -0.1225  0.0777
   11MOL   C169 6789   4.192   7.087   5.383 -1.0272  0.1915  0.1166
   11MOL   C170 6790   4.271   7.005   5.275 -0.4742  0.1089 -0.1664
   11MOL   C171 6791   4.417   7.025   5.295  0.5254 -0.0877 -0.1512
   11MOL   C172 6792   4.463   7.167   5.273 -0.4474 -0.2817 -0.7966
   11MOL   C173 6793   4.612   7.185   5.253  0.1123  0.4386 -0.7016
   11MOL   C174 6794   4.712   7.118   5.357  0.4786 -0.5291  0.1723
   11MOL   C175 6795   4.861   7.147   5.311 -0.1597  0.1140  0.0602
   11MOL   C176 6796   4.902   7.063   5.193  0.7120  0.4410 -0.4977
   11MOL   C177 6797   5.047   7.082   5.158  0.0784  0.1880  0.2722
   11MOL   H178 6798   3.900   7.064   5.251  1.0335  0.0578 -1.2751
   11MOL   H179 6799   4.010   7.187   5.225  0.5704 -3.6054 -2.2015
   11MOL   H180 6800   4.032   7.127   5.497  1.8799 -0.8774  0.6898
   11MOL   H181 6801   4.237   7.074   5.481 -1.3526  0.4473  0.2987
   11MOL   H182 6802   4.191   7.195   5.367  1.4552  0.6768  2.8202
   11MOL   H183 6803   4.261   6.897   5.287  0.7347 -0.1737 -1.5687
   11MOL   H184 6804   4.229   7.029   5.177  1.4671 -1.7670 -1.5053
   11MOL   H185 6805   4.474   6.959   5.229 -1.0819 -3.6564  1.8645
   11MOL   H186 6806   4.444   6.995   5.396  2.0086  2.6208  0.2928
   11MOL   H187 6807   4.410   7.206   5.186 -1.2864 -1.1225 -0.6623
   11MOL   H188 6808   4.425   7.225   5.357 -1.5654 -0.4952 -1.1502
   11MOL   H189 6809   4.617   7.293   5.265 -1.1308  0.4768 -0.5120
   11MOL   H190 6810   4.642   7.163   5.151  3.1134 -0.0646  0.2464
   11MOL   H191 6811   4.705   7.161   5.457  2.5550  0.9099 -0.2583
   11MOL   H192 6812   4.690   7.014   5.382  1.3236 -1.4856 -2.8345
   11MOL   H193 6813   4.932   7.139   5.393  1.4736  1.9796 -1.0924
   11MOL   H194 6814   4.863   7.254   5.287 -0.1629 -0.1579 -1.1733
   11MOL   H195 6815   4.848   7.095   5.104 -0.7119 -1.2573 -0.2911
   11MOL   H196 6816   4.875   6.957   5.201  1.1227  0.5272  2.4569
   11MOL   H197 6817   5.052   7.024   5.066 -1.4490  2.1427 -1.0786
   11MOL   H198 6818   5.121   7.051   5.232 -1.3166  0.5291  1.8529
   11MOL   H199 6819   5.055   7.190   5.143 -1.4721  0.6010  2.1228
   11MOL   C200 6820   4.005   6.919   5.431 -0.2792  0.4762  0.3215
   11MOL   C201 6821   4.031   6.863   5.566  0.6765  0.2266 -0.0942
   11MOL   C202 6822   4.013   6.708   5.568 -0.1735 -0.0802  0.4092
   11MOL   C203 6823   4.119   6.619   5.502  0.4815  0.1064  0.4709
   11MOL   C204 6824   4.102   6.474   5.537  0.7286  0.6034 -0.0468
   11MOL   C205 6825   4.229   6.393   5.504 -0.0971  0.0205  0.2297
   11MOL   C206 6826   4.205   6.239   5.509 -0.0678  1.0317 -0.3833
   11MOL   C207 6827   4.332   6.167   5.462  0.8368 -0.0649  0.1060
   11MOL   C208 6828   4.304   6.016   5.467 -0.0621 -0.1127 -0.5614
   11MOL   C209 6829   4.401   5.922   5.385  0.5105 -0.2201  0.2777
   11MOL   C210 6830   4.549   5.938   5.438 -0.0195 -0.2108  0.3397
   11MOL   H211 6831   3.905   6.896   5.395 -0.1036  0.4857 -0.1762
   11MOL   H212 6832   4.065   6.868   5.356  0.5149  2.2738 -0.3111
   11MOL   H213 6833   4.134   6.887   5.595  0.0137  1.8747  0.9643
   11MOL   H214 6834   3.915   6.676   5.532  1.7879 -3.0848 -2.6014
   11MOL   H215 6835   4.015   6.676   5.672 -2.8477  0.2545  0.5952
   11MOL   H216 6836   4.217   6.660   5.525 -0.3681  1.1963  2.2822
   11MOL   H217 6837   4.102   6.633   5.395  0.3922 -0.3070  0.4312
   11MOL   H218 6838   4.008   6.439   5.494  1.3415  0.4799 -1.3122
   11MOL   H219 6839   4.088   6.471   5.645 -2.3812  1.7507 -0.3558
   11MOL   H220 6840   4.248   6.432   5.404  1.6742  1.3736  1.0654
   11MOL   H221 6841   4.316   6.419   5.565 -0.9334 -0.9190  1.8629
   11MOL   H222 6842   4.110   6.206   5.466 -0.5666 -0.7582  2.0329
   11MOL   H223 6843   4.211   6.211   5.614 -1.1504  0.6176 -0.4268
   11MOL   H224 6844   4.421   6.196   5.519  0.4843  0.3796  0.4311
   11MOL   H225 6845   4.359   6.175   5.357  1.1581  0.4068  0.2249
   11MOL   H226 6846   4.214   6.011   5.406  0.9116  0.8043 -2.0890
   11MOL   H227 6847   4.286   5.982   5.569 -2.0292  0.9669 -0.5250
   11MOL   H228 6848   4.377   5.816   5.394 -0.4512  0.0071  0.4225
   11MOL   H229 6849   4.388   5.942   5.278  0.2468 -0.3912  0.2761
   11MOL   H230 6850   4.610   5.866   5.383 -0.9422  0.4502 -1.6019
   11MOL   H231 6851   4.551   5.923   5.546 -3.0936 -0.6430  0.3857
   11MOL   H232 6852   4.582   6.042   5.426  2.3793 -0.8504  1.0823
   11MOL   C233 6853   3.951   6.930   5.679 -0.5222  0.0417  0.4960
   11MOL   C234 6854   3.976   6.890   5.828 -0.0627 -0.4866 -0.0391
   11MOL   C235 6855   3.856   6.936   5.912  0.3228 -0.3513  0.0399
   11MOL   C236 6856   3.729   6.844   5.900 -0.5536  0.5613 -0.7699
   11MOL   C237 6857   3.609   6.868   6.001 -0.0942 -0.2105  0.0445
   11MOL   C238 6858   3.487   6.778   5.957 -0.5316  0.1703  0.3914
   11MOL   C239 6859   3.374   6.824   6.052  0.0744  0.5252  0.0007
   11MOL   C240 6860   3.240   6.780   5.991  0.1071  0.1372 -0.2497
   11MOL   C241 6861   3.131   6.787   6.095  0.9680 -0.0874  0.0802
   11MOL   C242 6862   2.992   6.744   6.053 -0.5771  0.1704 -0.0806
   11MOL   C243 6863   2.969   6.594   6.085 -0.0722  0.5474 -0.2936
   11MOL   H244 6864   3.848   6.907   5.654 -0.7565  0.7341  0.8118
   11MOL   H245 6865   3.964   7.037   5.664 -0.2608 -0.2332 -1.3516
   11MOL   H246 6866   3.974   6.781   5.830 -0.5756 -0.6092 -3.4472
   11MOL   H247 6867   3.878   6.940   6.019 -0.4340  1.2577  0.1489
   11MOL   H248 6868   3.829   7.041   5.901  1.0778 -0.1480  0.1075
   11MOL   H249 6869   3.764   6.741   5.890  1.6378  1.3790 -2.0271
   11MOL   H250 6870   3.690   6.867   5.801 -0.2437 -0.0516 -1.0355
   11MOL   H251 6871   3.582   6.973   6.002 -0.0819 -0.1249 -3.0492
   11MOL   H252 6872   3.645   6.837   6.099  1.0990 -2.7458 -1.1455
   11MOL   H253 6873   3.518   6.673   5.956  1.3374  0.7086  0.5221
   11MOL   H254 6874   3.445   6.801   5.859 -2.4915 -2.2361  0.6075
   11MOL   H255 6875   3.397   6.791   6.154 -2.3347 -0.1830  0.3594
   11MOL   H256 6876   3.369   6.933   6.047  2.7817  0.6919  0.2238
   11MOL   H257 6877   3.205   6.837   5.905 -1.1527  0.6744  0.5961
   11MOL   H258 6878   3.251   6.674   5.968 -1.3727  0.5817 -3.1816
   11MOL   H259 6879   3.164   6.722   6.175  1.3832 -1.6598 -1.3429
   11MOL   H260 6880   3.117   6.884   6.142  0.1382 -0.8183  1.3697
   11MOL   H261 6881   2.977   6.778   5.951  1.7767 -0.1272 -0.5674
   11MOL   H262 6882   2.923   6.801   6.115 -0.7174  1.3106 -1.2703
   11MOL   H263 6883   2.863   6.569   6.079 -0.1707  0.8462  0.2022
   11MOL   H264 6884   2.999   6.576   6.188 -0.6941 -1.2399 -0.4130
   11MOL   H265 6885   3.026   6.529   6.018 -0.2549  1.2784 -1.1843
   11MOL   C266 6886   4.109   6.941   5.879 -0.2062 -0.6314 -0.1066
   11MOL   C267 6887   4.233   6.847   5.859  0.8050  0.1853 -0.0702
   11MOL   C268 6888   4.215   6.725   5.950  0.3168  0.7494  0.0961
   11MOL   C269 6889   4.267   6.589   5.892  0.3112 -0.0217 -0.2137
   11MOL   C270 6890   4.215   6.462   5.965  0.2250  0.4942 -0.6240
   11MOL   C271 6891   4.258   6.333   5.908  0.1578  0.3675 -0.2964
   11MOL   C272 6892   4.409   6.296   5.940 -0.5924 -0.3521  0.5606
   11MOL   C273 6893   4.464   6.162   5.882 -0.0166  0.1796  0.3355
   11MOL   C274 6894   4.609   6.148   5.931 -0.0162 -0.0596  0.5348
   11MOL   C275 6895   4.674   6.024   5.868 -0.4492 -0.1932 -0.1151
   11MOL   C276 6896   4.826   6.010   5.905  0.7763 -0.5141 -0.6890
   11MOL   H277 6897   4.096   6.961   5.986 -0.2104 -1.8649  0.1329
   11MOL   H278 6898   4.133   7.035   5.831 -1.0851 -0.0592  0.5507
   11MOL   H279 6899   4.234   6.811   5.756  1.8072  1.3480 -0.4814
   11MOL   H280 6900   4.268   6.738   6.045 -0.0215  0.5756  0.3086
   11MOL   H281 6901   4.111   6.709   5.977  0.6181 -0.6155  0.5208
   11MOL   H282 6902   4.376   6.593   5.893  0.2963  0.3233  0.8952
   11MOL   H283 6903   4.249   6.574   5.786  0.2565 -2.8187  0.1637
   11MOL   H284 6904   4.106   6.467   5.969  0.1962 -0.9704  0.2807
   11MOL   H285 6905   4.241   6.468   6.070 -2.2646 -2.6424  0.2548
   11MOL   H286 6906   4.221   6.337   5.806 -0.9055 -2.9061 -0.1045
   11MOL   H287 6907   4.190   6.258   5.948 -1.5583  1.0959 -1.7686
   11MOL   H288 6908   4.460   6.382   5.898 -3.6238  0.8173 -0.8186
   11MOL   H289 6909   4.409   6.301   6.049  0.1099 -0.6707  0.5804
   11MOL   H290 6910   4.452   6.157   5.774 -0.3922  0.4640  0.3630
   11MOL   H291 6911   4.404   6.080   5.922 -1.7024  0.4073 -1.6365
   11MOL   H292 6912   4.672   6.230   5.896  3.2047 -2.4711  0.4873
   11MOL   H293 6913   4.619   6.148   6.039  2.9021 -0.7902  0.3081
   11MOL   H294 6914   4.674   6.036   5.759  2.3790  0.2043 -0.1219
   11MOL   H295 6915   4.623   5.932   5.895  0.2675 -0.6574 -0.3305
   11MOL   H296 6916   4.857   5.908   5.883  0.8350 -0.7286  0.3620
   11MOL   H297 6917   4.857   6.023   6.009 -1.2555 -3.8143  0.4210
   11MOL   H298 6918   4.885   6.086   5.854 -1.5621  0.0260 -2.6435
   11MOL   C299 6919   4.367   6.920   5.891  0.5706 -0.4477  0.3256
   11MOL   C300 6920   4.430   6.998   5.763  0.0196 -0.1355 -0.1253
   11MOL   C301 6921   4.539   6.917   5.692  0.5135 -0.5943  0.5299
   11MOL   C302 6922   4.502   6.776   5.626 -0.0725 -0.2118 -0.5655
   11MOL   C303 6923   4.626   6.707   5.575  0.4437 -1.1223  0.3917
   11MOL   C304 6924   4.602   6.560   5.534 -0.2361 -0.3409  0.1756
   11MOL   C305 6925   4.726   6.492   5.478 -0.0726  0.4034 -0.0645
   11MOL   C306 6926   4.712   6.338   5.463  0.2244  0.3601 -0.4389
   11MOL   C307 6927   4.807   6.275   5.359 -0.2326 -0.4264 -0.0194
   11MOL   C308 6928   4.951   6.232   5.404  0.1131  0.0020  1.0730
   11MOL   C309 6929   4.959   6.106   5.490  0.3915 -0.5391 -0.1621
   11MOL   H310 6930   4.446   6.849   5.915  0.5258 -0.4610  0.4343
   11MOL   H311 6931   4.357   6.984   5.979 -2.4704 -1.7425  1.0061
   11MOL   H312 6932   4.358   7.037   5.691 -1.3491 -0.4995  1.0232
   11MOL   H313 6933   4.571   6.984   5.612  3.5831 -2.8039 -0.2105
   11MOL   H314 6934   4.631   6.895   5.747  1.3652  0.4215 -0.4476
   11MOL   H315 6935   4.463   6.705   5.698  3.2624 -0.0947  1.4692
   11MOL   H316 6936   4.431   6.794   5.544 -0.4432  0.5674 -0.0844
   11MOL   H317 6937   4.674   6.763   5.494 -1.6381 -1.6736 -1.2799
   11MOL   H318 6938   4.698   6.709   5.656 -0.2821 -3.2362  1.1222
   11MOL   H319 6939   4.515   6.551   5.468  0.6278 -2.4741 -0.7051
   11MOL   H320 6940   4.572   6.498   5.619 -1.1070  0.3177  0.3565
   11MOL   H321 6941   4.765   6.546   5.391 -1.4679  2.3138  0.4666
   11MOL   H322 6942   4.802   6.511   5.554  0.0277 -0.0926 -0.0397
   11MOL   H323 6943   4.614   6.313   5.422  1.3891 -1.9449 -1.9117
   11MOL   H324 6944   4.721   6.291   5.561  0.6638 -1.8280 -1.5186
   11MOL   H325 6945   4.820   6.347   5.278 -0.6524  0.7915  0.9837
   11MOL   H326 6946   4.749   6.202   5.303  2.7083 -0.1595 -3.6397
   11MOL   H327 6947   5.009   6.310   5.454  1.7555  1.0146 -2.2520
   11MOL   H328 6948   5.017   6.238   5.318 -1.7170 -1.8712 -0.5008
   11MOL   H329 6949   4.926   6.123   5.592 -0.0733 -1.3273 -0.1809
   11MOL   H330 6950   4.907   6.020   5.447  0.9589 -1.6387  1.3347
   11MOL   H331 6951   5.062   6.075   5.512 -0.3048 -3.0686 -0.2613
   11MOL   C332 6952   4.500   7.127   5.811 -0.3082 -0.4739 -0.0734
   11MOL   C333 6953   4.401   7.228   5.868  0.0683 -0.3701  0.0845
   11MOL   C334 6954   4.390   7.353   5.771 -0.3134  0.4807  1.5523
   11MOL   C335 6955   4.323   7.318   5.634 -0.0952  0.1245  0.0427
   11MOL   C336 6956   4.301   7.442   5.537 -1.3947  0.4406  0.7882
   11MOL   C337 6957   4.185   7.526   5.592 -0.6868 -0.0157  0.0073
   11MOL   C338 6958   4.137   7.624   5.480 -0.0434  0.1264 -0.5465
   11MOL   C339 6959   4.012   7.690   5.530  0.8623  0.3178  0.1451
   11MOL   C340 6960   3.964   0.105   5.446 -0.1435 -0.5560 -0.1825
   11MOL   C341 6961   3.860   0.173   5.527  0.4482  1.1032  0.4385
   11MOL   C342 6962   3.793   0.293   5.457 -0.3436  0.7027 -0.1297
   11MOL   H343 6963   4.580   7.090   5.875 -1.3502 -1.6021  0.6082
   11MOL   H344 6964   4.552   7.160   5.721 -1.7017  0.2685 -0.6348
   11MOL   H345 6965   4.304   7.177   5.869 -0.0258 -0.1795  0.5961
   11MOL   H346 6966   4.486   7.403   5.762  0.3401 -1.3121 -2.1170
   11MOL   H347 6967   4.319   7.428   5.809  0.5127  1.2377  1.6164
   11MOL   H348 6968   4.389   7.245   5.586 -0.4304 -0.5971  0.6783
   11MOL   H349 6969   4.233   7.263   5.659  1.8393 -1.9444  2.6267
   11MOL   H350 6970   4.396   7.494   5.527 -0.8646 -0.5457  0.5518
   11MOL   H351 6971   4.288   7.402   5.437 -1.3007 -1.2515  1.4286
   11MOL   H352 6972   4.211   7.585   5.680 -2.7480  0.5813  0.2469
   11MOL   H353 6973   4.107   7.458   5.626 -0.1191 -0.0112  1.3824
   11MOL   H354 6974   4.110   7.580   5.385 -0.6914  1.3003 -0.9208
   11MOL   H355 6975   4.212   7.700   5.454  0.1723  0.4118  0.8508
   11MOL   H356 6976   3.934   7.614   5.539  1.2680 -0.2227 -0.7865
   11MOL   H357 6977   4.039   0.023   5.630 -0.6682  0.9881  0.3324
   11MOL   H358 6978   3.911   0.079   5.355 -0.0514 -1.9073  0.1446
   11MOL   H359 6979   4.050   0.172   5.438  1.2474 -2.3353 -0.3229
   11MOL   H360 6980   3.910   0.217   5.613  2.6338 -1.1811  0.3831
   11MOL   H361 6981   3.796   0.094   5.567 -1.1349  1.7181 -0.8076
   11MOL   H362 6982   3.874   0.360   5.429 -0.5486  1.5417  1.2585
   11MOL   H363 6983   3.743   0.256   5.367 -1.5334  3.1642 -0.5140
   11MOL   H364 6984   3.715   0.347   5.510  0.7535  3.8255 -1.6200
   11MOL   C365 6985   4.445   7.265   6.010  0.3113  0.4067 -0.5445
   11MOL   C366 6986   4.332   7.319   6.098 -0.0865 -0.5830  0.4677
   11MOL   C367 6987   4.252   7.204   6.158  0.3716  0.0241  0.1250
   11MOL   C368 6988   4.148   7.246   6.256  0.3287 -0.6231 -0.1195
   11MOL   C369 6989   4.041   7.131   6.280  0.1522  0.1197 -0.2581
   11MOL   C370 6990   3.952   7.164   6.402 -0.0674 -0.2797  0.3115
   11MOL   C371 6991   3.837   7.067   6.415  0.8950  0.3291  0.0105
   11MOL   C372 6992   3.723   7.077   6.309 -0.5482  0.0035  0.6177
   11MOL   C373 6993   3.593   7.003   6.334 -0.1018  0.0643 -0.6198
   11MOL   C374 6994   3.511   7.051   6.466  0.3168  0.9112 -0.2391
   11MOL   C375 6995   3.372   6.987   6.462  0.1762  0.0351 -0.3673
   11MOL   H376 6996   4.487   7.176   6.056 -0.0540  0.5949  0.1800
   11MOL   H377 6997   4.534   7.327   6.012  2.4663 -2.4880 -3.4522
   11MOL   H378 6998   4.261   7.362   6.028  0.2899 -0.2891  0.2648
   11MOL   H379 6999   4.309   7.129   6.211  0.5440 -0.0859 -0.2128
   11MOL   H380 7000   4.204   7.159   6.071 -1.5654  0.3544  0.9948
   11MOL   H381 7001   4.095   7.332   6.214  0.8450 -0.3981 -0.3136
   11MOL   H382 7002   4.185   7.280   6.353  2.2143  0.3397 -1.1609
   11MOL   H383 7003   4.090   7.036   6.299  1.4873  1.1305  1.5700
   11MOL   H384 7004   3.977   7.131   6.192 -2.0458 -1.7536  1.3173
   11MOL   H385 7005   3.906   7.263   6.407 -0.2772 -0.0504 -3.7763
   11MOL   H386 7006   4.015   7.158   6.490 -1.0359  0.2592  1.0546
   11MOL   H387 7007   3.869   6.964   6.429 -0.3901  0.1650  1.9151
   11MOL   H388 7008   3.789   7.076   6.512  1.6046 -0.0163  0.3910
   11MOL   H389 7009   3.757   7.043   6.212 -2.1875  2.5111 -0.9144
   11MOL   H390 7010   3.689   7.180   6.293 -0.6739 -0.1036  0.1944
   11MOL   H391 7011   3.527   7.005   6.248 -3.5358  1.7678  1.9247
   11MOL   H392 7012   3.621   6.899   6.350  0.2101  0.4850  1.8213
   11MOL   H393 7013   3.561   7.025   6.559  0.3420 -0.0634 -0.5209
   11MOL   H394 7014   3.494   7.159   6.461 -2.2897  0.5060 -1.1351
   11MOL   H395 7015   3.317   7.019   6.550 -0.5292  1.7525 -1.3932
   11MOL   H396 7016   3.377   6.879   6.477 -0.7158  0.2356  1.5005
   11MOL   H397 7017   3.306   7.006   6.377  0.7696 -2.6949 -1.4954
   11MOL   C398 7018   4.385   7.429   6.199  0.5674  0.6245  0.0449
   11MOL   C399 7019   4.490   7.380   6.295 -0.8022 -0.3148  0.2373
   11MOL   C400 7020   4.447   7.412   6.445  0.2057  0.2104  0.1284
   11MOL   C401 7021   4.407   7.561   6.479  0.1039  0.3103 -0.2975
   11MOL   C402 7022   4.370   7.579   6.631 -0.3940  0.2241  0.1442
   11MOL   C403 7023   4.297   0.005   6.680  0.4069  0.1528  0.6855
   11MOL   C404 7024   4.247   0.021   6.824  0.3243 -1.2776  0.4165
   11MOL   C405 7025   4.337   7.664   6.927  0.2728  0.0575  0.4387
   11MOL   C406 7026   4.277   7.702   7.065  0.6524  0.2296 -0.1837
   11MOL   C407 7027   4.241   7.582   7.163 -0.2750 -0.5380 -0.6728
   11MOL   C408 7028   4.088   7.550   7.171 -0.2601 -0.9541 -0.3458
   11MOL   H409 7029   4.303   7.480   6.250 -1.1175 -0.5123 -1.4945
   11MOL   H410 7030   4.429   7.513   6.145  0.1942  0.4894 -0.4673
   11MOL   H411 7031   4.516   7.274   6.287  0.9828  0.0717  0.8378
   11MOL   H412 7032   4.532   7.390   6.509  0.3139  3.7898  1.3307
   11MOL   H413 7033   4.377   7.346   6.497  0.9972 -1.6233 -1.0901
   11MOL   H414 7034   4.489   7.627   6.450  1.0928  0.3364  2.3612
   11MOL   H415 7035   4.326   7.596   6.415 -0.3493 -0.2631 -0.0383
   11MOL   H416 7036   4.310   7.492   6.656 -0.2616 -0.1811 -0.9446
   11MOL   H417 7037   4.460   7.565   6.691  1.2422 -0.5076 -2.4402
   11MOL   H418 7038   4.218   0.032   6.610  4.4486  0.7597 -3.9167
   11MOL   H419 7039   4.363   0.089   6.661 -0.1863  0.3198 -0.7429
   11MOL   H420 7040   4.226   0.128   6.826 -0.8073 -1.5122  1.5819
   11MOL   H421 7041   4.157   7.663   6.822 -0.1376 -0.6471 -3.4007
   11MOL   H422 7042   4.436   0.004   6.911  0.2021  0.8778  2.1785
   11MOL   H423 7043   4.341   7.555   6.926  1.5476  0.0895 -2.3578
   11MOL   H424 7044   4.352   0.057   7.119 -1.9222  1.4046  2.2611
   11MOL   H425 7045   4.199   0.075   7.066 -0.0514 -0.4939  2.3965
   11MOL   H426 7046   4.264   7.592   7.269  1.5318 -1.7406 -0.9265
   11MOL   H427 7047   4.301   7.493   7.143 -1.7564 -1.3301 -1.7023
   11MOL   H428 7048   4.053   7.551   7.068 -0.9015  2.0300 -0.1602
   11MOL   H429 7049   4.023   7.611   7.235  0.9057 -0.1196  0.0713
   11MOL   H430 7050   4.079   7.445   7.196  1.4542 -0.6912  1.5525
   11MOL   C431 7051   4.628   7.455   6.267 -0.0952  0.7140 -0.8297
   11MOL   C432 7052   4.756   7.387   6.328  0.0478  0.3618  0.4351
   11MOL   C433 7053   4.875   7.477   6.294  1.2986 -0.6827  0.1032
   11MOL   C434 7054   4.992   7.456   6.380 -0.1229  0.4886 -0.2849
   11MOL   C435 7055   5.103   7.553   6.350 -0.0293  0.2397 -0.0598
   11MOL   C436 7056   5.195   7.495   6.240 -0.4935 -0.4871  0.4090
   11MOL   C437 7057   5.324   7.580   6.224 -0.4841  0.4450 -0.4889
   11MOL   C438 7058   5.415   7.548   6.107  0.3300  0.1043 -0.6034
   11MOL   C439 7059   5.472   7.408   6.107  0.0069 -0.7655  0.5957
   11MOL   C440 7060   5.542   7.382   5.967  0.2631 -0.2002 -0.0756
   11MOL   C441 7061   5.619   7.244   5.982  0.4295 -0.2016  0.6598
   11MOL   H442 7062   4.620   7.559   6.298  0.0534  0.6066 -0.4336
   11MOL   H443 7063   4.640   7.448   6.158 -1.2515  1.2058 -0.9993
   11MOL   H444 7064   4.753   7.396   6.437  1.3960 -1.6143  0.6603
   11MOL   H445 7065   4.903   7.464   6.189 -1.3309 -1.7551 -0.4970
   11MOL   H446 7066   4.848   7.583   6.297  1.1733 -0.7144  0.0779
   11MOL   H447 7067   5.022   7.354   6.354  2.3804  0.7355  1.3959
   11MOL   H448 7068   4.971   7.459   6.487  2.2112 -3.5178  0.3810
   11MOL   H449 7069   5.151   7.561   6.448 -2.1811 -2.0846  1.2508
   11MOL   H450 7070   5.063   7.647   6.310 -1.3721 -1.1137 -1.9688
   11MOL   H451 7071   5.142   7.499   6.145  0.6956  0.2653 -0.2428
   11MOL   H452 7072   5.226   7.393   6.261 -0.5112 -0.4990  0.3790
   11MOL   H453 7073   5.379   7.579   6.319 -1.1806  0.9495 -0.0718
   11MOL   H454 7074   5.289   7.683   6.214 -1.2032  0.0437 -2.3170
   11MOL   H455 7075   5.363   7.573   6.014 -0.0966  0.3894 -0.2909
   11MOL   H456 7076   5.500   7.616   6.108 -1.8129  2.9208 -2.0978
   11MOL   H457 7077   5.390   7.340   6.129 -1.2278  0.4722 -0.0494
   11MOL   H458 7078   5.539   7.394   6.192 -0.6166  1.1480  1.4360
   11MOL   H459 7079   5.623   7.452   5.949 -0.1402  0.0246 -1.0285
   11MOL   H460 7080   5.467   7.398   5.890 -0.2966 -0.3447  0.4276
   11MOL   H461 7081   5.548   7.169   6.015  0.9689 -1.0594 -0.0936
   11MOL   H462 7082   5.643   7.214   5.879 -3.3147 -0.4931 -0.1915
   11MOL   H463 7083   5.709   7.251   6.042 -0.0905  0.5468  1.3624
   11MOL   C464 7084   4.769   7.231   6.293 -0.1710 -0.3243  0.6598
   11MOL   C465 7085   4.719   7.131   6.410  0.1388  0.2634  0.5423
   11MOL   C466 7086   4.737   6.987   6.352  0.0369 -0.1313 -0.7083
   11MOL   C467 7087   4.618   6.952   6.262 -0.3515  0.8056  0.8015
   11MOL   C468 7088   4.630   6.801   6.214  0.0619  0.3101  0.1285
   11MOL   C469 7089   4.760   6.769   6.135  0.2134  0.4707 -0.0860
   11MOL   C470 7090   4.756   6.632   6.068  0.1438  0.8618 -0.6468
   11MOL   C471 7091   4.892   6.622   5.991  0.1960 -0.0712 -0.5165
   11MOL   C472 7092   4.906   6.490   5.921  0.2998  0.2668  0.3878
   11MOL   C473 7093   5.031   6.466   5.830  0.2206 -0.6501 -0.2975
   11MOL   C474 7094   5.018   6.331   5.751  0.1046 -0.4648  0.0811
   11MOL   H475 7095   4.873   7.208   6.271 -0.4253 -1.1689  0.3291
   11MOL   H476 7096   4.728   7.210   6.194  1.9929 -1.2411 -0.0539
   11MOL   H477 7097   4.614   7.154   6.429  0.1103 -0.1443  0.8893
   11MOL   H478 7098   4.736   6.915   6.433 -3.5144  0.5504 -0.0576
   11MOL   H479 7099   4.834   6.978   6.303  1.4612 -0.2403  2.0404
   11MOL   H480 7100   4.518   6.966   6.304 -1.8732 -1.2284 -1.9616
   11MOL   H481 7101   4.616   7.015   6.174 -1.2282  0.8328  0.8299
   11MOL   H482 7102   4.540   6.771   6.159 -0.6678  2.0749  0.3088
   11MOL   H483 7103   4.619   6.732   6.298  1.2843  0.1848  0.1857
   11MOL   H484 7104   4.748   6.842   6.055 -1.1014 -0.0937 -0.4119
   11MOL   H485 7105   4.853   6.796   6.184  0.3318  1.0321 -0.6189
   11MOL   H486 7106   4.738   6.555   6.143  1.6076  1.3086  0.1968
   11MOL   H487 7107   4.678   6.632   5.992 -0.1071 -1.0316 -0.4236
   11MOL   H488 7108   4.893   6.707   5.922 -0.7827  1.7655  1.6628
   11MOL   H489 7109   4.983   6.633   6.050  0.3527 -3.0533 -0.1646
   11MOL   H490 7110   4.910   6.412   5.998  1.1055 -1.2100 -1.1044
   11MOL   H491 7111   4.815   6.467   5.867  1.4029 -0.1239 -1.3326
   11MOL   H492 7112   5.049   6.544   5.757  0.1866 -0.2627  0.1099
   11MOL   H493 7113   5.125   6.463   5.886  1.0837  1.1735 -1.6248
   11MOL   H494 7114   4.997   6.254   5.826 -0.0318  0.4613  0.9944
   11MOL   H495 7115   5.118   6.311   5.711  1.1685 -0.0110  2.4414
   11MOL   H496 7116   4.934   6.336   5.683  0.4269  0.9120 -0.2268
   11MOL   C497 7117   4.804   7.146   6.536  0.3020 -0.1845  1.3110
   11MOL   C498 7118   4.743   7.087   6.668 -0.1731  0.5231  0.2015
   11MOL   C499 7119   4.632   7.169   6.726 -0.4092  0.0515  0.7264
   11MOL   C500 7120   4.556   7.101   6.837 -0.4975 -0.0722  0.6053
   11MOL   C501 7121   4.440   7.173   6.906 -0.1926  0.4037  0.1626
   11MOL   C502 7122   4.315   7.180   6.816  0.2798 -0.4681 -0.2669
   11MOL   C503 7123   4.214   7.283   6.873  0.1233  0.5598  0.4270
   11MOL   C504 7124   4.105   7.304   6.768  0.4527 -0.0199 -0.0822
   11MOL   C505 7125   3.983   7.388   6.810 -0.4977 -0.0308  0.8233
   11MOL   C506 7126   3.867   7.374   6.711  0.5387 -0.0744 -0.4749
   11MOL   C507 7127   3.783   7.247   6.714  0.2170  0.0010 -0.2402
   11MOL   H508 7128   4.904   7.121   6.501  0.1990  0.8250  0.2714
   11MOL   H509 7129   4.828   7.250   6.560  1.9921 -0.2514  0.0426
   11MOL   H510 7130   4.714   6.984   6.648 -0.0145  0.4007  0.6143
   11MOL   H511 7131   4.564   7.195   6.644 -0.9852 -0.5725  1.0015
   11MOL   H512 7132   4.671   7.262   6.768 -0.8582  1.7733 -2.4745
   11MOL   H513 7133   4.623   7.063   6.915 -0.7702 -2.0187 -0.0836
   11MOL   H514 7134   4.519   7.004   6.803 -0.5768 -0.0976  0.7638
   11MOL   H515 7135   4.408   7.112   6.990 -0.0804 -0.7950 -0.6448
   11MOL   H516 7136   4.460   7.263   6.963 -3.3105  0.5012  1.1858
   11MOL   H517 7137   4.347   7.218   6.718  1.7314 -0.7547  0.0777
   11MOL   H518 7138   4.268   7.083   6.801  0.4831 -0.3755 -1.6283
   11MOL   H519 7139   4.164   7.247   6.963  1.2100  1.5928  1.4518
   11MOL   H520 7140   4.264   7.374   6.905  2.5898 -0.1673 -1.1922
   11MOL   H521 7141   4.078   7.202   6.740 -0.3156 -0.0169  0.6350
   11MOL   H522 7142   4.135   7.347   6.672 -1.6534  0.4364 -0.5784
   11MOL   H523 7143   4.026   7.488   6.816 -0.8139  0.0229  2.5036
   11MOL   H524 7144   3.948   7.364   6.911  0.5375  1.5650  1.5783
   11MOL   H525 7145   3.899   7.387   6.608  1.1471 -2.8233 -0.6561
   11MOL   H526 7146   3.806   7.461   6.737  2.6020  1.1649  0.3684
   11MOL   H527 7147   3.718   7.266   6.628  0.0327  0.3049 -0.0311
   11MOL   H528 7148   3.727   7.238   6.807 -0.5167 -0.3362 -0.6996
   11MOL   H529 7149   3.850   7.164   6.689  1.0013 -0.4259  3.0172
   11MOL   C530 7150   4.856   7.088   6.771  0.5495  0.3118  0.5597
   11MOL   C531 7151   4.991   7.014   6.747 -0.8140  0.1118  0.2211
   11MOL   C532 7152   4.982   6.874   6.672  0.7893  0.2649  0.6885
   11MOL   C533 7153   4.897   6.764   6.748  0.5289  0.4176  0.1380
   11MOL   C534 7154   4.884   6.630   6.676 -0.0027  0.1007  0.2614
   11MOL   C535 7155   4.816   6.521   6.759  0.6404 -0.1656 -0.0385
   11MOL   C536 7156   4.905   6.465   6.879  0.5171 -0.1311  0.2582
   11MOL   C537 7157   4.838   6.342   6.949 -0.6098  0.2833  0.4833
   11MOL   C538 7158   4.944   6.295   7.055 -0.1166  0.2879  0.2597
   11MOL   C539 7159   4.894   6.186   7.139  0.1330  0.2144 -0.0974
   11MOL   C540 7160   5.012   6.124   7.220  0.1158 -0.3816  0.1186
   11MOL   H541 7161   4.883   7.189   6.799  0.0881  0.8293 -0.8292
   11MOL   H542 7162   4.817   7.047   6.864  2.3713 -1.8752  0.4136
   11MOL   H543 7163   5.031   7.081   6.671  1.4456  0.9198  2.0764
   11MOL   H544 7164   5.083   6.843   6.647  0.6580  0.8380 -0.6314
   11MOL   H545 7165   4.937   6.893   6.574  1.1413 -4.0658 -0.3826
   11MOL   H546 7166   4.794   6.799   6.758  0.9514  1.4160  1.0785
   11MOL   H547 7167   4.943   6.740   6.844 -0.5756  0.5500  0.7092
   11MOL   H548 7168   4.984   6.597   6.646 -0.2704 -0.6512  0.1679
   11MOL   H549 7169   4.826   6.637   6.584 -1.1925 -0.3789  0.9690
   11MOL   H550 7170   4.793   6.441   6.689 -0.2368  0.6862 -0.7532
   11MOL   H551 7171   4.719   6.555   6.794  1.4537  0.7692  1.3482
   11MOL   H552 7172   4.931   6.547   6.945  1.9458  0.1797 -0.6626
   11MOL   H553 7173   4.999   6.428   6.838  0.0804  0.4089 -1.2559
   11MOL   H554 7174   4.818   6.263   6.876  0.3031  0.1136  0.4014
   11MOL   H555 7175   4.744   6.371   6.995  0.0452  0.5429  1.6646
   11MOL   H556 7176   4.981   6.374   7.120 -2.3115 -0.0157  1.9272
   11MOL   H557 7177   5.034   6.258   7.006  2.5474  2.9132  2.9187
   11MOL   H558 7178   4.856   6.111   7.069 -0.7317 -0.7021  1.3170
   11MOL   H559 7179   4.805   6.220   7.193  0.3126  0.5488 -0.0125
   11MOL   H560 7180   5.053   6.197   7.289 -0.7263 -0.8950  1.1894
   11MOL   H561 7181   4.968   6.035   7.265  0.0829 -0.4579 -0.0649
   11MOL   H562 7182   5.103   6.092   7.170  0.2031  1.1174 -0.7172
   11MOL   C563 7183   5.085   7.013   6.874  0.5176  0.1236  0.3469
   11MOL   C564 7184   5.124   7.156   6.938 -0.2316 -0.4095 -0.6135
   11MOL   C565 7185   5.218   7.242   6.854  0.4889  0.4033  0.3815
   11MOL   C566 7186   5.215   7.397   6.868 -0.1507 -0.1045  0.1385
   11MOL   C567 7187   5.280   7.472   6.745 -0.7670 -0.1441 -0.7455
   11MOL   C568 7188   5.420   7.429   6.705 -0.6977  0.2010 -0.4470
   11MOL   C569 7189   5.463   7.480   6.570  0.7425  0.7468  0.2472
   11MOL   C570 7190   5.610   7.463   6.538 -0.4744 -0.2577  0.0714
   11MOL   C571 7191   5.648   7.308   6.527  0.2450  0.2293 -0.0421
   11MOL   C572 7192   5.784   7.282   6.475 -0.0147  0.3293  0.1704
   11MOL   C573 7193   5.793   7.139   6.429 -0.0267 -0.5472 -0.0812
   11MOL   H574 7194   5.180   6.966   6.849 -0.4745 -1.2201 -0.9660
   11MOL   H575 7195   5.042   6.952   6.954  2.4149 -1.0268  0.5144
   11MOL   H576 7196   5.035   7.218   6.946 -0.1906 -0.0548 -2.5273
   11MOL   H577 7197   5.188   7.224   6.751  0.6180  2.7037 -0.0986
   11MOL   H578 7198   5.320   7.204   6.856  1.2577  2.3375 -0.4143
   11MOL   H579 7199   5.268   7.427   6.958  0.8025 -0.6750 -0.2117
   11MOL   H580 7200   5.112   7.428   6.879 -0.0588  0.3723 -0.3319
   11MOL   H581 7201   5.286   7.575   6.781  2.5968 -0.2712 -0.7618
   11MOL   H582 7202   5.207   7.466   6.664 -1.9399  1.6600  0.1379
   11MOL   H583 7203   5.486   7.473   6.780 -0.3013  0.8360 -1.1612
   11MOL   H584 7204   5.426   7.320   6.713  0.9444  0.1558 -1.9998
   11MOL   H585 7205   5.393   7.429   6.503  0.0781 -0.6186  1.9270
   11MOL   H586 7206   5.444   7.587   6.569  2.3937  1.0733  1.8132
   11MOL   H587 7207   5.668   7.511   6.617  0.3945  0.2890 -0.8846
   11MOL   H588 7208   5.634   7.510   6.442 -1.9849  2.2391  0.8690
   11MOL   H589 7209   5.567   7.259   6.473  0.1404 -1.2086  1.3961
   11MOL   H590 7210   5.641   7.254   6.621  2.5048  3.4954  2.0716
   11MOL   H591 7211   5.861   7.309   6.547 -1.1556  0.0611  1.4985
   11MOL   H592 7212   5.799   7.352   6.393 -0.9776 -0.8986 -1.0914
   11MOL   H593 7213   5.889   7.130   6.377 -0.2182  0.9454 -0.7341
   11MOL   H594 7214   5.802   7.080   6.520  1.3305 -0.4848 -0.1595
   11MOL   H595 7215   5.712   7.099   6.369  0.2282 -4.4645  2.0755
   11MOL   C596 7216   5.174   7.132   7.076 -0.3993  0.5010 -0.2101
   11MOL   C597 7217   5.068   7.109   7.189  0.1906  0.8127 -0.1113
   11MOL   C598 7218   5.008   7.243   7.243 -0.8941 -1.5450 -0.1270
   11MOL   C599 7219   4.869   7.236   7.301 -0.2437  0.2354  0.1957
   11MOL   C600 7220   4.828   7.361   7.377 -0.2598  0.0328 -0.2157
   11MOL   C601 7221   4.734   7.447   7.289 -0.4911  0.0223  0.0234
   11MOL   C602 7222   4.805   7.491   7.150  0.2900 -0.5102 -0.1981
   11MOL   C603 7223   4.721   7.598   7.081  0.1223  0.8950  0.3830
   11MOL   C604 7224   4.751   7.642   6.937 -0.2085 -0.3026  0.3897
   11MOL   C605 7225   4.753   7.521   6.842 -0.2513 -0.4374 -0.0894
   11MOL   C606 7226   4.787   7.556   6.698 -0.1532 -0.7461 -0.3919
   11MOL   H607 7227   5.242   7.047   7.075  0.6753  1.3303  0.5523
   11MOL   H608 7228   5.246   7.212   7.094 -1.4031  1.3356  0.1747
   11MOL   H609 7229   4.981   7.053   7.154  0.9794  0.7922 -2.0881
   11MOL   H610 7230   5.010   7.316   7.162  0.5969 -0.4112  0.9111
   11MOL   H611 7231   5.079   7.290   7.311 -0.9110 -0.2644 -0.9719
   11MOL   H612 7232   4.871   7.151   7.369 -0.3091 -0.6445 -0.8917
   11MOL   H613 7233   4.792   7.203   7.231 -1.4924 -2.5249  2.7623
   11MOL   H614 7234   4.918   7.411   7.411  0.2792 -0.1051 -1.3970
   11MOL   H615 7235   4.777   7.337   7.470  0.6948 -0.9987  0.0567
   11MOL   H616 7236   4.647   7.386   7.265 -1.5615  1.0929  1.1788
   11MOL   H617 7237   4.700   7.533   7.346  0.0512 -0.4146  1.0064
   11MOL   H618 7238   4.818   7.407   7.081  2.3205 -0.1905 -0.2453
   11MOL   H619 7239   4.902   7.537   7.169  1.3594 -2.2128 -1.3656
   11MOL   H620 7240   4.748   7.687   7.138 -1.6868  2.0830 -0.5649
   11MOL   H621 7241   4.615   7.581   7.101  0.4126 -1.7099 -0.0524
   11MOL   H622 7242   4.693   0.025   6.905  0.3262 -0.2233 -0.3890
   11MOL   H623 7243   4.850   7.686   6.926 -1.1298  2.3074  2.2305
   11MOL   H624 7244   4.656   7.473   6.838 -0.7391  0.6114 -0.8601
   11MOL   H625 7245   4.841   7.463   6.870 -0.4380 -0.6169  0.1348
   11MOL   H626 7246   4.697   7.603   6.659 -0.1101  0.6534  1.1687
   11MOL   H627 7247   4.873   7.621   6.682 -1.1736  0.7012 -0.0503
   11MOL   H628 7248   4.815   7.460   6.655  1.1214  0.0341 -1.3558
   11MOL   C629 7249   5.118   7.014   7.308 -0.6696  0.3229 -0.1037
   11MOL   C630 7250   5.252   7.053   7.374 -0.1423  0.3297  0.0963
   11MOL   C631 7251   5.293   6.963   7.488  0.5029  0.0919 -0.6911
   11MOL   C632 7252   5.432   6.972   7.543  0.1924  0.3878 -0.4749
   11MOL   C633 7253   5.538   6.932   7.438  0.3093 -0.6274 -0.7304
   11MOL   C634 7254   5.679   6.939   7.481 -0.3654 -0.3772  0.3909
   11MOL   C635 7255   5.706   6.855   7.607 -0.1726 -0.6520 -0.4072
   11MOL   C636 7256   5.845   6.877   7.672 -0.4432 -0.4613 -0.7728
   11MOL   C637 7257   5.868   6.787   0.098  0.3442 -0.4746 -0.3975
   11MOL   C638 7258   6.008   6.786   0.154 -0.1570  0.4170  0.9241
   11MOL   C639 7259   6.043   6.911   0.230 -0.1989 -0.6647  0.0263
   11MOL   H640 7260   5.036   6.994   7.378 -1.8640 -0.5503 -1.7285
   11MOL   H641 7261   5.128   6.913   7.268 -2.3165 -0.6037  1.7191
   11MOL   H642 7262   5.328   7.079   7.300  1.3822  0.2442  1.6160
   11MOL   H643 7263   5.215   6.978   7.563 -1.0609 -2.0674 -1.8209
   11MOL   H644 7264   5.277   6.859   7.458  0.3553  0.3478 -1.5186
   11MOL   H645 7265   5.427   6.904   7.628 -0.4208  1.2288  0.1759
   11MOL   H646 7266   5.449   7.072   7.583 -0.1961 -0.2139  1.2384
   11MOL   H647 7267   5.528   6.970   7.336 -0.3161  0.1644 -0.3849
   11MOL   H648 7268   5.519   6.826   7.424  1.2568 -0.6016 -2.3293
   11MOL   H649 7269   5.706   7.044   7.485 -0.4840 -0.2744 -1.1434
   11MOL   H650 7270   5.743   6.896   7.404 -1.6274 -1.0126 -0.3266
   11MOL   H651 7271   5.685   6.749   7.589 -3.1214 -0.5328  1.9383
   11MOL   H652 7272   5.630   6.874   7.683  1.7766  2.2815  0.8529
   11MOL   H653 7273   5.849   6.979   0.007  1.7189 -0.1913 -1.6473
   11MOL   H654 7274   5.919   6.861   7.593 -0.5991 -0.8894 -0.8341
   11MOL   H655 7275   5.846   6.689   0.055  0.7943 -1.2737  1.1777
   11MOL   H656 7276   5.809   6.806   0.187 -1.2647  0.6186 -1.6584
   11MOL   H657 7277   6.076   6.753   0.076  1.6384  2.1508  1.6919
   11MOL   H658 7278   6.008   6.704   0.226  2.2279 -0.3628  0.0755
   11MOL   H659 7279   6.054   6.992   0.157 -0.0326 -0.8910 -0.1980
   11MOL   H660 7280   6.140   6.893   0.275  0.2929 -1.6575 -1.4013
   11MOL   H661 7281   5.971   6.945   0.305  0.5554  2.6074 -0.6412
   11MOL   H662 7282   5.224   7.149   7.416 -0.0599  0.4649 -0.1542
   12MOL     C1 7283   2.456   5.037   5.573  0.2364  0.0695 -0.5523
   12MOL     C2 7284   2.403   4.983   5.708 -0.7461  0.3709 -0.3501
   12MOL     C3 7285   2.514   4.894   5.765  0.5345 -0.1085 -0.2266
   12MOL     C4 7286   2.478   4.825   5.898 -0.2393 -0.1574  0.2088
   12MOL     C5 7287   2.565   4.704   5.928  0.4117  0.7285 -0.5749
   12MOL     C6 7288   2.523   4.636   6.059 -0.3420  0.2114 -0.3359
   12MOL     C7 7289   2.387   4.547   6.034  0.0638 -0.2576  0.6397
   12MOL     C8 7290   2.376   4.417   6.114  0.6200  0.2852  0.0227
   12MOL     C9 7291   2.340   4.433   6.264 -0.2950  0.2781  0.0230
   12MOL    C10 7292   2.338   4.302   6.341 -0.1809 -0.0304  0.2175
   12MOL    C11 7293   2.339   4.326   6.490 -0.3168 -0.3823 -0.2229
   12MOL    H12 7294   2.545   5.096   5.593 -1.4226  1.6916  2.3123
   12MOL    H13 7295   2.374   5.098   5.535 -1.3640 -1.1277  0.8642
   12MOL    H14 7296   2.316   4.920   5.690  0.3134 -1.4149  0.6068
   12MOL    H15 7297   2.606   4.951   5.781  0.0257  0.3326  1.2522
   12MOL    H16 7298   2.543   4.816   5.696  0.0892 -1.3337  0.9395
   12MOL    H17 7299   2.373   4.795   5.893 -0.5222  0.9324 -0.9272
   12MOL    H18 7300   2.497   4.891   5.982  1.0636 -2.6295  1.9079
   12MOL    H19 7301   2.564   4.637   5.843 -0.5069 -1.9123  1.4294
   12MOL    H20 7302   2.670   4.730   5.939  0.2929  1.1119 -0.3470
   12MOL    H21 7303   2.508   4.700   6.146  1.7138 -0.0101  0.2138
   12MOL    H22 7304   2.603   4.578   6.105 -0.7071  0.7130  0.9526
   12MOL    H23 7305   2.302   4.613   6.047  1.2371  1.3565  0.2817
   12MOL    H24 7306   2.389   4.529   5.927 -0.6615  1.8205  0.2531
   12MOL    H25 7307   2.471   4.368   6.091  1.2513  0.8108  1.4773
   12MOL    H26 7308   2.303   4.353   6.064  1.3039 -0.7180  0.2780
   12MOL    H27 7309   2.247   4.490   6.268 -0.4564 -0.0342  0.9410
   12MOL    H28 7310   2.412   4.504   6.302 -0.9898  0.9023  0.1868
   12MOL    H29 7311   2.412   4.226   6.314 -1.5184 -0.4163 -2.4983
   12MOL    H30 7312   2.240   4.256   6.326 -1.0598  1.2940  1.7114
   12MOL    H31 7313   2.442   4.352   6.514  0.3510 -3.6729  0.7263
   12MOL    H32 7314   2.274   4.403   6.532  2.2048  1.5422  0.3080
   12MOL    H33 7315   2.319   4.236   6.548  0.4801  0.3667  1.2593
   12MOL    H34 7316   2.473   4.958   5.499  0.8859 -1.8093  1.5430
   12MOL    C35 7317   2.369   5.082   5.817 -0.1087  0.3890  0.1678
   12MOL    C36 7318   2.234   5.151   5.782  0.4551 -0.5076 -0.1414
   12MOL    C37 7319   2.129   5.142   5.898 -0.4800  0.6930  0.4200
   12MOL    C38 7320   2.060   5.002   5.904  0.4825  0.3156  0.6764
   12MOL    C39 7321   1.986   4.971   6.034 -1.2342  0.0965 -0.3510
   12MOL    C40 7322   1.902   4.848   6.025  0.6130  0.3841  0.1288
   12MOL    C41 7323   1.985   4.725   6.074 -0.4584  0.1663 -0.9778
   12MOL    C42 7324   1.912   4.594   6.032  0.0032  0.5042  0.7333
   12MOL    C43 7325   1.975   4.468   6.070  0.2419 -0.5140  0.2990
   12MOL    C44 7326   1.889   4.342   6.053  0.2098  0.1357 -0.1030
   12MOL    C45 7327   1.975   4.221   6.110 -0.4502  0.1412  0.4519
   12MOL    H46 7328   2.443   5.160   5.839  0.8288  0.2126 -2.2777
   12MOL    H47 7329   2.344   5.036   5.913 -1.2712  0.0026 -0.3241
   12MOL    H48 7330   2.187   5.079   5.714  1.2851 -1.0296 -0.1638
   12MOL    H49 7331   2.176   5.144   5.996  1.3204  1.3569 -0.4409
   12MOL    H50 7332   2.057   5.223   5.884 -0.1801  0.4096 -3.1961
   12MOL    H51 7333   2.129   4.919   5.898  1.1745  0.7636  2.2204
   12MOL    H52 7334   1.990   4.993   5.821  2.1030 -1.6947 -0.5236
   12MOL    H53 7335   1.930   5.056   6.073 -0.3265  0.7307 -0.3929
   12MOL    H54 7336   2.061   4.956   6.113 -0.3434  0.2198 -1.1613
   12MOL    H55 7337   1.855   4.838   5.927 -0.0885 -2.0155  0.6517
   12MOL    H56 7338   1.818   4.861   6.093  0.1596 -1.2147 -0.1016
   12MOL    H57 7339   2.080   4.729   6.022 -0.1980  2.1077 -0.3974
   12MOL    H58 7340   2.008   4.729   6.181  1.3089 -0.5625 -1.3189
   12MOL    H59 7341   1.885   4.602   5.927 -0.5786  1.5595  0.9582
   12MOL    H60 7342   1.822   4.598   6.093 -0.7095 -1.4512 -0.1407
   12MOL    H61 7343   2.005   4.475   6.175 -0.4181 -1.5847  0.5700
   12MOL    H62 7344   2.064   4.453   6.009 -1.1069  1.1133 -2.1196
   12MOL    H63 7345   1.794   4.353   6.105  0.6441 -2.0788  1.2616
   12MOL    H64 7346   1.869   4.318   5.948 -0.7775  2.0519 -0.3542
   12MOL    H65 7347   1.929   4.122   6.104  3.4162 -1.7745  0.7466
   12MOL    H66 7348   2.072   4.202   6.064 -1.1748  0.1475 -1.1148
   12MOL    H67 7349   1.992   4.224   6.218 -1.1156 -0.3428  0.5790
   12MOL    C68 7350   2.247   5.294   5.716  0.2313  0.4919 -0.1975
   12MOL    C69 7351   2.123   5.361   5.660  0.3682  0.1931  0.3498
   12MOL    C70 7352   2.151   5.504   5.603  0.5141  0.0849 -0.0370
   12MOL    C71 7353   2.263   5.531   5.506 -0.3949  0.1225  0.2416
   12MOL    C72 7354   2.255   5.668   5.440  0.8916  0.7248 -0.3111
   12MOL    C73 7355   2.361   5.690   5.328 -0.2546 -0.0496  0.8135
   12MOL    C74 7356   2.371   5.829   5.277 -0.4313 -0.1294  0.2727
   12MOL    C75 7357   2.470   5.847   5.157 -0.0894  0.0924 -0.3925
   12MOL    C76 7358   2.511   5.990   5.118  0.2217  0.1269  0.0681
   12MOL    C77 7359   2.617   6.010   5.012  0.0218 -0.4116  0.2389
   12MOL    C78 7360   2.603   6.136   4.929 -0.7310 -0.1424 -0.1048
   12MOL    H79 7361   2.328   5.286   5.644  1.2505  0.2385  0.9718
   12MOL    H80 7362   2.288   5.338   5.807  0.9457 -2.3580  0.9077
   12MOL    H81 7363   2.058   5.375   5.746  0.3944  0.1764  0.3718
   12MOL    H82 7364   2.180   5.555   5.695 -2.0476  0.1502  0.7668
   12MOL    H83 7365   2.060   5.533   5.551  0.3751 -0.0634  0.1209
   12MOL    H84 7366   2.358   5.516   5.556 -0.8772 -0.3541  1.0317
   12MOL    H85 7367   2.258   5.442   5.443 -0.3233  0.2799  0.0134
   12MOL    H86 7368   2.260   5.746   5.517 -4.4532  2.1247 -1.2097
   12MOL    H87 7369   2.158   5.694   5.398 -0.2477 -1.7294  0.7483
   12MOL    H88 7370   2.461   5.657   5.357  1.0864  2.4235 -0.8062
   12MOL    H89 7371   2.343   5.619   5.247 -0.1735  1.7509 -0.8254
   12MOL    H90 7372   2.392   5.898   5.359  0.5173 -0.1983  0.0902
   12MOL    H91 7373   2.275   5.870   5.246 -0.3352 -0.3733 -0.3425
   12MOL    H92 7374   2.562   5.791   5.177 -0.2656 -0.0067  0.1583
   12MOL    H93 7375   2.436   5.790   5.070  1.1270 -0.9626 -0.2043
   12MOL    H94 7376   2.415   6.035   5.091  0.2607 -1.3909 -2.7182
   12MOL    H95 7377   2.538   6.035   5.214  0.9762 -0.5380  0.1659
   12MOL    H96 7378   2.708   6.003   5.072  0.0684 -1.4609  0.0685
   12MOL    H97 7379   2.609   5.930   4.937 -0.9967  1.0740 -1.2731
   12MOL    H98 7380   2.519   6.138   4.860 -0.5486  0.8240 -0.3164
   12MOL    H99 7381   2.690   6.151   4.864  1.1203 -2.1920  1.8030
   12MOL   H100 7382   2.587   6.215   5.002  2.1563 -0.2314  0.7061
   12MOL   C101 7383   2.060   5.269   5.548  0.2076  0.1297  0.2576
   12MOL   C102 7384   1.917   5.306   5.503  0.2572  0.3542 -0.9182
   12MOL   C103 7385   1.807   5.210   5.558 -0.2005 -0.9058 -0.0441
   12MOL   C104 7386   1.770   5.235   5.701 -0.0083 -0.4967  0.4246
   12MOL   C105 7387   1.649   5.157   5.753  0.1554 -0.1639 -0.3281
   12MOL   C106 7388   1.621   5.192   5.898  0.2109 -0.3216 -0.4217
   12MOL   C107 7389   1.470   5.161   5.931 -0.2840 -0.0796  0.4198
   12MOL   C108 7390   1.415   5.185   6.079  0.3968 -0.1442  0.0456
   12MOL   C109 7391   1.434   5.331   6.136 -0.1873 -0.7639  0.3220
   12MOL   C110 7392   1.326   5.431   6.093 -0.1435 -0.2514 -0.0606
   12MOL   C111 7393   1.340   5.575   6.147 -0.2271 -0.7001 -0.5963
   12MOL   H112 7394   2.123   5.256   5.461 -0.7803 -2.0661 -0.1579
   12MOL   H113 7395   2.052   5.166   5.581  0.6777 -0.3032 -0.9519
   12MOL   H114 7396   1.899   5.402   5.550  1.0579 -0.2616  0.6754
   12MOL   H115 7397   1.714   5.214   5.501  0.2216 -1.6111 -0.7927
   12MOL   H116 7398   1.835   5.105   5.545  0.1585 -0.6453 -1.4172
   12MOL   H117 7399   1.862   5.228   5.759 -0.0295 -0.2942  0.4850
   12MOL   H118 7400   1.744   5.341   5.692 -1.4973 -0.9309 -0.4578
   12MOL   H119 7401   1.559   5.174   5.695  2.3102  2.3497 -3.0643
   12MOL   H120 7402   1.661   5.049   5.746 -1.3498 -0.2126 -2.1578
   12MOL   H121 7403   1.683   5.134   5.966 -1.0841  0.1041  1.1774
   12MOL   H122 7404   1.637   5.299   5.912  0.1142 -0.2564 -0.8040
   12MOL   H123 7405   1.447   5.058   5.906 -0.8489 -0.1533  1.2103
   12MOL   H124 7406   1.405   5.210   5.858 -0.8306 -0.0614  0.9071
   12MOL   H125 7407   1.313   5.157   6.104  0.4034  0.4483  0.7710
   12MOL   H126 7408   1.482   5.122   6.138 -0.5152 -0.6372  0.5649
   12MOL   H127 7409   1.404   5.321   6.241 -0.3530 -1.3979  0.2121
   12MOL   H128 7410   1.533   5.375   6.120  0.3798 -2.0624  0.2266
   12MOL   H129 7411   1.225   5.403   6.122  0.5980 -1.7959  1.0681
   12MOL   H130 7412   1.340   5.442   5.986  0.2220  3.5136  0.3053
   12MOL   H131 7413   1.239   5.612   6.134  0.7745  2.0130 -0.9892
   12MOL   H132 7414   1.371   5.578   6.252  2.0209  1.6260 -1.2711
   12MOL   H133 7415   1.409   5.642   6.095 -0.6018  0.8592  0.8635
   12MOL   C134 7416   1.891   5.318   5.356  0.1405 -0.3957 -0.6062
   12MOL   C135 7417   1.776   5.418   5.317  0.1688  0.6344 -0.1784
   12MOL   C136 7418   1.705   5.366   5.185  0.0084  0.2324 -1.1802
   12MOL   C137 7419   1.790   5.381   5.056 -0.2104  0.9710 -0.4036
   12MOL   C138 7420   1.721   5.300   4.938 -0.4499 -0.4222  0.4441
   12MOL   C139 7421   1.813   5.282   4.814  0.2327 -0.0956  0.0242
   12MOL   C140 7422   1.914   5.164   4.836  0.8385 -0.7249  0.0018
   12MOL   C141 7423   1.980   5.116   4.709 -0.1280 -0.4565  0.0794
   12MOL   C142 7424   2.063   4.986   4.712 -0.0178  0.2144 -0.6874
   12MOL   C143 7425   2.096   4.936   4.568 -0.4074  0.2967  0.1079
   12MOL   C144 7426   2.142   4.792   4.564  0.3919 -0.4383 -0.0704
   12MOL   H145 7427   1.982   5.349   5.306 -0.0553 -0.8418 -1.2383
   12MOL   H146 7428   1.880   5.220   5.309 -0.6111 -0.8453  0.4644
   12MOL   H147 7429   1.698   5.423   5.393 -1.6832 -1.4690 -1.8833
   12MOL   H148 7430   1.618   5.429   5.167 -0.9117 -0.4618  0.6737
   12MOL   H149 7431   1.679   5.262   5.204 -1.9347  0.7889 -0.6575
   12MOL   H150 7432   1.803   5.487   5.034 -0.2529  1.1586  0.4836
   12MOL   H151 7433   1.887   5.333   5.071  0.5347  1.0225 -4.3185
   12MOL   H152 7434   1.695   5.202   4.978  0.6510 -0.0132  2.1760
   12MOL   H153 7435   1.623   5.346   4.922  0.3302  1.4585  1.0293
   12MOL   H154 7436   1.756   5.251   4.726  0.6187  0.2441 -0.3441
   12MOL   H155 7437   1.867   5.375   4.798 -1.6178  1.3078  1.5636
   12MOL   H156 7438   1.994   5.192   4.905 -1.1744  1.1838  1.6536
   12MOL   H157 7439   1.861   5.080   4.880 -0.3466 -0.5752 -1.1310
   12MOL   H158 7440   1.899   5.091   4.640 -0.2001 -2.9131  1.0008
   12MOL   H159 7441   2.047   5.190   4.664 -0.5757 -0.4081 -0.5126
   12MOL   H160 7442   2.153   5.003   4.770 -0.1475 -0.3128 -0.3348
   12MOL   H161 7443   1.997   4.920   4.767 -1.0291 -0.7719 -3.0199
   12MOL   H162 7444   2.007   4.940   4.506 -0.1953  0.4777 -0.1898
   12MOL   H163 7445   2.151   5.004   4.503 -1.0711  0.6325 -0.1076
   12MOL   H164 7446   2.156   4.763   4.460  3.9878  0.7325  0.0098
   12MOL   H165 7447   2.052   4.744   4.604  0.0648 -0.4574 -0.8301
   12MOL   H166 7448   2.228   4.764   4.625 -0.1647  1.4548  1.6339
   12MOL   C167 7449   1.843   5.556   5.303 -0.2263 -0.3835 -0.0913
   12MOL   C168 7450   1.752   5.666   5.241  0.3405 -0.1642  0.3837
   12MOL   C169 7451   1.829   5.789   5.177 -0.1755  0.3985 -0.2124
   12MOL   C170 7452   1.907   5.765   5.049  0.1187 -0.0332 -0.5852
   12MOL   C171 7453   2.001   5.894   5.010 -0.3980 -0.4854 -0.2397
   12MOL   C172 7454   1.915   6.013   4.974  0.0745  0.5917 -0.5174
   12MOL   C173 7455   1.960   6.067   4.832 -0.3064  0.4387  0.3210
   12MOL   C174 7456   1.898   6.202   4.792  0.2263 -0.5159 -0.6884
   12MOL   C175 7457   1.947   6.250   4.655  0.3175 -0.1452  0.6087
   12MOL   C176 7458   1.956   6.405   4.649 -0.0648 -0.4838 -0.2189
   12MOL   C177 7459   2.078   6.455   4.723 -0.3051 -0.2993  0.2051
   12MOL   H178 7460   1.890   5.580   5.398 -2.5029  3.4994  0.1758
   12MOL   H179 7461   1.926   5.554   5.232 -0.9300 -2.6223 -0.8956
   12MOL   H180 7462   1.706   5.623   5.153 -0.7338 -0.6451  1.1693
   12MOL   H181 7463   1.892   5.836   5.253  3.7223  0.4610 -3.3235
   12MOL   H182 7464   1.758   5.868   5.152  0.3447  0.1620 -2.5447
   12MOL   H183 7465   1.966   5.673   5.045  2.2916  1.3251 -0.9514
   12MOL   H184 7466   1.837   5.732   4.973 -0.9299  1.4255 -0.2601
   12MOL   H185 7467   2.062   5.859   4.927  1.0263  2.6793 -0.6215
   12MOL   H186 7468   2.067   5.912   5.096  0.1586  0.3991 -0.8472
   12MOL   H187 7469   1.810   5.987   4.958 -0.1510  0.0874  1.6543
   12MOL   H188 7470   1.917   6.100   5.039 -0.5339  1.8180 -2.1278
   12MOL   H189 7471   1.951   5.992   4.754 -0.0630  1.1407 -0.3898
   12MOL   H190 7472   2.068   6.085   4.838 -0.0246 -1.3085  0.8650
   12MOL   H191 7473   1.789   6.201   4.794  0.2264 -1.2701 -0.9680
   12MOL   H192 7474   1.924   6.279   4.864 -1.3801 -1.1776  0.6375
   12MOL   H193 7475   1.881   6.212   4.576  1.0164  0.6093 -0.3436
   12MOL   H194 7476   2.040   6.200   4.627  0.7713  0.4448  1.0644
   12MOL   H195 7477   1.875   6.451   4.706 -0.0570  1.4061 -1.6974
   12MOL   H196 7478   1.957   6.443   4.547  1.7162  2.3367  0.7762
   12MOL   H197 7479   2.165   6.411   4.674 -0.6028 -0.1231 -0.4968
   12MOL   H198 7480   2.087   6.425   4.827 -0.8866 -1.9498 -0.1994
   12MOL   H199 7481   2.091   6.562   4.710  2.0615 -0.6450 -0.4479
   12MOL   C200 7482   1.654   5.708   5.349  0.2143 -0.2840  0.2392
   12MOL   C201 7483   1.550   5.811   5.301  0.4688 -0.2217  0.0103
   12MOL   C202 7484   1.554   5.930   5.403  0.2774 -0.1584  0.2261
   12MOL   C203 7485   1.460   6.046   5.380 -0.0063  0.1971 -0.2771
   12MOL   C204 7486   1.538   6.175   5.365 -0.5769  0.6183 -0.2725
   12MOL   C205 7487   1.622   6.187   5.239 -0.3556 -0.4792  0.0490
   12MOL   C206 7488   1.663   6.328   5.218 -0.1436 -0.7839  0.2362
   12MOL   C207 7489   1.738   6.349   5.080 -0.9376 -0.2127 -0.1826
   12MOL   C208 7490   1.772   6.492   5.033  0.6321 -0.0445  0.3755
   12MOL   C209 7491   1.906   6.526   5.107  0.0709  0.0212  0.2552
   12MOL   C210 7492   1.966   6.661   5.056 -0.4513 -0.1747  0.0751
   12MOL   H211 7493   1.604   5.623   5.395 -3.4204  1.5287 -0.1949
   12MOL   H212 7494   1.720   5.737   5.430  0.8129  0.6597 -0.5705
   12MOL   H213 7495   1.571   5.849   5.201  1.1164 -1.0329 -0.1716
   12MOL   H214 7496   1.660   5.955   5.407  0.7011 -1.8424  0.0769
   12MOL   H215 7497   1.528   5.893   5.502 -2.9780  1.0515 -0.1175
   12MOL   H216 7498   1.389   6.046   5.463  0.6831 -3.1418  0.3904
   12MOL   H217 7499   1.409   6.022   5.287 -0.3142 -1.2374  0.2483
   12MOL   H218 7500   1.580   6.204   5.461 -2.7279 -0.2830  0.9571
   12MOL   H219 7501   1.459   6.250   5.365 -0.6442  0.5538  0.5877
   12MOL   H220 7502   1.712   6.126   5.241 -0.3544 -0.4738  0.2491
   12MOL   H221 7503   1.559   6.172   5.151 -0.2506  0.6513 -0.2303
   12MOL   H222 7504   1.740   6.345   5.293  0.0349  0.8391 -0.2834
   12MOL   H223 7505   1.585   6.401   5.237  0.1537 -0.7549  1.3648
   12MOL   H224 7506   1.678   6.304   5.001 -2.3785 -1.5579  1.6375
   12MOL   H225 7507   1.827   6.286   5.072 -0.2765  0.8496 -1.4606
   12MOL   H226 7508   1.696   6.569   5.050  1.1482  0.8002 -1.0662
   12MOL   H227 7509   1.780   6.488   4.924 -0.6072 -2.8519  0.3311
   12MOL   H228 7510   1.889   6.547   5.213 -1.5441 -1.4669  0.3155
   12MOL   H229 7511   1.982   6.448   5.095 -0.9235 -1.2639  2.0949
   12MOL   H230 7512   2.043   6.704   5.120 -1.4063  0.4359  0.8320
   12MOL   H231 7513   1.893   6.740   5.035  0.0052 -0.0851 -1.2678
   12MOL   H232 7514   2.019   6.650   4.961  0.1408  3.0257 -0.0277
   12MOL   C233 7515   1.407   5.761   5.297  0.2062  0.3491  0.6937
   12MOL   C234 7516   1.337   5.776   5.154 -0.3459 -0.5751 -0.3826
   12MOL   C235 7517   1.178   5.777   5.174 -0.0927 -0.8907 -0.2330
   12MOL   C236 7518   1.109   5.653   5.222  0.5190  0.0414 -0.8200
   12MOL   C237 7519   0.954   5.675   5.243 -0.7380  0.0598 -0.1750
   12MOL   C238 7520   0.866   5.551   5.261 -0.0681 -0.5828 -0.1272
   12MOL   C239 7521   0.720   5.585   5.296  0.2473  0.4556 -0.2237
   12MOL   C240 7522   0.665   5.470   5.385  0.6635 -0.3504  0.2513
   12MOL   C241 7523   0.557   5.514   5.485  0.0738 -0.2022  0.3362
   12MOL   C242 7524   0.481   5.408   5.571 -0.1669 -0.5566  0.0895
   12MOL   C243 7525   0.569   5.338   5.673 -0.2120 -0.3120 -0.3435
   12MOL   H244 7526   1.337   5.810   5.365 -0.9653  1.2967 -1.1290
   12MOL   H245 7527   1.395   5.660   5.334 -1.1017 -0.0544 -0.7800
   12MOL   H246 7528   1.368   5.872   5.112 -1.1035 -0.9840 -1.9099
   12MOL   H247 7529   1.164   5.854   5.249 -1.1240 -0.4675 -0.8472
   12MOL   H248 7530   1.129   5.825   5.089  0.4635  1.4737  0.7391
   12MOL   H249 7531   1.139   5.619   5.321 -0.0701 -2.3843 -1.4455
   12MOL   H250 7532   1.134   5.573   5.152  1.6933  0.2396 -0.6297
   12MOL   H251 7533   0.909   5.725   5.157 -2.7537  0.4356  1.0538
   12MOL   H252 7534   0.938   5.732   5.335  0.3475  0.0224  0.0412
   12MOL   H253 7535   0.914   5.485   5.333  0.3096 -0.0347  0.1230
   12MOL   H254 7536   0.848   5.492   5.171 -1.5728  0.5321 -0.5746
   12MOL   H255 7537   0.710   5.674   5.358  1.5012 -0.2663  1.0602
   12MOL   H256 7538   0.662   5.602   5.205  0.7574  1.1851 -0.4190
   12MOL   H257 7539   0.635   5.391   5.316  0.5759  1.2009 -1.4971
   12MOL   H258 7540   0.746   5.437   5.449  1.3313  1.2437  0.2407
   12MOL   H259 7541   0.595   5.587   5.557 -1.4630 -0.7239  1.7127
   12MOL   H260 7542   0.484   5.572   5.428 -2.2565 -0.8008  2.6037
   12MOL   H261 7543   0.436   5.340   5.499  1.5970 -0.7700 -0.8361
   12MOL   H262 7544   0.400   5.453   5.629 -0.4207 -0.6224 -0.2110
   12MOL   H263 7545   0.645   5.279   5.622  0.4725  0.4119 -0.1489
   12MOL   H264 7546   0.505   5.273   5.733 -1.0107 -2.1918 -3.1317
   12MOL   H265 7547   0.631   5.398   5.739  1.6166 -1.5397 -0.9336
   12MOL   C266 7548   1.376   5.667   5.050 -0.3646  0.7007  1.0132
   12MOL   C267 7549   1.336   5.691   4.905  0.3597  0.6636 -0.0700
   12MOL   C268 7550   1.246   5.571   4.847 -0.4145 -0.1288 -0.1937
   12MOL   C269 7551   1.312   5.437   4.827  0.9506  0.0218 -0.7181
   12MOL   C270 7552   1.228   5.326   4.756  0.0040  0.7561 -0.4360
   12MOL   C271 7553   1.312   5.212   4.693  0.3055 -0.1244 -0.2583
   12MOL   C272 7554   1.357   5.110   4.793  0.2488 -0.2620 -0.3673
   12MOL   C273 7555   1.466   5.015   4.746  0.2840  0.3995  1.0313
   12MOL   C274 7556   1.503   4.904   4.840  0.5696 -0.4756  0.3911
   12MOL   C275 7557   1.621   4.822   4.790  0.5982  0.1224  0.2654
   12MOL   C276 7558   1.666   4.707   4.885  0.0714  0.8346  0.5349
   12MOL   H277 7559   1.336   5.571   5.083  1.8153  0.0178  1.7421
   12MOL   H278 7560   1.482   5.650   5.067 -0.2561  1.1796  0.8188
   12MOL   H279 7561   1.262   5.771   4.904  1.3001  1.5266 -0.9007
   12MOL   H280 7562   1.157   5.546   4.905  0.6432  1.8992  2.4375
   12MOL   H281 7563   1.211   5.588   4.745 -0.6899  0.4409 -0.0088
   12MOL   H282 7564   1.351   5.392   4.918  1.9198  1.1123 -0.5862
   12MOL   H283 7565   1.393   5.459   4.758  0.2938 -0.8141 -1.7759
   12MOL   H284 7566   1.174   5.371   4.673  0.5415  1.0011 -0.6539
   12MOL   H285 7567   1.161   5.278   4.828  1.3392 -1.4730 -0.6335
   12MOL   H286 7568   1.401   5.255   4.649 -1.0373  3.0896  0.0824
   12MOL   H287 7569   1.272   5.162   4.605  0.9378  0.3794 -0.8305
   12MOL   H288 7570   1.391   5.164   4.881  1.3285  0.5359 -1.2614
   12MOL   H289 7571   1.270   5.056   4.828  0.4423 -1.4920 -1.7042
   12MOL   H290 7572   1.553   5.071   4.713  0.5791 -1.2557 -1.1260
   12MOL   H291 7573   1.421   4.966   4.660  0.7883 -0.8581  1.4648
   12MOL   H292 7574   1.532   4.958   4.930 -0.6009 -1.4412  1.3536
   12MOL   H293 7575   1.419   4.838   4.856 -1.4192  1.8300 -0.2107
   12MOL   H294 7576   1.709   4.883   4.771  1.2026 -1.3023 -1.7052
   12MOL   H295 7577   1.578   4.793   4.694  0.9016  0.6150 -0.0190
   12MOL   H296 7578   1.703   4.744   4.981 -0.3469  1.4653  0.4558
   12MOL   H297 7579   1.747   4.650   4.839  1.1635  1.4010  1.7117
   12MOL   H298 7580   1.580   4.642   4.896  0.9657 -0.6412 -0.8975
   12MOL   C299 7581   1.461   5.729   4.816  1.0306  0.5401  0.0322
   12MOL   C300 7582   1.513   5.879   4.817 -0.4901  0.1440 -0.2218
   12MOL   C301 7583   1.403   5.980   4.798  0.4619 -0.0420  0.1787
   12MOL   C302 7584   1.447   6.128   4.822 -0.3681  0.1504  0.2810
   12MOL   C303 7585   1.344   6.234   4.779 -0.2533  0.3922  0.2537
   12MOL   C304 7586   1.384   6.378   4.783 -0.6799  0.0883 -0.0061
   12MOL   C305 7587   1.277   6.486   4.749  0.4345  0.8549 -0.4288
   12MOL   C306 7588   1.335   6.626   4.735  0.6321  0.3170 -0.0990
   12MOL   C307 7589   1.234   6.742   4.719 -0.0211 -0.1229  0.0842
   12MOL   C308 7590   1.309   6.869   4.718 -0.1053 -0.3726 -1.1952
   12MOL   C309 7591   1.263   6.990   4.641 -0.2609 -0.6949 -0.4598
   12MOL   H310 7592   1.436   5.704   4.713 -0.9676 -1.9112  1.0717
   12MOL   H311 7593   1.535   5.652   4.839 -1.4865 -1.4479  1.6919
   12MOL   H312 7594   1.559   5.893   4.915  0.7407  0.3106 -0.8160
   12MOL   H313 7595   1.366   5.966   4.696  3.4483 -1.0837 -0.8367
   12MOL   H314 7596   1.326   5.957   4.870  1.0724 -3.9173 -0.3279
   12MOL   H315 7597   1.470   6.144   4.927 -1.8042  1.1061  0.4680
   12MOL   H316 7598   1.542   6.148   4.772 -0.4793 -1.2862 -0.5433
   12MOL   H317 7599   1.330   6.217   4.673 -1.8414  0.6656  0.4101
   12MOL   H318 7600   1.243   6.227   4.820 -0.8768  0.4508 -1.2757
   12MOL   H319 7601   1.456   6.389   4.701  1.1401 -3.3691  1.0274
   12MOL   H320 7602   1.440   6.400   4.873 -1.0225  1.3598 -0.0973
   12MOL   H321 7603   1.231   6.463   4.653 -1.8499  0.1907  0.7852
   12MOL   H322 7604   1.204   6.481   4.830  0.6548  1.4891 -0.1900
   12MOL   H323 7605   1.396   6.623   4.645 -1.2485 -1.3371 -1.3416
   12MOL   H324 7606   1.404   6.650   4.817 -1.6686 -0.6516  2.1736
   12MOL   H325 7607   1.169   6.750   4.805  1.3143  1.6424  0.9545
   12MOL   H326 7608   1.173   6.734   4.629 -1.0842  2.0927  0.5953
   12MOL   H327 7609   1.412   6.853   4.685  0.7401  0.5173  0.9242
   12MOL   H328 7610   1.325   6.900   4.821  1.4730  2.2586 -2.1855
   12MOL   H329 7611   1.323   7.081   4.636 -1.9407  0.3538 -2.1527
   12MOL   H330 7612   1.240   6.955   4.540 -1.6214 -1.0742 -0.0274
   12MOL   H331 7613   1.163   7.022   4.668 -0.7383  0.5874 -3.4835
   12MOL   C332 7614   1.643   5.900   4.727  0.3801  0.3153  0.1366
   12MOL   C333 7615   1.629   5.871   4.571 -0.2691  0.3840  0.9364
   12MOL   C334 7616   1.763   5.821   4.507  0.0014  0.5827  0.0783
   12MOL   C335 7617   1.824   5.693   4.576  0.6305 -0.0901  0.0703
   12MOL   C336 7618   1.732   5.576   4.583  0.1453  0.0551 -0.6638
   12MOL   C337 7619   1.659   5.544   4.448 -0.4217 -1.0842 -0.1587
   12MOL   C338 7620   1.572   5.415   4.458 -0.1696 -0.4931 -0.0596
   12MOL   C339 7621   1.486   5.408   4.334 -0.0581  0.9248  0.3472
   12MOL   C340 7622   1.396   5.286   4.343  0.5818 -0.0734 -0.1150
   12MOL   C341 7623   1.330   5.253   4.210  0.4281  0.3684  0.0872
   12MOL   C342 7624   1.226   5.141   4.212 -0.3991 -0.0034  0.2178
   12MOL   H343 7625   1.671   6.004   4.744  0.5622  0.2152  0.4439
   12MOL   H344 7626   1.722   5.842   4.774  0.0549  0.6925  1.1619
   12MOL   H345 7627   1.545   5.802   4.562  1.2168 -1.4315  0.7458
   12MOL   H346 7628   1.840   5.898   4.517  0.5220 -0.2711  3.3229
   12MOL   H347 7629   1.752   5.810   4.399 -0.9325  1.8191  0.0345
   12MOL   H348 7630   1.908   5.659   4.515  1.6066 -3.5420  3.2067
   12MOL   H349 7631   1.858   5.713   4.677 -2.3935  2.1313  0.7221
   12MOL   H350 7632   1.781   5.483   4.610  0.8751  0.6029 -0.0839
   12MOL   H351 7633   1.657   5.590   4.661  1.3431 -3.1768  1.1604
   12MOL   H352 7634   1.732   5.532   4.367  1.3568  0.8760  1.0889
   12MOL   H353 7635   1.589   5.624   4.424 -0.4300 -0.4344  1.9212
   12MOL   H354 7636   1.516   5.412   4.552  0.4069 -1.8851  0.2574
   12MOL   H355 7637   1.634   5.326   4.463 -0.3879 -0.8252 -2.8815
   12MOL   H356 7638   1.426   5.499   4.325  0.5535  1.2693 -0.2683
   12MOL   H357 7639   1.552   5.401   4.248  0.3935 -0.4206  0.7905
   12MOL   H358 7640   1.320   5.311   4.417 -0.3294 -1.4394 -0.5737
   12MOL   H359 7641   1.442   5.198   4.388  1.1423 -0.0925 -0.7226
   12MOL   H360 7642   1.403   5.234   4.132  1.7138 -0.8657  1.5530
   12MOL   H361 7643   1.281   5.339   4.164 -1.3695 -1.1297 -0.8804
   12MOL   H362 7644   1.267   5.046   4.246  0.6302  0.4277  0.2103
   12MOL   H363 7645   1.155   5.168   4.289 -1.5932  2.6673 -1.7287
   12MOL   H364 7646   1.168   5.115   4.123 -0.6978  2.4966 -0.3716
   12MOL   C365 7647   1.589   5.998   4.495  0.1725  0.8771  0.3508
   12MOL   C366 7648   1.514   5.979   4.362  0.1689 -0.0347 -0.4233
   12MOL   C367 7649   1.366   5.958   4.387 -0.0963  0.4957 -0.2785
   12MOL   C368 7650   1.271   5.938   4.267 -0.0763 -0.4584 -0.1957
   12MOL   C369 7651   1.156   5.838   4.290  0.3535  0.6045 -0.6321
   12MOL   C370 7652   1.201   5.692   4.332  0.0004 -0.1748 -0.0744
   12MOL   C371 7653   1.100   5.597   4.402 -0.0492 -0.3075  1.1244
   12MOL   C372 7654   0.971   5.579   4.319  0.1686 -0.4807  0.3895
   12MOL   C373 7655   1.002   5.482   4.202 -0.6592  0.5237 -0.2608
   12MOL   C374 7656   0.878   5.446   4.116  0.2194  0.4154 -0.2248
   12MOL   C375 7657   0.836   5.561   4.021  0.1625  0.0549 -0.5667
   12MOL   H376 7658   1.532   6.071   4.551  1.1111  2.4078 -0.6393
   12MOL   H377 7659   1.678   6.060   4.484 -0.1334  0.9615 -1.8427
   12MOL   H378 7660   1.554   5.895   4.305  0.7537 -1.2729  1.7612
   12MOL   H379 7661   1.327   6.032   4.457 -0.3654 -0.7547  0.9186
   12MOL   H380 7662   1.346   5.869   4.446  2.7742 -0.2895 -0.3963
   12MOL   H381 7663   1.329   5.904   4.182 -0.0227  4.0261 -2.1052
   12MOL   H382 7664   1.246   6.038   4.232  1.1825  0.6908  2.0785
   12MOL   H383 7665   1.097   5.838   4.198  0.1573 -0.8993 -0.5153
   12MOL   H384 7666   1.084   5.879   4.361  1.2658  1.5125 -0.2167
   12MOL   H385 7667   1.296   5.697   4.384 -0.5394 -2.2063  1.1636
   12MOL   H386 7668   1.233   5.638   4.243  2.3794  2.1297 -0.6586
   12MOL   H387 7669   1.149   5.501   4.415 -1.2063 -0.7727  2.1881
   12MOL   H388 7670   1.077   5.643   4.498 -1.4803  1.4288 -0.0152
   12MOL   H389 7671   0.914   5.668   4.295 -0.6503 -0.7333  1.3536
   12MOL   H390 7672   0.898   5.535   4.387 -1.9396 -1.4184 -2.3748
   12MOL   H391 7673   1.086   5.512   4.140  0.7990 -2.5370  0.1342
   12MOL   H392 7674   1.030   5.385   4.244  3.4483  0.9755 -1.7855
   12MOL   H393 7675   0.901   5.362   4.051 -2.0839  0.6196 -1.3564
   12MOL   H394 7676   0.788   5.425   4.173  0.1661 -0.3686 -0.6052
   12MOL   H395 7677   0.915   5.603   3.958 -0.3036  2.2007  0.2153
   12MOL   H396 7678   0.786   5.645   4.069 -2.0697 -0.7812 -1.3722
   12MOL   H397 7679   0.755   5.531   3.954 -0.6420 -0.6532  0.7059
   12MOL   C398 7680   1.539   6.106   4.272  0.3709  0.0090  0.0233
   12MOL   C399 7681   1.679   6.129   4.205  0.1374 -0.6060  0.4389
   12MOL   C400 7682   1.698   6.274   4.159  0.2232  0.1315  0.5405
   12MOL   C401 7683   1.761   6.365   4.262 -0.0878  0.1802 -0.0305
   12MOL   C402 7684   1.742   6.507   4.216  0.1807 -0.0489 -0.1794
   12MOL   C403 7685   1.777   6.607   4.335  0.7799  0.5727  0.3786
   12MOL   C404 7686   1.674   6.608   4.452  0.4382 -0.0354  0.4189
   12MOL   C405 7687   1.700   6.702   4.570  0.0785  0.5566 -0.7097
   12MOL   C406 7688   1.688   6.853   4.543  0.2433  0.1275 -0.2303
   12MOL   C407 7689   1.701   6.944   4.673  1.2507  0.6510  0.2552
   12MOL   C408 7690   1.683   7.088   4.632 -0.0025 -0.3088 -0.3937
   12MOL   H409 7691   1.503   6.188   4.335  1.9551  1.6058 -1.1306
   12MOL   H410 7692   1.462   6.106   4.195  1.5844  0.9530 -1.1910
   12MOL   H411 7693   1.751   6.112   4.285 -1.0711  1.6676  2.0685
   12MOL   H412 7694   1.608   6.312   4.111 -0.1641  0.2664  1.3595
   12MOL   H413 7695   1.762   6.267   4.071  0.3414 -0.0255  0.6393
   12MOL   H414 7696   1.721   6.335   4.358  0.5647 -0.8670 -0.0816
   12MOL   H415 7697   1.867   6.344   4.261 -0.0154  0.5475 -1.3775
   12MOL   H416 7698   1.799   6.531   4.126 -2.6754  0.7750 -1.8344
   12MOL   H417 7699   1.640   6.535   4.189 -0.7331 -0.0424  3.0991
   12MOL   H418 7700   1.781   6.709   4.297  2.4544 -0.2808 -1.8093
   12MOL   H419 7701   1.877   6.580   4.368  0.2353 -1.3696  0.5004
   12MOL   H420 7702   1.578   6.617   4.401  0.3223 -2.0842  0.2552
   12MOL   H421 7703   1.672   6.508   4.495 -0.5890  1.4499  4.0191
   12MOL   H422 7704   1.801   6.686   4.608  0.1761  0.5895 -0.9545
   12MOL   H423 7705   1.632   6.683   4.653  0.0780 -1.9119 -1.2450
   12MOL   H424 7706   1.747   6.879   4.456  2.5061  0.9138  1.5028
   12MOL   H425 7707   1.589   6.875   4.502  0.7035  1.4255 -0.6654
   12MOL   H426 7708   1.802   6.928   4.711  0.5080 -1.3490  1.4406
   12MOL   H427 7709   1.630   6.917   4.751 -0.6587  0.8273 -1.3961
   12MOL   H428 7710   1.704   7.151   4.719 -1.4330  2.2611 -1.8486
   12MOL   H429 7711   1.585   7.124   4.600 -0.2590  0.7155  1.4707
   12MOL   H430 7712   1.753   7.118   4.554 -0.4555 -0.9802 -1.0625
   12MOL   C431 7713   1.703   6.031   4.088 -0.6612  0.9936  0.2963
   12MOL   C432 7714   1.843   6.005   4.044 -0.4491 -0.0233  0.0137
   12MOL   C433 7715   1.845   5.927   3.910  0.4351 -0.3563 -0.3474
   12MOL   C434 7716   1.812   6.018   3.786  0.0702  0.0905  0.0340
   12MOL   C435 7717   1.792   5.934   3.658 -0.1412  0.2274  0.6955
   12MOL   C436 7718   1.776   6.030   3.539  0.0313 -0.4556  0.3512
   12MOL   C437 7719   1.775   5.954   3.408 -0.7157 -0.1000  0.2959
   12MOL   C438 7720   1.720   6.035   3.288  0.4259  0.4151  1.0136
   12MOL   C439 7721   1.709   5.953   3.160  0.0344 -0.4692  0.0469
   12MOL   C440 7722   1.716   6.039   3.037  0.2666 -0.5270 -0.1314
   12MOL   C441 7723   1.689   5.962   2.909  0.2098 -0.9205  0.4050
   12MOL   H442 7724   1.644   6.066   4.004 -0.9380  1.2226  0.5837
   12MOL   H443 7725   1.653   5.934   4.102  1.9169 -0.6997 -1.7978
   12MOL   H444 7726   1.902   6.096   4.040 -0.7522  0.1530 -0.3958
   12MOL   H445 7727   1.945   5.886   3.894  0.0299 -2.6564  2.5186
   12MOL   H446 7728   1.773   5.845   3.906 -0.9476  0.8512 -1.0020
   12MOL   H447 7729   1.887   6.096   3.771 -0.2492  0.5334  0.7179
   12MOL   H448 7730   1.721   6.073   3.810  0.1718 -0.7595  2.5205
   12MOL   H449 7731   1.705   5.868   3.668 -0.6884  1.0883  1.7827
   12MOL   H450 7732   1.868   5.860   3.636 -0.9418 -0.1839 -0.7577
   12MOL   H451 7733   1.850   6.110   3.530 -1.3028  0.6740 -0.7512
   12MOL   H452 7734   1.685   6.084   3.565 -0.2375 -1.1083  0.7874
   12MOL   H453 7735   1.710   5.867   3.421  1.0394 -1.7345 -1.5973
   12MOL   H454 7736   1.876   5.917   3.392 -0.7792  0.3401 -1.2514
   12MOL   H455 7737   1.621   6.074   3.310  0.2508  1.1528 -0.9445
   12MOL   H456 7738   1.787   6.121   3.275  2.4603 -1.1356  0.9564
   12MOL   H457 7739   1.624   5.886   3.170 -0.3706  0.1311  0.5859
   12MOL   H458 7740   1.786   5.876   3.152  0.3074 -0.3682  1.6315
   12MOL   H459 7741   1.820   6.070   3.031  0.3834 -0.5360  1.6054
   12MOL   H460 7742   1.655   6.129   3.045 -0.9062 -1.3031 -0.3402
   12MOL   H461 7743   1.588   5.922   2.899 -0.0617  0.2163 -1.6833
   12MOL   H462 7744   1.714   6.020   2.820  4.3285 -1.5923  1.0521
   12MOL   H463 7745   1.751   5.875   2.884 -0.0874 -0.9508 -0.2467
   12MOL   C464 7746   1.919   5.926   4.146  0.3071  0.1515 -0.3260
   12MOL   C465 7747   2.066   5.972   4.171 -0.8110  0.1464 -0.5381
   12MOL   C466 7748   2.055   6.098   4.250 -0.8503 -0.1416 -0.2402
   12MOL   C467 7749   2.184   6.171   4.307  0.6095  0.1454  0.0997
   12MOL   C468 7750   2.284   6.221   4.197 -0.5933 -0.6263 -0.0691
   12MOL   C469 7751   2.408   6.278   4.262 -0.4617 -0.0466  0.9125
   12MOL   C470 7752   2.490   6.370   4.166  0.3049 -0.0408 -0.0753
   12MOL   C471 7753   2.630   6.394   4.211  0.2562  0.2469  0.4498
   12MOL   C472 7754   2.686   6.510   4.125  0.3671 -0.3206  0.2961
   12MOL   C473 7755   2.840   6.530   4.149  0.1449  0.4073 -0.5792
   12MOL   C474 7756   2.891   6.633   4.054 -0.3558 -0.2120  0.0930
   12MOL   H475 7757   1.913   5.827   4.102  0.0005  0.2395 -0.4851
   12MOL   H476 7758   1.852   5.914   4.231 -0.2217 -0.7988 -0.8688
   12MOL   H477 7759   2.119   6.002   4.081 -2.1128 -0.1930 -1.4268
   12MOL   H478 7760   2.018   6.084   4.352  2.6768  0.1036  1.1477
   12MOL   H479 7761   1.992   6.169   4.197  1.3206  2.5744  0.6910
   12MOL   H480 7762   2.165   6.253   4.376  2.2615  0.5197  0.1271
   12MOL   H481 7763   2.236   6.098   4.368  1.4110 -0.0622 -0.8214
   12MOL   H482 7764   2.234   6.303   4.146  1.6354  2.2188  2.1608
   12MOL   H483 7765   2.316   6.143   4.128  2.5992 -0.4399  1.1306
   12MOL   H484 7766   2.387   6.330   4.356 -1.0164  1.8378 -0.2431
   12MOL   H485 7767   2.456   6.182   4.285  0.1990  0.3443  1.1622
   12MOL   H486 7768   2.502   6.340   4.062 -0.2218  1.1891 -0.5040
   12MOL   H487 7769   2.437   6.465   4.165 -0.4388 -0.4529 -0.1098
   12MOL   H488 7770   2.629   6.416   4.318  0.5003  0.9278  0.3143
   12MOL   H489 7771   2.688   6.303   4.193  1.2426  0.7351  1.1226
   12MOL   H490 7772   2.667   6.481   4.022  2.9325 -0.7549 -0.0800
   12MOL   H491 7773   2.634   6.604   4.139 -1.1288 -1.2664  1.2883
   12MOL   H492 7774   2.863   6.561   4.250  0.8904 -0.7879 -0.3746
   12MOL   H493 7775   2.912   6.451   4.130  0.4682  0.0359  2.0227
   12MOL   H494 7776   2.999   6.623   4.056 -0.2487  0.7920 -0.4699
   12MOL   H495 7777   2.863   6.734   4.085  2.8175  0.5558  0.6324
   12MOL   H496 7778   2.863   6.601   3.954  1.0642  0.1713 -0.4351
   12MOL   C497 7779   2.141   5.861   4.255  0.3791  0.0758  0.3618
   12MOL   C498 7780   2.188   5.751   4.166 -0.1140  0.4837  0.3016
   12MOL   C499 7781   2.218   5.635   4.256  0.1019 -0.5910 -0.0441
   12MOL   C500 7782   2.084   5.552   4.283  0.6957 -0.1141 -0.5481
   12MOL   C501 7783   2.030   5.464   4.161  0.8676 -0.3615  0.5028
   12MOL   C502 7784   1.930   5.356   4.208 -0.6121 -0.1485 -0.4647
   12MOL   C503 7785   1.889   5.246   4.100  0.0800  0.0421 -0.7032
   12MOL   C504 7786   1.808   5.132   4.166 -0.0914 -0.0802 -0.5255
   12MOL   C505 7787   1.693   5.075   4.087 -0.2133  0.8049 -0.0890
   12MOL   C506 7788   1.659   4.936   4.126  0.2008 -0.1319  0.1585
   12MOL   C507 7789   1.586   4.871   4.007  0.4819 -0.3390  0.5495
   12MOL   H508 7790   2.229   5.895   4.311  1.3745 -0.7986 -0.6415
   12MOL   H509 7791   2.074   5.828   4.334  0.1236  2.1542  1.0560
   12MOL   H510 7792   2.114   5.721   4.092  1.7295 -0.9390 -1.0055
   12MOL   H511 7793   2.266   5.676   4.344  0.1924  0.6942 -0.6880
   12MOL   H512 7794   2.282   5.558   4.214  0.2623 -0.3768 -0.1873
   12MOL   H513 7795   2.012   5.626   4.320  2.3602  0.4738  1.6068
   12MOL   H514 7796   2.100   5.477   4.359  0.2359  1.1508  0.8194
   12MOL   H515 7797   2.009   5.530   4.077 -0.6149 -1.7194 -0.2335
   12MOL   H516 7798   2.113   5.403   4.127  1.0647  0.4016 -0.3794
   12MOL   H517 7799   1.982   5.308   4.291 -3.1084 -0.2003  1.1259
   12MOL   H518 7800   1.838   5.401   4.245  0.1240  1.4788 -0.5346
   12MOL   H519 7801   1.823   5.291   4.027 -1.0393 -0.5598 -0.0730
   12MOL   H520 7802   1.969   5.197   4.044 -0.5171 -2.2573  0.3903
   12MOL   H521 7803   1.760   5.164   4.259  1.3146 -0.1627  0.2514
   12MOL   H522 7804   1.881   5.065   4.213 -0.0129  0.4166  0.0718
   12MOL   H523 7805   1.709   5.098   3.982 -0.0030 -0.6324 -0.3961
   12MOL   H524 7806   1.604   5.136   4.084 -0.0034  1.0762 -0.8716
   12MOL   H525 7807   1.595   4.928   4.214 -2.8076  0.5112 -1.9002
   12MOL   H526 7808   1.743   4.868   4.139 -0.8518 -1.5720 -0.3889
   12MOL   H527 7809   1.504   4.940   3.983 -0.4173 -1.3903  0.5542
   12MOL   H528 7810   1.543   4.772   4.024  0.8152 -0.2361  2.0630
   12MOL   H529 7811   1.650   4.861   3.919  1.3368 -0.9024  1.2285
   12MOL   C530 7812   2.317   5.806   4.093 -0.3311 -0.6371 -0.3472
   12MOL   C531 7813   2.355   5.755   3.949 -0.4002 -0.9261 -0.4147
   12MOL   C532 7814   2.494   5.800   3.899  0.0213  0.0643  0.7835
   12MOL   C533 7815   2.511   5.949   3.869 -0.3985 -0.4182  0.0770
   12MOL   C534 7816   2.662   5.984   3.869 -0.1578 -0.7514  0.2199
   12MOL   C535 7817   2.705   6.126   3.816 -0.1505 -1.0541 -0.1782
   12MOL   C536 7818   2.851   6.166   3.848 -0.3266 -0.0641  0.4680
   12MOL   C537 7819   2.887   6.307   3.798 -0.3986 -0.1251  0.2741
   12MOL   C538 7820   3.030   6.348   3.828  0.6546  0.8139  0.0160
   12MOL   C539 7821   3.081   6.482   3.775 -0.0509 -0.4049 -0.9197
   12MOL   C540 7822   3.231   6.517   3.792  0.8591  0.1846 -0.3965
   12MOL   H541 7823   2.312   5.915   4.083  2.4052 -0.5980 -1.9096
   12MOL   H542 7824   2.406   5.792   4.154 -0.5265  0.0175  0.0934
   12MOL   H543 7825   2.368   5.647   3.956 -1.6495 -1.0488  0.1346
   12MOL   H544 7826   2.502   5.743   3.806  1.4471 -0.6733  1.3494
   12MOL   H545 7827   2.571   5.756   3.962  1.4117 -1.2973 -1.7510
   12MOL   H546 7828   2.469   6.011   3.948 -0.9395 -1.6536  0.7598
   12MOL   H547 7829   2.460   5.980   3.778  1.1585  2.1947  0.0457
   12MOL   H548 7830   2.699   5.913   3.795 -1.5981 -1.3148  0.0212
   12MOL   H549 7831   2.705   5.961   3.967  1.8393  0.2686 -0.4025
   12MOL   H550 7832   2.635   6.193   3.866  1.4780 -0.2336  1.0266
   12MOL   H551 7833   2.679   6.141   3.711 -0.6611 -0.7284 -0.0115
   12MOL   H552 7834   2.911   6.098   3.787  0.3683  1.0564 -0.1012
   12MOL   H553 7835   2.870   6.149   3.954 -0.0340  1.3565  0.6453
   12MOL   H554 7836   2.823   6.387   3.834  1.6199  2.3233 -1.3750
   12MOL   H555 7837   2.864   6.318   3.692 -0.7743 -2.4534  0.0922
   12MOL   H556 7838   3.097   6.269   3.796 -0.2787 -0.1148  0.3060
   12MOL   H557 7839   3.031   6.361   3.936 -1.9229  0.7096  0.0838
   12MOL   H558 7840   3.020   6.555   3.827 -0.1351 -0.4573 -0.9453
   12MOL   H559 7841   3.064   6.498   3.669  1.6159  0.4975 -1.0633
   12MOL   H560 7842   3.262   6.616   3.758  0.0846 -0.0043 -1.6505
   12MOL   H561 7843   3.266   6.506   3.895  1.1144 -2.5013 -0.7359
   12MOL   H562 7844   3.284   6.438   3.740 -1.3640 -1.0276 -0.8887
   12MOL   C563 7845   2.241   5.781   3.842 -0.5900 -0.2612  0.8829
   12MOL   C564 7846   2.258   5.716   3.698  0.4239  0.0609 -0.7914
   12MOL   C565 7847   2.224   5.828   3.592  0.4093  0.1655  0.3758
   12MOL   C566 7848   2.276   5.794   3.456  0.1624  0.7776  0.1747
   12MOL   C567 7849   2.207   5.878   3.361 -0.0268 -0.2199  0.3899
   12MOL   C568 7850   2.258   5.867   3.218  0.2860 -0.2096  0.4406
   12MOL   C569 7851   2.186   5.968   3.132  0.1025  0.3844  0.2867
   12MOL   C570 7852   2.214   5.950   2.979 -0.4708  0.1936 -0.0925
   12MOL   C571 7853   2.122   6.037   2.895 -0.4091 -0.1284 -1.0759
   12MOL   C572 7854   2.115   5.995   2.741  0.6517 -0.0249  0.4695
   12MOL   C573 7855   2.049   6.107   2.654 -0.6012  0.4874 -0.0616
   12MOL   H574 7856   2.237   5.890   3.831 -1.2607 -0.3169  0.5729
   12MOL   H575 7857   2.148   5.757   3.893  0.1110  0.3730  2.5305
   12MOL   H576 7858   2.353   5.669   3.674  0.3642  0.7788 -2.4396
   12MOL   H577 7859   2.275   5.919   3.622 -1.0386  1.2591 -0.4256
   12MOL   H578 7860   2.118   5.851   3.595  0.6719  1.3144  1.3539
   12MOL   H579 7861   2.258   5.688   3.434  0.6929  0.4274  1.3727
   12MOL   H580 7862   2.383   5.807   3.440  0.2522 -0.1517 -0.0596
   12MOL   H581 7863   2.233   5.980   3.391  1.5082  0.4411 -2.8432
   12MOL   H582 7864   2.100   5.862   3.369  0.1295 -1.3047  0.3899
   12MOL   H583 7865   2.366   5.880   3.207  0.3286  0.9334  1.9102
   12MOL   H584 7866   2.232   5.766   3.187  1.6999 -0.4841  0.1258
   12MOL   H585 7867   2.081   5.973   3.161 -0.0678 -1.9309  0.2217
   12MOL   H586 7868   2.222   6.069   3.151 -2.1681  1.3372 -0.3547
   12MOL   H587 7869   2.198   5.846   2.949  0.1053 -0.4676  1.7690
   12MOL   H588 7870   2.318   5.976   2.960 -0.4228 -1.4627 -2.3870
   12MOL   H589 7871   2.139   6.142   2.916 -0.1664  0.3154 -3.3463
   12MOL   H590 7872   2.025   6.015   2.938 -0.0465 -2.1660 -1.2282
   12MOL   H591 7873   2.067   5.898   2.728  0.3969 -0.1260  1.9994
   12MOL   H592 7874   2.221   5.986   2.717  1.3234 -1.6306  3.7331
   12MOL   H593 7875   2.102   6.202   2.658  1.6642 -0.6584 -1.7355
   12MOL   H594 7876   2.053   6.082   2.548 -1.0851 -2.6122  0.6036
   12MOL   H595 7877   1.942   6.123   2.669 -0.4708  0.6273  0.7144
   12MOL   C596 7878   2.156   5.596   3.682 -0.7028 -0.2461  0.4652
   12MOL   C597 7879   2.176   5.471   3.770 -0.0431  0.2751 -0.4712
   12MOL   C598 7880   2.312   5.395   3.741  0.1897 -0.3202  0.5769
   12MOL   C599 7881   2.389   5.322   3.864 -0.3888  0.1865  0.6435
   12MOL   C600 7882   2.536   5.286   3.829  0.2450 -0.3030 -0.2079
   12MOL   C601 7883   2.632   5.406   3.870  1.1258  0.1280 -0.0140
   12MOL   C602 7884   2.643   5.437   4.013  0.1695  0.1575 -0.6380
   12MOL   C603 7885   2.780   5.507   4.034 -0.2247 -0.8608 -0.0432
   12MOL   C604 7886   2.807   5.541   4.179 -0.1505 -0.0632  0.0146
   12MOL   C605 7887   2.925   5.633   4.202 -0.6380  0.3115 -0.3326
   12MOL   C606 7888   2.934   5.691   4.338  0.0057 -0.2870  0.5403
   12MOL   H607 7889   2.053   5.633   3.679  0.3631  2.9041  1.3252
   12MOL   H608 7890   2.168   5.551   3.583  0.8120  0.0814  0.4883
   12MOL   H609 7891   2.196   5.503   3.872 -1.4356  0.3307 -0.2038
   12MOL   H610 7892   2.387   5.464   3.703  0.4684 -0.6075  0.6042
   12MOL   H611 7893   2.298   5.334   3.652  0.5508  0.4430 -0.0028
   12MOL   H612 7894   2.348   5.224   3.891 -2.5258  0.9326  0.1799
   12MOL   H613 7895   2.383   5.385   3.953  0.4661  1.3681 -0.1085
   12MOL   H614 7896   2.551   5.267   3.722  0.7742  1.5815 -0.4926
   12MOL   H615 7897   2.556   5.212   3.906  0.0253  1.9597  2.0763
   12MOL   H616 7898   2.729   5.376   3.831  1.5509  0.8720  0.4757
   12MOL   H617 7899   2.602   5.491   3.809  3.7456  1.0561 -0.0580
   12MOL   H618 7900   2.639   5.341   4.064 -1.3575  0.7050  0.3125
   12MOL   H619 7901   2.558   5.493   4.052  0.5662  0.4025 -0.1087
   12MOL   H620 7902   2.782   5.598   3.973  0.1369 -0.1665  0.9932
   12MOL   H621 7903   2.866   5.451   3.996  0.4494  0.6599 -0.8138
   12MOL   H622 7904   2.717   5.590   4.215 -0.0609  0.7241 -0.8181
   12MOL   H623 7905   2.820   5.451   4.240  2.1725  0.5068  0.3881
   12MOL   H624 7906   2.910   5.721   4.140 -1.9812 -1.5390 -2.7039
   12MOL   H625 7907   3.016   5.580   4.172 -2.0300 -1.2042 -2.0260
   12MOL   H626 7908   2.930   5.621   4.422  0.2898 -0.8287  0.0984
   12MOL   H627 7909   3.027   5.748   4.341  0.2131 -0.5095 -1.1999
   12MOL   H628 7910   2.850   5.757   4.362 -0.8955 -0.8644 -0.9709
   12MOL   C629 7911   2.054   5.368   3.781 -0.4472  0.4959 -0.6079
   12MOL   C630 7912   1.995   5.331   3.647  0.0854  0.4098  0.0986
   12MOL   C631 7913   1.909   5.209   3.660 -0.1480  0.1370  0.0134
   12MOL   C632 7914   1.845   5.163   3.526 -0.8468 -1.1232  0.5025
   12MOL   C633 7915   1.753   5.045   3.556 -0.6867 -0.7353  0.2016
   12MOL   C634 7916   1.693   4.977   3.429 -0.2634 -0.1706 -0.2876
   12MOL   C635 7917   1.580   4.876   3.462 -0.0818 -0.5896  0.0205
   12MOL   C636 7918   1.518   4.824   3.339  0.2224  0.2673  1.0251
   12MOL   C637 7919   1.427   4.930   3.277  0.0766  0.1187  0.5200
   12MOL   C638 7920   1.370   4.904   3.139 -0.4676 -0.4653 -0.3969
   12MOL   C639 7921   1.243   4.816   3.132 -0.1385 -0.2433  0.0935
   12MOL   H640 7922   2.088   5.275   3.828 -1.6013  0.0358 -0.6591
   12MOL   H641 7923   1.975   5.400   3.848 -0.5969 -1.2771  0.0966
   12MOL   H642 7924   1.939   5.410   3.597  1.8306  0.7722 -1.3396
   12MOL   H643 7925   1.963   5.128   3.707 -0.5975  0.1164  0.4917
   12MOL   H644 7926   1.830   5.228   3.732 -0.4777 -0.5986 -0.1484
   12MOL   H645 7927   1.923   5.121   3.462 -1.2864 -2.8957  1.1043
   12MOL   H646 7928   1.788   5.241   3.476  2.4699  0.5658 -0.8191
   12MOL   H647 7929   1.673   5.090   3.615  1.4557  4.1072 -0.3446
   12MOL   H648 7930   1.798   4.967   3.617  0.1014  0.0552  0.6327
   12MOL   H649 7931   1.775   4.930   3.374 -0.9631 -0.8309 -0.7714
   12MOL   H650 7932   1.656   5.063   3.374 -1.8344 -1.3564 -1.1142
   12MOL   H651 7933   1.506   4.921   3.528 -0.0253  1.1738 -1.0660
   12MOL   H652 7934   1.626   4.794   3.516  0.3352 -0.4142 -0.0645
   12MOL   H653 7935   1.466   4.732   3.365  2.0932 -1.7679 -2.0462
   12MOL   H654 7936   1.590   4.805   3.259  0.3110  0.0205  1.1614
   12MOL   H655 7937   1.482   5.023   3.263 -0.0112  0.0203 -0.5423
   12MOL   H656 7938   1.352   4.955   3.351 -0.1994 -3.5162  1.5579
   12MOL   H657 7939   1.453   4.868   3.078  0.4418  0.4664  0.2718
   12MOL   H658 7940   1.347   5.008   3.116  1.5505 -0.4689 -2.5836
   12MOL   H659 7941   1.171   4.845   3.209 -0.1351  2.4397 -0.8368
   12MOL   H660 7942   1.259   4.709   3.141 -1.5313 -0.4121  0.6606
   12MOL   H661 7943   1.189   4.828   3.038  1.0189  0.6529 -0.4706
   12MOL   H662 7944   2.070   5.311   3.570  0.6484  2.3595  0.1075
   13MOL     C1 7945   4.192   3.342   6.797  0.1918 -0.1974 -0.1259
   13MOL     C2 7946   4.335   3.277   6.774 -0.2325  0.3551  0.1242
   13MOL     C3 7947   4.445   3.381   6.761 -0.7814  0.2409  0.5036
   13MOL     C4 7948   4.417   3.496   6.661 -0.3115 -0.1836  0.5884
   13MOL     C5 7949   4.537   3.581   6.626  0.1323  0.0480  0.5597
   13MOL     C6 7950   4.583   3.560   6.479 -0.0258 -0.1266  0.1004
   13MOL     C7 7951   4.730   3.610   6.455 -0.2116 -0.5041 -0.2598
   13MOL     C8 7952   4.756   3.760   6.472 -0.2127  0.0194 -0.0796
   13MOL     C9 7953   4.904   3.786   6.467  0.2905 -0.5201 -0.3199
   13MOL    C10 7954   4.932   3.933   6.450 -0.1103 -0.0227 -0.5020
   13MOL    C11 7955   5.072   3.979   6.488  0.0594 -0.5872 -0.5243
   13MOL    H12 7956   4.156   3.383   6.702 -2.5992  0.5677  1.2367
   13MOL    H13 7957   4.187   3.424   6.869  1.7700 -0.2148  0.0232
   13MOL    H14 7958   4.326   3.221   6.681 -0.8528 -0.3540  0.5973
   13MOL    H15 7959   4.535   3.328   6.729 -1.3189 -0.3586 -0.0149
   13MOL    H16 7960   4.469   3.412   6.863 -0.7624 -1.7259  1.1269
   13MOL    H17 7961   4.342   3.564   6.703  0.8345  1.4404  0.0651
   13MOL    H18 7962   4.378   3.447   6.573  1.6258  0.4483 -0.6602
   13MOL    H19 7963   4.513   3.687   6.631  1.9883  0.5957 -1.1946
   13MOL    H20 7964   4.613   3.565   6.704  0.6703 -1.5162 -0.2547
   13MOL    H21 7965   4.515   3.610   6.410  0.4966  0.0778 -0.2670
   13MOL    H22 7966   4.571   3.453   6.459 -0.2262 -0.4154  1.7158
   13MOL    H23 7967   4.797   3.553   6.520 -2.5486 -1.1331  1.6599
   13MOL    H24 7968   4.750   3.586   6.350  0.8957 -1.0220  0.0602
   13MOL    H25 7969   4.723   3.784   6.573 -0.1902 -1.4746  0.3057
   13MOL    H26 7970   4.700   3.819   6.399 -0.0525  0.7813  0.4091
   13MOL    H27 7971   4.950   3.728   6.387  2.1405  0.1879  0.2101
   13MOL    H28 7972   4.961   3.753   6.553 -1.5062 -0.9219  0.7418
   13MOL    H29 7973   4.859   3.994   6.503 -0.7161 -1.5423  0.4736
   13MOL    H30 7974   4.919   3.957   6.344 -0.7886  1.0906 -0.1770
   13MOL    H31 7975   5.099   3.958   6.592 -2.3851  1.6598  0.6306
   13MOL    H32 7976   5.142   3.938   6.415  1.0540  2.3737 -1.3028
   13MOL    H33 7977   5.075   4.088   6.488  2.4603 -0.6191  0.7286
   13MOL    H34 7978   4.122   3.270   6.837  0.0554 -0.0631 -0.1204
   13MOL    C35 7979   4.375   3.169   6.876 -0.5678 -0.0410  0.2864
   13MOL    C36 7980   4.332   3.028   6.834  0.1419  0.0879 -1.1650
   13MOL    C37 7981   4.421   2.964   6.733 -0.0068 -0.6717  0.0936
   13MOL    C38 7982   4.566   2.922   6.781  0.4239  0.7412  0.2458
   13MOL    C39 7983   4.645   2.862   6.661 -0.0781  0.2862 -0.3609
   13MOL    C40 7984   4.795   2.827   6.692 -0.0227  0.3262  0.4725
   13MOL    C41 7985   4.816   2.736   6.818  0.4608  0.5680 -0.9305
   13MOL    C42 7986   4.966   2.679   6.810 -0.2023  0.6692 -0.1339
   13MOL    C43 7987   5.000   2.605   6.947  0.0335  0.6808 -0.5458
   13MOL    C44 7988   5.151   2.580   6.939  0.2400 -0.4463  0.0602
   13MOL    C45 7989   5.204   2.536   7.075  0.5664 -0.7496  0.4170
   13MOL    H46 7990   4.337   3.181   6.978 -0.7724  1.8082  0.0055
   13MOL    H47 7991   4.483   3.169   6.887 -0.7193 -0.2505  1.9690
   13MOL    H48 7992   4.238   3.047   6.782  0.0961  1.2453 -0.6627
   13MOL    H49 7993   4.371   2.875   6.694 -1.9489  1.0972 -1.5524
   13MOL    H50 7994   4.434   3.014   6.637  2.0255  0.3950  0.8962
   13MOL    H51 7995   4.550   2.842   6.853  1.4103  0.7323  0.4511
   13MOL    H52 7996   4.621   3.005   6.825  0.6811 -0.4346  2.1973
   13MOL    H53 7997   4.651   2.946   6.592  2.2226  1.9243  1.7472
   13MOL    H54 7998   4.592   2.782   6.610  0.6029 -0.4882  0.1307
   13MOL    H55 7999   4.849   2.921   6.703 -1.8172  1.6400 -1.6223
   13MOL    H56 8000   4.856   2.803   6.604 -0.8066  0.3408 -0.0732
   13MOL    H57 8001   4.806   2.792   6.911  1.0039 -0.1246 -0.4507
   13MOL    H58 8002   4.748   2.652   6.808 -0.9215  1.4272  0.8491
   13MOL    H59 8003   5.032   2.765   6.796  1.6123 -0.4411  1.2221
   13MOL    H60 8004   4.977   2.613   6.723 -0.3981  0.0453  0.3080
   13MOL    H61 8005   4.944   2.514   6.967  2.3364 -0.2512  1.8140
   13MOL    H62 8006   4.969   2.671   7.028  0.2692  0.3529 -0.1870
   13MOL    H63 8007   5.180   2.507   6.863  1.2778 -1.1149  1.0828
   13MOL    H64 8008   5.201   2.671   6.907  0.5490 -0.5418  0.2740
   13MOL    H65 8009   5.241   2.617   7.138 -1.1391  1.4218 -1.2979
   13MOL    H66 8010   5.140   2.475   7.140 -0.1807  0.3745  0.7597
   13MOL    H67 8011   5.291   2.472   7.065  0.8938 -0.0880 -1.0002
   13MOL    C68 8012   4.279   2.933   6.949 -0.2854 -0.0949  0.5138
   13MOL    C69 8013   4.153   2.841   6.922  0.1818 -0.5843 -0.0340
   13MOL    C70 8014   4.139   2.711   7.001 -0.7406  0.2934 -0.1482
   13MOL    C71 8015   4.268   2.619   7.016 -0.1511 -0.2808 -0.2347
   13MOL    C72 8016   4.246   2.497   7.114  0.3781  0.5471  0.4794
   13MOL    C73 8017   4.375   2.402   7.111 -0.4139 -0.2709  0.0380
   13MOL    C74 8018   4.336   2.278   7.183  0.1215 -0.3561  0.2038
   13MOL    C75 8019   4.452   2.170   7.182  0.4376  0.5671 -0.2675
   13MOL    C76 8020   4.580   2.191   7.262  0.1830 -0.2260  0.2178
   13MOL    C77 8021   4.670   2.072   7.227  0.4646 -0.3831  0.5212
   13MOL    C78 8022   4.813   2.089   7.263  0.4969 -0.4187 -0.2622
   13MOL    H79 8023   4.271   2.980   7.048 -1.3231 -2.1883  1.4565
   13MOL    H80 8024   4.350   2.851   6.958  1.8068  1.2602 -2.7879
   13MOL    H81 8025   4.165   2.815   6.817 -1.1192 -2.0227  0.1476
   13MOL    H82 8026   4.065   2.644   6.959 -1.3573 -0.1976  1.7041
   13MOL    H83 8027   4.106   2.731   7.103 -4.3877  1.7949 -1.5373
   13MOL    H84 8028   4.276   2.580   6.914 -2.0267  1.8112 -1.2347
   13MOL    H85 8029   4.359   2.673   7.042 -0.8428 -0.4977  2.8586
   13MOL    H86 8030   4.157   2.444   7.080  2.1359 -2.4411  0.3659
   13MOL    H87 8031   4.230   2.532   7.216  2.0722 -0.3415  1.0701
   13MOL    H88 8032   4.402   2.371   7.011 -0.7317  2.7356 -1.0208
   13MOL    H89 8033   4.463   2.441   7.162 -1.2161 -0.6333  1.7791
   13MOL    H90 8034   4.245   2.236   7.142 -0.7528  1.4535  0.2196
   13MOL    H91 8035   4.321   2.304   7.288 -0.8597 -0.9168  0.2016
   13MOL    H92 8036   4.405   2.083   7.229  0.6801  0.3637 -0.3988
   13MOL    H93 8037   4.469   2.128   7.082 -2.6726 -0.5838 -0.3754
   13MOL    H94 8038   4.622   2.289   7.242 -0.4426  0.0459  0.2195
   13MOL    H95 8039   4.558   2.188   7.369 -0.3010 -0.0644  0.1230
   13MOL    H96 8040   4.631   1.980   7.270  0.6339 -1.5393 -1.7532
   13MOL    H97 8041   4.668   2.056   7.119 -1.6397 -0.1334  0.4904
   13MOL    H98 8042   4.818   2.106   7.371  0.3948  0.2656 -0.3624
   13MOL    H99 8043   4.856   2.180   7.221 -0.0354  0.1090  0.3158
   13MOL   H100 8044   4.872   2.007   7.222  0.8353  0.3345 -1.2889
   13MOL   C101 8045   4.028   2.926   6.925  0.2947 -0.3056 -0.0862
   13MOL   C102 8046   3.883   2.859   6.903 -0.6951 -0.2956 -0.4163
   13MOL   C103 8047   3.865   2.779   6.774 -0.0625  0.0589  0.0015
   13MOL   C104 8048   3.769   2.657   6.781 -0.0675 -0.0273 -0.1819
   13MOL   C105 8049   3.791   2.568   6.661 -0.3655  0.4867 -0.0053
   13MOL   C106 8050   3.719   2.432   6.655  0.0828 -0.1589 -0.4591
   13MOL   C107 8051   3.719   2.388   6.506 -0.6071 -0.2706 -0.0722
   13MOL   C108 8052   3.663   2.246   6.496 -0.3249 -0.4180  0.2004
   13MOL   C109 8053   3.612   2.217   6.353  0.1116 -0.1949  0.0478
   13MOL   C110 8054   3.579   2.066   6.343 -0.7584  0.5849  0.0976
   13MOL   C111 8055   3.540   2.024   6.198  0.5126 -0.4410 -0.7447
   13MOL   H112 8056   4.027   2.971   7.024  2.9676 -3.3283  1.4449
   13MOL   H113 8057   4.027   3.009   6.855  2.2195  2.2223  2.7246
   13MOL   H114 8058   3.876   2.780   6.978 -0.5752  0.5975  0.5463
   13MOL   H115 8059   3.832   2.846   6.695 -0.2060 -1.1989 -1.0057
   13MOL   H116 8060   3.966   2.743   6.754 -0.2984 -0.1140 -0.8974
   13MOL   H117 8061   3.786   2.585   6.861 -0.8214 -0.2212 -0.1897
   13MOL   H118 8062   3.668   2.699   6.779 -0.1418 -0.1235  1.1740
   13MOL   H119 8063   3.765   2.623   6.570  2.4012  1.8978  0.0183
   13MOL   H120 8064   3.897   2.544   6.650 -0.3944  0.3596 -0.0041
   13MOL   H121 8065   3.773   2.361   6.718 -0.3186  0.5051  0.6335
   13MOL   H122 8066   3.617   2.438   6.691 -0.1822 -0.9489 -1.0581
   13MOL   H123 8067   3.820   2.394   6.467 -0.5795  0.6987  0.1488
   13MOL   H124 8068   3.654   2.453   6.447  0.0044  0.7365  0.3556
   13MOL   H125 8069   3.748   2.182   6.520 -0.2882 -0.3682  0.2024
   13MOL   H126 8070   3.581   2.239   6.567 -0.1782 -1.1629  0.2985
   13MOL   H127 8071   3.530   2.284   6.328  0.6970  1.3649  2.1113
   13MOL   H128 8072   3.688   2.244   6.280  0.5522  0.3460  0.6964
   13MOL   H129 8073   3.492   2.053   6.407  0.1789  3.2275  1.9464
   13MOL   H130 8074   3.651   1.996   6.384 -1.0614  0.5366  0.5554
   13MOL   H131 8075   3.502   1.921   6.201  0.5667 -0.4327  1.3226
   13MOL   H132 8076   3.471   2.096   6.155 -0.2017  0.1297  1.2671
   13MOL   H133 8077   3.627   2.025   6.133  1.3145  0.8458  0.3163
   13MOL   C134 8078   3.761   2.946   6.925  0.3058  0.7376 -0.0391
   13MOL   C135 8079   3.751   3.031   7.056 -0.1210  0.5766 -0.0412
   13MOL   C136 8080   3.690   2.927   7.158  0.1202  0.0875  0.4843
   13MOL   C137 8081   3.682   2.981   7.310 -0.1062 -0.6858  0.1859
   13MOL   C138 8082   3.608   2.874   7.400  0.0271  0.2728 -0.2118
   13MOL   C139 8083   3.572   2.919   7.538 -0.0311  0.5805  0.1826
   13MOL   C140 8084   3.470   2.834   7.604  0.0415 -0.2435 -0.0540
   13MOL   C141 8085   3.435   2.889   0.036 -0.1548  0.4943 -0.3518
   13MOL   C142 8086   3.328   2.812   0.110 -1.2324  0.5679  0.5811
   13MOL   C143 8087   3.309   2.888   0.240  0.1272 -0.0840 -0.2403
   13MOL   C144 8088   3.215   2.818   0.341 -0.5213 -0.1998 -0.2135
   13MOL   H145 8089   3.765   3.021   6.847 -1.8796 -0.4340 -1.3329
   13MOL   H146 8090   3.665   2.895   6.915  0.8236 -0.1792 -0.4392
   13MOL   H147 8091   3.841   3.078   7.095 -0.9177  1.4929  0.7174
   13MOL   H148 8092   3.756   2.841   7.153 -1.3192 -0.9992  0.0848
   13MOL   H149 8093   3.589   2.900   7.128 -0.0773 -2.3539  3.1239
   13MOL   H150 8094   3.783   3.006   7.342  0.1859 -1.3864 -0.1821
   13MOL   H151 8095   3.622   3.072   7.316  1.7264  0.4635  1.7127
   13MOL   H152 8096   3.518   2.840   7.349  0.4614 -3.1986  1.2199
   13MOL   H153 8097   3.677   2.790   7.404 -1.3903 -0.9314 -0.6834
   13MOL   H154 8098   3.661   2.922   7.601  0.7108  0.1551 -0.8321
   13MOL   H155 8099   3.530   3.019   7.525 -1.9413 -0.3605 -0.9024
   13MOL   H156 8100   3.382   2.834   7.540  2.4397 -3.5049 -3.5691
   13MOL   H157 8101   3.497   2.728   7.603  0.8297 -0.0396 -0.0641
   13MOL   H158 8102   3.524   2.896   0.098 -0.5330  1.9126  0.0380
   13MOL   H159 8103   3.395   2.989   0.020  2.0968  1.0688 -2.6433
   13MOL   H160 8104   3.237   2.793   0.053 -0.0773 -4.9930  0.2739
   13MOL   H161 8105   3.373   2.714   0.123 -1.1570  0.3518 -1.1609
   13MOL   H162 8106   3.408   2.895   0.285 -0.5257  0.1751  1.1792
   13MOL   H163 8107   3.269   2.988   0.221  1.1611 -0.0435 -2.4240
   13MOL   H164 8108   3.122   2.799   0.289 -0.0723 -3.1997 -0.0611
   13MOL   H165 8109   3.205   2.881   0.429  0.0428  0.8716 -0.9129
   13MOL   H166 8110   3.270   2.727   0.365 -0.5196  0.1905  1.3094
   13MOL   C167 8111   3.657   3.159   7.034  0.3269  0.1928  0.1321
   13MOL   C168 8112   3.720   3.270   6.941 -0.3069 -0.5754 -0.8444
   13MOL   C169 8113   3.865   3.311   6.987 -0.3624 -0.4535  0.2031
   13MOL   C170 8114   3.883   3.367   7.128  0.0347 -0.3309  0.6848
   13MOL   C171 8115   4.018   3.410   7.170  0.9084  0.7048  0.0101
   13MOL   C172 8116   4.038   3.465   7.313 -0.0861 -0.3073 -0.5804
   13MOL   C173 8117   4.173   3.552   7.338 -0.0563  0.5256 -0.4789
   13MOL   C174 8118   4.166   3.699   7.305  0.8004 -0.3126  0.6231
   13MOL   C175 8119   4.288   3.772   7.347 -0.4806 -0.1686  0.0815
   13MOL   C176 8120   4.283   3.921   7.315  0.0192  0.1770  0.2728
   13MOL   C177 8121   4.419   3.993   7.324 -0.3706 -0.0077 -0.2029
   13MOL   H178 8122   3.560   3.133   6.993  1.4565 -0.6948 -2.0821
   13MOL   H179 8123   3.636   3.209   7.128  1.5923  0.5002  0.2696
   13MOL   H180 8124   3.726   3.236   6.838  0.1677 -1.2450 -0.5975
   13MOL   H181 8125   3.903   3.383   6.915  0.4132 -0.0834  0.9651
   13MOL   H182 8126   3.922   3.222   6.962  1.6274  0.6460  0.6489
   13MOL   H183 8127   3.807   3.443   7.146 -0.4369 -0.9159  1.1925
   13MOL   H184 8128   3.841   3.291   7.194 -0.3904  0.1079  0.9266
   13MOL   H185 8129   4.054   3.475   7.090  0.3990 -2.2155 -2.7202
   13MOL   H186 8130   4.080   3.321   7.157  0.2657  0.0980  1.0742
   13MOL   H187 8131   3.946   3.513   7.345  0.6323  0.3253  0.5238
   13MOL   H188 8132   4.061   3.384   7.382  0.3232 -0.7955 -1.2763
   13MOL   H189 8133   4.269   3.512   7.305 -0.6462  0.3872 -2.1148
   13MOL   H190 8134   4.183   3.557   7.446  0.3302 -0.7908 -0.4464
   13MOL   H191 8135   4.150   3.712   7.198 -1.5167  0.2534  1.0084
   13MOL   H192 8136   4.085   3.742   7.365  0.9758 -0.5395  1.0288
   13MOL   H193 8137   4.372   3.727   7.294  0.0419  1.6196 -0.6631
   13MOL   H194 8138   4.309   3.760   7.453 -2.7439  0.2685  0.6001
   13MOL   H195 8139   4.203   3.976   7.366 -0.7682 -0.6691 -0.0306
   13MOL   H196 8140   4.259   3.935   7.209 -0.0070 -2.0863 -0.0462
   13MOL   H197 8141   4.492   3.942   7.262 -0.4914 -1.3007  0.6832
   13MOL   H198 8142   4.453   3.988   7.427  1.3833 -0.2592 -0.7847
   13MOL   H199 8143   4.429   4.097   7.295  2.4730 -0.0341  0.6027
   13MOL   C200 8144   3.628   3.392   6.944  0.0632 -0.0303  0.1725
   13MOL   C201 8145   3.533   3.423   6.827 -0.1385 -0.7433 -0.0647
   13MOL   C202 8146   3.608   3.463   6.685  0.0356  0.3032 -0.0101
   13MOL   C203 8147   3.709   3.568   6.701  0.3216  0.4050  0.3165
   13MOL   C204 8148   3.779   3.610   6.571  0.1376  0.2595 -0.0389
   13MOL   C205 8149   3.897   3.707   6.608  0.2595 -0.6208  0.3108
   13MOL   C206 8150   3.990   3.745   6.490  0.4774 -0.5161  0.3178
   13MOL   C207 8151   4.108   3.827   6.537  0.2486  0.4393  0.0960
   13MOL   C208 8152   4.201   3.876   6.428 -0.0352  1.2770  0.7289
   13MOL   C209 8153   4.311   3.965   6.473 -0.2631 -0.4026 -0.0709
   13MOL   C210 8154   4.412   3.998   6.364 -0.2686  0.5019  0.0715
   13MOL   H211 8155   3.563   3.391   7.032  1.2802  2.0025  1.1307
   13MOL   H212 8156   3.685   3.479   6.975 -0.8874  0.5817  0.2385
   13MOL   H213 8157   3.472   3.334   6.815  0.4193 -0.9653 -1.4242
   13MOL   H214 8158   3.543   3.487   6.601 -1.4146 -0.8071  0.7602
   13MOL   H215 8159   3.663   3.376   6.648  2.2835  2.0044 -0.7485
   13MOL   H216 8160   3.797   3.536   6.757  0.3307 -0.2470 -0.0648
   13MOL   H217 8161   3.670   3.657   6.749  0.8675  2.0948 -2.3138
   13MOL   H218 8162   3.703   3.635   6.496  0.4336  0.7367 -0.1840
   13MOL   H219 8163   3.836   3.526   6.533 -0.5001 -0.1952 -0.0060
   13MOL   H220 8164   3.860   3.793   6.663 -0.7923 -1.4534  0.9184
   13MOL   H221 8165   3.958   3.659   6.685  1.8121  1.5858  0.4890
   13MOL   H222 8166   3.930   3.799   6.417  0.6163  0.9206  1.2266
   13MOL   H223 8167   4.023   3.650   6.449  0.3159 -1.5040  2.3867
   13MOL   H224 8168   4.174   3.775   6.606  0.3585  1.3022  0.6433
   13MOL   H225 8169   4.075   3.909   6.601  1.9500  0.3077  1.1831
   13MOL   H226 8170   4.147   3.915   6.342 -0.8543 -1.1501  0.0905
   13MOL   H227 8171   4.243   3.784   6.387 -0.2145  1.0648  1.0115
   13MOL   H228 8172   4.261   4.052   6.515 -1.1100 -0.2653 -1.3256
   13MOL   H229 8173   4.362   3.921   6.558  0.1038 -1.1980 -0.6899
   13MOL   H230 8174   4.356   4.029   6.275  0.6778 -0.7065 -0.9678
   13MOL   H231 8175   4.447   3.900   6.332  0.1741  0.7822 -0.3046
   13MOL   H232 8176   4.493   4.066   6.391  0.7279  0.2496 -2.1764
   13MOL   C233 8177   3.440   3.543   6.875  0.0683 -0.1920  0.7636
   13MOL   C234 8178   3.294   3.508   6.859  0.0840 -0.3817  0.2761
   13MOL   C235 8179   3.244   3.388   6.939  0.4095 -0.3262 -0.4790
   13MOL   C236 8180   3.091   3.365   6.942 -0.3044 -0.4035 -0.0688
   13MOL   C237 8181   3.052   3.257   7.049 -0.0273  0.1611  0.1959
   13MOL   C238 8182   2.904   3.232   7.044 -0.5153 -0.2506 -0.7307
   13MOL   C239 8183   2.872   3.096   7.110  0.2390  0.0257 -0.6006
   13MOL   C240 8184   2.719   3.095   7.128 -0.1110 -0.4871  0.1121
   13MOL   C241 8185   2.657   2.962   7.183  0.1899 -0.5598  0.1113
   13MOL   C242 8186   2.537   2.983   7.274  0.1975 -0.2559  0.2140
   13MOL   C243 8187   2.469   2.853   7.323  0.3518  0.1435 -0.1389
   13MOL   H244 8188   3.470   3.630   6.816  0.1347 -1.5776 -1.2825
   13MOL   H245 8189   3.458   3.585   6.974 -2.1561  1.3302  0.5447
   13MOL   H246 8190   3.243   3.592   6.906  0.5405 -0.2937  0.6117
   13MOL   H247 8191   3.295   3.299   6.903 -2.1301 -2.2549  0.5826
   13MOL   H248 8192   3.280   3.405   7.040 -0.5430 -0.4552 -0.1147
   13MOL   H249 8193   3.045   3.333   6.849 -1.8401 -1.7418  1.1170
   13MOL   H250 8194   3.044   3.460   6.967  0.8230 -0.0358  0.7218
   13MOL   H251 8195   3.078   3.306   7.143  0.1274 -3.8602  2.3696
   13MOL   H252 8196   3.120   3.173   7.044 -3.3551 -2.6234  0.0881
   13MOL   H253 8197   2.866   3.238   6.943  0.2053  2.1970 -0.8823
   13MOL   H254 8198   2.859   3.316   7.097  1.0290  1.7885 -2.5572
   13MOL   H255 8199   2.923   3.015   7.058  1.9458 -0.2045  1.3427
   13MOL   H256 8200   2.912   3.111   7.210 -3.4477 -0.2476  0.9853
   13MOL   H257 8201   2.679   3.178   7.186 -4.5373 -1.9238 -0.6180
   13MOL   H258 8202   2.677   3.121   7.031 -1.3007 -0.7566  0.5398
   13MOL   H259 8203   2.637   2.900   7.096  0.9793 -1.3415  0.4667
   13MOL   H260 8204   2.726   2.890   7.229  2.2244  0.4047 -1.3610
   13MOL   H261 8205   2.464   3.051   7.233 -0.1808 -0.2441  0.8940
   13MOL   H262 8206   2.567   3.029   7.368 -1.6579  0.2919  0.5511
   13MOL   H263 8207   2.540   2.784   7.368 -1.7225  0.4502  3.8069
   13MOL   H264 8208   2.433   2.787   7.244 -0.1478 -2.1967  1.9793
   13MOL   H265 8209   2.386   2.882   7.387 -0.9212 -0.5937 -1.4228
   13MOL   C266 8210   3.254   3.503   6.709  0.3607  0.2066  0.1444
   13MOL   C267 8211   3.284   3.629   6.620 -0.2089 -0.1680  0.0441
   13MOL   C268 8212   3.223   3.758   6.681 -0.0873  0.3792 -0.2214
   13MOL   C269 8213   3.072   3.750   6.703 -0.9091  0.0986 -0.2593
   13MOL   C270 8214   3.028   3.849   6.804 -0.3037 -0.5284  0.3036
   13MOL   C271 8215   3.050   3.997   6.765  0.3053 -0.0280 -0.5057
   13MOL   C272 8216   2.979   4.083   6.875 -0.5909 -0.1036  0.5556
   13MOL   C273 8217   2.991   4.239   6.847  0.2903 -0.8966  0.0384
   13MOL   C274 8218   3.132   4.304   6.860 -0.3570 -0.3697 -0.1656
   13MOL   C275 8219   3.136   4.453   6.834  0.2668 -0.1988  0.6502
   13MOL   C276 8220   3.272   4.494   6.765  0.3652 -0.7117  0.1071
   13MOL   H277 8221   3.147   3.483   6.698  0.3111  0.5682 -0.0217
   13MOL   H278 8222   3.305   3.417   6.667 -1.6553  0.4192 -2.8726
   13MOL   H279 8223   3.392   3.640   6.620  0.2721 -3.8440  2.4938
   13MOL   H280 8224   3.284   3.790   6.766 -0.5640  1.4658 -0.2776
   13MOL   H281 8225   3.243   3.845   6.618  1.5258 -0.2819 -0.6411
   13MOL   H282 8226   3.050   3.651   6.743 -0.0812  0.1641  0.3649
   13MOL   H283 8227   3.018   3.755   6.608 -3.9101 -1.1950  1.3228
   13MOL   H284 8228   3.073   3.824   6.900  1.3572 -0.4539 -0.4413
   13MOL   H285 8229   2.919   3.846   6.806 -0.3458  0.7581  0.3131
   13MOL   H286 8230   3.005   4.016   6.668  0.8363 -0.1330 -0.7751
   13MOL   H287 8231   3.157   4.018   6.772  0.4909 -0.8474 -0.8483
   13MOL   H288 8232   2.873   4.060   6.887 -0.5760 -1.3959 -1.6575
   13MOL   H289 8233   3.029   4.056   6.968  1.7876 -2.2304 -1.2940
   13MOL   H290 8234   2.932   4.290   6.923  0.4466 -1.5363  0.5989
   13MOL   H291 8235   2.951   4.251   6.746  0.3433 -0.9281  0.0138
   13MOL   H292 8236   3.172   4.276   6.957 -0.6177 -0.1163  0.0140
   13MOL   H293 8237   3.194   4.251   6.788  0.2470 -1.9101  1.4671
   13MOL   H294 8238   3.128   4.521   6.919  0.2331  0.7310 -0.0896
   13MOL   H295 8239   3.061   4.486   6.762 -0.4050 -1.6121  0.6882
   13MOL   H296 8240   3.353   4.460   6.829  0.6093 -0.6321 -0.1573
   13MOL   H297 8241   3.276   4.601   6.743  2.4846 -0.6923  0.4521
   13MOL   H298 8242   3.284   4.437   6.673 -0.2426 -0.6783  0.0037
   13MOL   C299 8243   3.238   3.603   6.471  0.3551  0.8909  0.4451
   13MOL   C300 8244   3.321   3.665   6.352  0.4104 -0.3175  0.4108
   13MOL   C301 8245   3.340   3.818   6.357  0.2487 -0.1135  0.3459
   13MOL   C302 8246   3.213   3.901   6.323 -0.7367  0.4776  0.3397
   13MOL   C303 8247   3.218   4.045   6.370 -0.4475  0.3956 -0.4628
   13MOL   C304 8248   3.106   4.136   6.302 -0.3987 -0.4845 -0.8468
   13MOL   C305 8249   3.035   4.221   6.409  0.2623 -0.0628 -0.4978
   13MOL   C306 8250   2.942   4.321   6.343  0.5445 -0.0515 -0.0383
   13MOL   C307 8251   2.844   4.380   6.441 -0.3223 -0.0686 -0.1097
   13MOL   C308 8252   2.746   4.474   6.374 -0.4627  0.1549 -0.2787
   13MOL   C309 8253   2.671   4.566   6.465 -0.4163  0.4604  0.4593
   13MOL   H310 8254   3.137   3.641   6.459 -0.4464 -0.8472  1.4989
   13MOL   H311 8255   3.239   3.496   6.452 -2.1280  0.8814  0.3014
   13MOL   H312 8256   3.421   3.621   6.346  0.1520 -0.7323 -1.2680
   13MOL   H313 8257   3.365   3.857   6.456 -1.5586  2.7882 -0.2779
   13MOL   H314 8258   3.424   3.842   6.292  0.6382  1.8227  1.5290
   13MOL   H315 8259   3.185   3.899   6.218 -1.9013  0.4461  0.6484
   13MOL   H316 8260   3.133   3.856   6.382 -0.2911  0.4093  0.8998
   13MOL   H317 8261   3.218   4.037   6.479  0.7569 -1.3471 -0.5765
   13MOL   H318 8262   3.318   4.085   6.353  0.1292  0.4269  2.6744
   13MOL   H319 8263   3.040   4.076   6.240 -1.0483  0.1161 -0.7340
   13MOL   H320 8264   3.151   4.209   6.235  0.9526  0.5236  1.1162
   13MOL   H321 8265   2.979   4.157   6.478  0.3387  0.9309  0.4954
   13MOL   H322 8266   3.104   4.274   6.474 -0.9762 -0.9205  1.5901
   13MOL   H323 8267   2.890   4.257   6.272  2.0773 -1.3547 -0.0162
   13MOL   H324 8268   2.998   4.398   6.289  1.6365 -1.1676 -0.5093
   13MOL   H325 8269   2.893   4.423   6.529 -1.4400  0.0818  0.4484
   13MOL   H326 8270   2.794   4.301   6.498 -2.0372  0.4622 -0.8542
   13MOL   H327 8271   2.680   4.414   6.312  0.4724 -0.0213 -1.1190
   13MOL   H328 8272   2.798   4.540   6.305 -1.3094  2.1510  0.9167
   13MOL   H329 8273   2.735   4.628   6.529  0.6273 -1.1225  0.9938
   13MOL   H330 8274   2.611   4.625   6.396  0.0028  1.1260  0.6595
   13MOL   H331 8275   2.603   4.516   6.534  1.0123 -0.5325  1.1846
   13MOL   C332 8276   3.271   3.631   6.214 -0.1451 -0.0583 -0.6440
   13MOL   C333 8277   3.277   3.489   6.160 -0.1704  0.4688 -0.0996
   13MOL   C334 8278   3.423   3.433   6.165  0.3103  0.1385  0.2615
   13MOL   C335 8279   3.462   3.339   6.274  0.1349 -0.1042 -1.0673
   13MOL   C336 8280   3.615   3.308   6.258  0.5329 -0.3161  0.6911
   13MOL   C337 8281   3.669   3.188   6.336 -0.5583  0.3308  0.3461
   13MOL   C338 8282   3.805   3.147   6.287  0.5064 -0.0917  0.0296
   13MOL   C339 8283   3.854   3.037   6.383  0.6408 -0.0777 -0.2032
   13MOL   C340 8284   4.002   2.986   6.350  0.7820 -0.3274 -0.3792
   13MOL   C341 8285   4.048   2.871   6.441  0.4277 -0.6093 -0.2278
   13MOL   C342 8286   4.195   2.831   6.413  0.5423  0.2057 -0.0593
   13MOL   H343 8287   3.167   3.661   6.199 -0.2313  0.5626  1.0148
   13MOL   H344 8288   3.327   3.687   6.140  0.6286 -0.0885 -0.0839
   13MOL   H345 8289   3.214   3.434   6.229 -1.0152  1.4845 -0.0457
   13MOL   H346 8290   3.498   3.512   6.155  0.1512 -0.0183 -2.7133
   13MOL   H347 8291   3.444   3.383   6.070 -0.9219 -0.2633  0.2002
   13MOL   H348 8292   3.435   3.376   6.372 -0.1510  0.4100 -1.3406
   13MOL   H349 8293   3.412   3.243   6.257 -0.8374 -0.0828  1.5193
   13MOL   H350 8294   3.633   3.284   6.153 -1.6426  1.0552 -0.0276
   13MOL   H351 8295   3.675   3.391   6.294  0.5398 -0.3256  0.7024
   13MOL   H352 8296   3.594   3.110   6.327  0.1802 -0.5155  1.3150
   13MOL   H353 8297   3.682   3.215   6.441  0.5456  0.7617  0.1074
   13MOL   H354 8298   3.881   3.225   6.288  0.3595  0.1527 -3.3506
   13MOL   H355 8299   3.801   3.112   6.184  2.1641 -0.6983  0.1575
   13MOL   H356 8300   3.856   3.063   6.489  0.0235  1.0859 -0.4710
   13MOL   H357 8301   3.787   2.953   6.365  1.4538 -0.6494 -0.6605
   13MOL   H358 8302   4.069   3.072   6.350  0.8710 -0.3761 -1.5733
   13MOL   H359 8303   3.991   2.948   6.248 -1.6769  2.0468 -1.0828
   13MOL   H360 8304   3.983   2.784   6.440 -0.3027 -0.0595 -0.8645
   13MOL   H361 8305   4.049   2.914   6.541 -0.3871  2.0069 -1.3129
   13MOL   H362 8306   4.216   2.746   6.479 -0.3723  1.1712  1.4976
   13MOL   H363 8307   4.221   2.802   6.311 -0.1698  0.6535 -0.3664
   13MOL   H364 8308   4.266   2.909   6.440  2.3832 -1.7164  0.8633
   13MOL   C365 8309   3.206   3.485   6.021  0.1393  0.0834  0.3024
   13MOL   C366 8310   3.117   3.357   5.996 -0.3652  0.6551 -0.4222
   13MOL   C367 8311   3.197   3.223   6.015 -0.1897  0.0357 -1.0754
   13MOL   C368 8312   3.128   3.095   5.954 -0.3526 -0.3183  0.0651
   13MOL   C369 8313   3.217   2.971   5.963 -0.4511 -0.1505 -0.5039
   13MOL   C370 8314   3.138   2.848   5.906  0.3549 -0.2278 -0.0890
   13MOL   C371 8315   3.211   2.710   5.911  0.1837 -0.1842 -0.4216
   13MOL   C372 8316   3.115   2.592   5.909  0.1138 -0.2884  0.3054
   13MOL   C373 8317   3.063   2.568   5.769 -0.7234  0.0500 -0.3559
   13MOL   C374 8318   2.963   2.443   5.768  0.2258 -0.1211  0.0630
   13MOL   C375 8319   2.891   2.413   5.636 -0.4146  0.8206 -0.4612
   13MOL   H376 8320   3.155   3.578   5.997 -0.4966 -0.1710  0.6471
   13MOL   H377 8321   3.283   3.491   5.944  0.3805 -1.2595  0.4318
   13MOL   H378 8322   3.098   3.350   5.889 -2.7049  0.6368 -0.0241
   13MOL   H379 8323   3.197   3.209   6.123  1.2365  0.3187 -1.0299
   13MOL   H380 8324   3.297   3.228   5.972 -0.5265  0.6493 -1.8132
   13MOL   H381 8325   3.103   3.099   5.848 -0.4185 -0.1642  0.0859
   13MOL   H382 8326   3.036   3.062   6.002 -0.2828 -0.4481  0.1099
   13MOL   H383 8327   3.253   2.947   6.063  0.7445 -2.2235 -1.3978
   13MOL   H384 8328   3.301   2.990   5.896  1.0185 -0.3985  1.2157
   13MOL   H385 8329   3.109   2.858   5.802  1.1473  0.7731 -0.2222
   13MOL   H386 8330   3.053   2.844   5.975 -2.1039  2.8816 -2.8035
   13MOL   H387 8331   3.292   2.710   5.837  0.8275 -0.3993  0.2780
   13MOL   H388 8332   3.275   2.709   5.999  1.4600 -0.1387 -1.3355
   13MOL   H389 8333   3.039   2.619   5.982 -0.1378 -2.2462  0.7891
   13MOL   H390 8334   3.169   2.504   5.944 -2.9212 -2.4092 -0.2042
   13MOL   H391 8335   3.009   2.658   5.738 -0.0016  1.5759  2.6082
   13MOL   H392 8336   3.145   2.554   5.698 -1.3207  0.2921 -1.1050
   13MOL   H393 8337   2.991   2.351   5.818 -1.1094  0.4915  2.0074
   13MOL   H394 8338   2.883   2.465   5.839 -0.2118 -0.7604 -0.2325
   13MOL   H395 8339   2.875   2.500   5.573 -0.6283  1.6166  0.6852
   13MOL   H396 8340   2.792   2.369   5.649  0.2392 -0.5536  0.0375
   13MOL   H397 8341   2.951   2.342   5.579  1.0165  1.6985 -0.0759
   13MOL   C398 8342   2.985   3.357   6.079  0.1561 -0.0474  0.4648
   13MOL   C399 8343   2.876   3.440   6.008 -1.1059  0.5470 -0.0501
   13MOL   C400 8344   2.769   3.495   6.105  0.0484 -0.6134  0.1502
   13MOL   C401 8345   2.819   3.625   6.173 -0.2128 -0.3351  0.0608
   13MOL   C402 8346   2.723   3.682   6.269 -0.2876 -0.4048 -0.9117
   13MOL   C403 8347   2.758   3.815   6.339 -0.5313  0.2897 -0.0879
   13MOL   C404 8348   2.651   3.868   6.439 -0.0939 -0.1322 -0.2813
   13MOL   C405 8349   2.705   3.981   6.525 -0.3788  0.3415  0.0838
   13MOL   C406 8350   2.601   4.046   6.620 -0.2543  0.0827 -0.0319
   13MOL   C407 8351   2.593   3.969   6.755  0.3141 -0.0027 -0.2524
   13MOL   C408 8352   2.482   4.027   6.848  0.3057 -0.3601  0.1171
   13MOL   H409 8353   3.021   3.404   6.171  1.8370 -2.0194  0.8640
   13MOL   H410 8354   2.936   3.261   6.095 -2.7566  0.9794 -1.9741
   13MOL   H411 8355   2.933   3.520   5.960 -0.8643 -0.3255 -1.2161
   13MOL   H412 8356   2.740   3.420   6.178  2.3351 -2.3842 -0.6933
   13MOL   H413 8357   2.674   3.510   6.055 -0.9770 -1.7328  1.7177
   13MOL   H414 8358   2.907   3.616   6.237  0.1089  1.2657 -0.1276
   13MOL   H415 8359   2.839   3.702   6.098  0.1841 -0.4328  0.0672
   13MOL   H416 8360   2.628   3.707   6.222  0.1950  1.5958 -0.8676
   13MOL   H417 8361   2.704   3.603   6.342  2.3286 -1.5099 -1.3749
   13MOL   H418 8362   2.793   3.895   6.273 -1.6573  0.8078 -0.0603
   13MOL   H419 8363   2.851   3.806   6.395 -0.2684  0.0108 -0.5599
   13MOL   H420 8364   2.565   3.899   6.380  0.0550  1.8661  0.4986
   13MOL   H421 8365   2.628   3.792   6.513 -0.5614  1.4602  1.2458
   13MOL   H422 8366   2.742   4.062   6.462 -0.2019 -0.1876 -0.4942
   13MOL   H423 8367   2.799   3.949   6.570  0.6774  1.7270 -1.0940
   13MOL   H424 8368   2.639   4.147   6.636  2.0548 -0.6321 -0.8573
   13MOL   H425 8369   2.504   4.063   6.574 -0.4519  1.1818  0.7614
   13MOL   H426 8370   2.688   3.990   6.803  0.3929 -0.6194 -0.1291
   13MOL   H427 8371   2.595   3.860   6.745  0.8577  0.3023 -4.1753
   13MOL   H428 8372   2.480   3.987   6.950  1.6640  0.2290  0.3929
   13MOL   H429 8373   2.385   3.995   6.809 -0.2415  2.6256 -1.0507
   13MOL   H430 8374   2.489   4.135   6.857  2.8676 -0.4791  0.0335
   13MOL   C431 8375   2.809   3.357   5.889  0.2144  0.6067  0.3842
   13MOL   C432 8376   2.733   3.432   5.783  0.2322 -0.1086 -0.0879
   13MOL   C433 8377   2.647   3.330   5.706  0.5519 -0.4060 -0.3505
   13MOL   C434 8378   2.554   3.232   5.786 -0.1496 -0.1210 -0.1800
   13MOL   C435 8379   2.455   3.295   5.887  0.6518 -0.4010  0.3948
   13MOL   C436 8380   2.333   3.352   5.805  0.1945  0.0432  0.9266
   13MOL   C437 8381   2.232   3.423   5.896  0.5644  0.4357  0.0543
   13MOL   C438 8382   2.153   3.532   5.824 -0.4654  0.4228 -0.4129
   13MOL   C439 8383   2.064   3.608   5.921  0.2415  0.2471  0.2250
   13MOL   C440 8384   2.132   3.702   6.018  0.4539  0.4077 -0.2179
   13MOL   C441 8385   2.032   3.771   6.111  0.3667  0.5130  0.1005
   13MOL   H442 8386   2.749   3.276   5.932  0.7518 -0.3360 -0.6130
   13MOL   H443 8387   2.885   3.300   5.836  0.3294 -0.0435  1.2205
   13MOL   H444 8388   2.672   3.502   5.841  0.7337  1.5896 -1.5586
   13MOL   H445 8389   2.585   3.386   5.635 -0.5433  0.1742  1.0360
   13MOL   H446 8390   2.711   3.271   5.641  1.5110  1.2751 -0.9446
   13MOL   H447 8391   2.613   3.160   5.843 -1.2212 -0.4897  0.4835
   13MOL   H448 8392   2.504   3.160   5.722  0.5493 -0.7409 -0.0365
   13MOL   H449 8393   2.504   3.363   5.956  1.1706  1.1755 -1.4847
   13MOL   H450 8394   2.416   3.217   5.953 -0.1641 -1.4293 -1.2782
   13MOL   H451 8395   2.281   3.285   5.737  1.3962  0.5787 -0.5397
   13MOL   H452 8396   2.377   3.425   5.736  0.0435 -0.4453  0.3064
   13MOL   H453 8397   2.284   3.474   5.977  1.3710 -2.8754  1.7220
   13MOL   H454 8398   2.167   3.351   5.944  0.5820 -0.0359 -0.6185
   13MOL   H455 8399   2.215   3.609   5.778  0.5889 -1.3658 -2.0596
   13MOL   H456 8400   2.110   3.485   5.736  1.4822 -0.6032 -0.8614
   13MOL   H457 8401   1.997   3.550   5.985  1.1593  1.2040  2.0937
   13MOL   H458 8402   1.997   3.659   5.851 -0.5617  0.1183  0.8842
   13MOL   H459 8403   2.203   3.769   5.970  0.9198  0.3316  0.3574
   13MOL   H460 8404   2.199   3.637   6.074  0.2775  1.7751  1.6303
   13MOL   H461 8405   1.979   3.690   6.163  3.3080 -0.5795  1.4793
   13MOL   H462 8406   2.073   3.833   6.190  0.3033 -0.4721  0.9281
   13MOL   H463 8407   1.959   3.829   6.055 -0.3696  1.2030  1.7288
   13MOL   C464 8408   2.836   3.514   5.701 -0.3246  0.7595 -0.0891
   13MOL   C465 8409   2.784   3.609   5.592  0.1954 -0.2692 -0.5119
   13MOL   C466 8410   2.715   3.729   5.654 -0.5517  0.1899 -0.1347
   13MOL   C467 8411   2.559   3.725   5.668 -0.0635  0.3461 -0.1419
   13MOL   C468 8412   2.482   3.717   5.533  0.2291  0.0403  0.0804
   13MOL   C469 8413   2.497   3.833   5.439 -0.0173  0.1489 -0.5836
   13MOL   C470 8414   2.406   3.808   5.311  0.0611  0.6425 -0.0565
   13MOL   C471 8415   2.460   3.892   5.192 -0.3772 -0.2884 -0.4615
   13MOL   C472 8416   2.430   4.044   5.219  0.2366 -0.0633 -0.2151
   13MOL   C473 8417   2.478   4.148   5.108  0.1462  0.3067  0.0768
   13MOL   C474 8418   2.400   4.283   5.115  0.0330  0.7395  0.4662
   13MOL   H475 8419   2.899   3.441   5.650  0.3351  1.0601  0.2933
   13MOL   H476 8420   2.906   3.569   5.764 -0.7053 -1.2065  2.1603
   13MOL   H477 8421   2.710   3.558   5.530 -1.3387 -1.6661  2.3583
   13MOL   H478 8422   2.753   3.817   5.601  0.9722 -0.6662 -0.4841
   13MOL   H479 8423   2.747   3.736   5.758  2.9832  1.9942 -1.2449
   13MOL   H480 8424   2.536   3.630   5.715  0.1680 -1.1535 -2.9675
   13MOL   H481 8425   2.524   3.797   5.742  2.1246  0.8887  0.4047
   13MOL   H482 8426   2.379   3.722   5.568  0.1266 -0.6297 -0.1215
   13MOL   H483 8427   2.477   3.617   5.490  0.1826  0.2358 -0.3785
   13MOL   H484 8428   2.472   3.923   5.495  2.0783  0.9001 -0.8070
   13MOL   H485 8429   2.601   3.833   5.405 -0.0228  0.3005 -0.5974
   13MOL   H486 8430   2.429   3.708   5.274  1.4028  0.8040  0.2999
   13MOL   H487 8431   2.302   3.828   5.335 -0.2383 -1.0393  0.1086
   13MOL   H488 8432   2.567   3.871   5.195 -0.5369 -0.9479  3.0722
   13MOL   H489 8433   2.421   3.860   5.096  0.4097  2.2166 -1.6514
   13MOL   H490 8434   2.323   4.061   5.230  0.3660  0.5883  0.0649
   13MOL   H491 8435   2.479   4.078   5.310 -0.0418  1.8374 -0.7521
   13MOL   H492 8436   2.587   4.152   5.116  0.2243 -1.6515  0.2796
   13MOL   H493 8437   2.458   4.107   5.010  3.3857 -1.0201 -0.1078
   13MOL   H494 8438   2.441   4.356   5.046  1.3087 -1.4975 -1.2295
   13MOL   H495 8439   2.402   4.321   5.217  0.2317  3.0796 -0.3872
   13MOL   H496 8440   2.298   4.278   5.077  1.1625 -1.9619 -2.4473
   13MOL   C497 8441   2.910   3.644   5.503 -0.1703  0.7916 -0.3243
   13MOL   C498 8442   2.945   3.545   5.385  0.2357 -0.3723  0.6383
   13MOL   C499 8443   3.084   3.569   5.326  0.1714 -0.4062  0.5194
   13MOL   C500 8444   3.099   3.708   5.263 -0.3012 -0.9114  0.1936
   13MOL   C501 8445   3.239   3.758   5.241 -0.4685  0.7695  0.1699
   13MOL   C502 8446   3.250   3.875   5.147  0.2055  0.2317  0.0605
   13MOL   C503 8447   3.399   3.910   5.118 -0.4530  0.3324 -0.0975
   13MOL   C504 8448   3.420   4.000   4.992  0.4361 -0.0264  0.3888
   13MOL   C505 8449   3.323   4.119   4.991 -0.3413 -0.5633  0.7466
   13MOL   C506 8450   3.340   4.204   4.860  0.6589 -0.1027 -0.3024
   13MOL   C507 8451   3.469   4.291   4.862 -0.0746  0.2053 -0.2367
   13MOL   H508 8452   2.904   3.748   5.469  2.1963 -0.1260 -3.8258
   13MOL   H509 8453   2.998   3.642   5.569 -0.3169  1.0073 -0.1198
   13MOL   H510 8454   2.963   3.445   5.424  0.5277 -0.6276 -0.1333
   13MOL   H511 8455   3.100   3.482   5.262  1.2773  0.2954 -0.1520
   13MOL   H512 8456   3.161   3.552   5.401 -0.4600  0.0377  1.2828
   13MOL   H513 8457   3.043   3.783   5.319  0.4090  0.1400 -0.4804
   13MOL   H514 8458   3.054   3.705   5.164  2.4192 -0.5820 -1.0985
   13MOL   H515 8459   3.286   3.779   5.337  1.3425  0.7691 -0.6911
   13MOL   H516 8460   3.285   3.669   5.198 -1.0466  1.2528 -1.4726
   13MOL   H517 8461   3.218   3.849   5.046 -2.0849  2.2901  0.2188
   13MOL   H518 8462   3.175   3.949   5.175 -0.4751 -0.6565  0.6009
   13MOL   H519 8463   3.450   3.954   5.203 -1.4666 -0.3966  0.9004
   13MOL   H520 8464   3.456   3.818   5.106 -1.4578 -0.2253 -0.7073
   13MOL   H521 8465   3.405   3.953   4.895 -2.6915 -1.1731  1.3666
   13MOL   H522 8466   3.521   4.039   4.994  0.7569 -0.8835  1.4753
   13MOL   H523 8467   3.337   4.183   5.079  1.1819  0.1181  0.0334
   13MOL   H524 8468   3.221   4.082   4.997 -0.8260  0.3936 -1.1145
   13MOL   H525 8469   3.258   4.275   4.872 -0.9095 -1.9135 -0.0916
   13MOL   H526 8470   3.335   4.144   4.770  0.7929  2.6184 -2.1865
   13MOL   H527 8471   3.561   4.236   4.843 -0.4764 -0.4581 -0.2964
   13MOL   H528 8472   3.464   4.331   4.964  1.7043  1.3294 -0.5791
   13MOL   H529 8473   3.469   4.372   4.789  1.7974  0.7371  0.3408
   13MOL   C530 8474   2.835   3.548   5.272 -0.0676 -0.5822  0.6247
   13MOL   C531 8475   2.819   3.416   5.193  0.4098 -0.6877 -0.8266
   13MOL   C532 8476   2.805   3.445   5.044  0.0770 -0.6333 -0.0853
   13MOL   C533 8477   2.934   3.487   4.976  0.3235 -0.4852  0.2623
   13MOL   C534 8478   2.926   3.481   4.821  0.3395  0.0320 -0.0063
   13MOL   C535 8479   3.057   3.534   4.757 -0.6470  0.0476 -0.4859
   13MOL   C536 8480   3.071   3.684   4.761  0.6445  0.3235  0.1411
   13MOL   C537 8481   3.187   3.734   4.681 -0.3016  0.1684 -0.1983
   13MOL   C538 8482   3.217   3.881   4.674  0.3748 -0.7997 -0.4174
   13MOL   C539 8483   3.119   3.965   4.580 -0.2258  0.0864  0.3049
   13MOL   C540 8484   3.157   4.109   4.565  0.1663  0.1043  0.0788
   13MOL   H541 8485   2.745   3.591   5.315  0.7708  2.8981 -0.9359
   13MOL   H542 8486   2.866   3.636   5.216  2.6667 -0.2023  2.6195
   13MOL   H543 8487   2.912   3.360   5.206  1.0610  0.6189  0.3004
   13MOL   H544 8488   2.730   3.521   5.021  1.2693  0.7871  0.6457
   13MOL   H545 8489   2.781   3.347   5.003  1.0049 -0.7749 -0.2981
   13MOL   H546 8490   3.020   3.430   5.012  1.2136  0.4294 -0.3875
   13MOL   H547 8491   2.977   3.583   5.003 -0.2340  0.2566 -1.3935
   13MOL   H548 8492   2.842   3.545   4.794 -0.8044 -1.1958  0.5984
   13MOL   H549 8493   2.902   3.382   4.783  3.3596 -0.0938 -1.7125
   13MOL   H550 8494   3.068   3.497   4.655  0.1065  2.1970 -1.2246
   13MOL   H551 8495   3.145   3.498   4.809 -0.4408 -0.3749 -1.1334
   13MOL   H552 8496   3.069   3.718   4.865  0.6737 -1.4494  0.7454
   13MOL   H553 8497   2.982   3.729   4.717  0.9564 -1.2727 -2.1585
   13MOL   H554 8498   3.180   3.707   4.576 -0.5178 -0.7796  0.0543
   13MOL   H555 8499   3.278   3.683   4.715 -1.3706 -1.3349  0.4644
   13MOL   H556 8500   3.314   3.903   4.630  0.2886  2.4173  0.8468
   13MOL   H557 8501   3.214   3.921   4.775  0.0141 -1.1856 -0.2743
   13MOL   H558 8502   3.013   3.950   4.602 -0.3507 -0.1885 -0.4790
   13MOL   H559 8503   3.114   3.922   4.480 -0.4222 -1.1233  0.8304
   13MOL   H560 8504   3.256   4.114   4.520  0.9424 -0.5144  1.6858
   13MOL   H561 8505   3.088   4.152   4.491 -0.9386 -1.3725  0.2247
   13MOL   H562 8506   3.146   4.169   4.654 -0.2902 -0.3992  0.3702
   13MOL   C563 8507   2.693   3.349   5.256 -0.1950  0.3722  0.1325
   13MOL   C564 8508   2.677   3.197   5.232  0.0379  0.1929  0.2229
   13MOL   C565 8509   2.530   3.151   5.228 -0.3674 -0.8982  0.3925
   13MOL   C566 8510   2.443   3.169   5.353  0.2598  0.4849 -0.3002
   13MOL   C567 8511   2.299   3.219   5.315 -0.3055 -0.0138  0.5888
   13MOL   C568 8512   2.222   3.246   5.440 -1.2122  0.3699 -0.3627
   13MOL   C569 8513   2.073   3.260   5.421  0.0583 -0.4736  0.2233
   13MOL   C570 8514   2.029   3.391   5.343  0.6641  0.4899  0.0944
   13MOL   C571 8515   2.006   3.491   5.445  0.3725 -0.1995  0.2238
   13MOL   C572 8516   1.946   3.619   5.390  0.3089 -0.3770  0.7153
   13MOL   C573 8517   1.981   3.747   5.464 -0.6649  0.4971  0.0787
   13MOL   H574 8518   2.612   3.401   5.204 -2.2151 -0.4710  2.3720
   13MOL   H575 8519   2.670   3.372   5.360 -0.7824  2.5722 -0.4451
   13MOL   H576 8520   2.718   3.170   5.134  1.5212  1.0645  0.5831
   13MOL   H577 8521   2.526   3.046   5.198 -1.4041  0.0760 -3.0804
   13MOL   H578 8522   2.479   3.212   5.154  0.7927  0.2954  0.5713
   13MOL   H579 8523   2.493   3.230   5.428  0.7440  1.6926 -1.5861
   13MOL   H580 8524   2.428   3.072   5.401  2.1087 -1.0388 -2.7168
   13MOL   H581 8525   2.245   3.143   5.259  0.1673 -0.6874  1.0381
   13MOL   H582 8526   2.303   3.306   5.249  3.0559 -1.4601 -1.2078
   13MOL   H583 8527   2.253   3.167   5.508 -1.8041 -0.0125 -0.5404
   13MOL   H584 8528   2.262   3.338   5.481 -2.0841  0.1684  0.9486
   13MOL   H585 8529   2.038   3.166   5.379  0.9293 -0.5132 -0.4286
   13MOL   H586 8530   2.037   3.255   5.524 -2.2981 -0.4523 -0.5812
   13MOL   H587 8531   1.930   3.385   5.297  0.7147 -0.3929  0.1040
   13MOL   H588 8532   2.101   3.436   5.275  1.5449  0.8940  1.2816
   13MOL   H589 8533   2.099   3.526   5.490 -0.1315 -0.7442  1.7326
   13MOL   H590 8534   1.950   3.465   5.535 -0.0438  0.0740  0.0489
   13MOL   H591 8535   1.838   3.613   5.402 -0.2014  1.7436 -2.1931
   13MOL   H592 8536   1.950   3.632   5.281 -0.1191 -2.9675  0.3685
   13MOL   H593 8537   2.085   3.777   5.459 -0.1414 -1.1233  0.9139
   13MOL   H594 8538   1.923   3.826   5.418  0.3628  0.2817 -1.5971
   13MOL   H595 8539   1.945   3.734   5.567 -1.7677 -0.3710 -0.3976
   13MOL   C596 8540   2.763   3.121   5.338  0.2131  0.7161 -0.2521
   13MOL   C597 8541   2.763   2.967   5.332  0.3611  0.0784 -0.0091
   13MOL   C598 8542   2.802   2.912   5.474  0.4888  0.1215  0.0729
   13MOL   C599 8543   2.687   2.896   5.576  0.3721  0.0428 -0.1220
   13MOL   C600 8544   2.748   2.891   5.718 -0.0621 -0.7852 -0.4970
   13MOL   C601 8545   2.664   2.835   5.830  0.1210 -0.2399 -0.4616
   13MOL   C602 8546   2.735   2.815   5.964 -0.2090  0.3501  0.3786
   13MOL   C603 8547   2.745   2.944   6.049  0.5564 -0.7553 -0.9655
   13MOL   C604 8548   2.810   2.939   6.189 -0.3439  0.4355  0.3962
   13MOL   C605 8549   2.792   3.069   6.270  0.2890  0.5200  0.3713
   13MOL   C606 8550   2.694   3.045   6.393 -1.1636  0.6241  0.7762
   13MOL   H607 8551   2.864   3.161   5.344  0.8338 -0.8596 -0.1813
   13MOL   H608 8552   2.728   3.160   5.434  1.2936  1.1001 -0.0132
   13MOL   H609 8553   2.659   2.936   5.322  0.8530 -1.5082 -0.3956
   13MOL   H610 8554   2.880   2.978   5.513 -0.3366  0.4471  1.1949
   13MOL   H611 8555   2.860   2.821   5.474 -3.8340 -2.7904 -1.0160
   13MOL   H612 8556   2.642   2.798   5.556 -0.9408  0.9438 -1.7208
   13MOL   H613 8557   2.620   2.982   5.576  1.7007  1.0985  1.1525
   13MOL   H614 8558   2.786   2.988   5.748  1.0842 -0.4474 -2.9249
   13MOL   H615 8559   2.839   2.832   5.709 -0.0599 -0.9620  0.6583
   13MOL   H616 8560   2.568   2.884   5.846  0.4449  0.8274 -1.7395
   13MOL   H617 8561   2.637   2.734   5.799 -1.8806 -0.2206  1.0860
   13MOL   H618 8562   2.834   2.774   5.947 -0.2433 -0.4872  2.1631
   13MOL   H619 8563   2.689   2.741   6.029  1.1790  0.1538  1.1560
   13MOL   H620 8564   2.643   2.981   6.054  1.6736  2.5531 -1.4133
   13MOL   H621 8565   2.794   3.025   5.995  0.8300 -1.3712 -1.6543
   13MOL   H622 8566   2.757   2.851   6.228  3.5043 -1.2415  2.1518
   13MOL   H623 8567   2.916   2.918   6.183 -0.3925  0.7239 -1.7815
   13MOL   H624 8568   2.734   3.138   6.208 -2.6051  0.0328  2.4289
   13MOL   H625 8569   2.890   3.105   6.301  1.0747  0.2817 -1.7675
   13MOL   H626 8570   2.599   3.009   6.352  0.2325 -0.9591 -1.1625
   13MOL   H627 8571   2.741   2.977   6.463  0.7859  0.2688 -0.8316
   13MOL   H628 8572   2.666   3.137   6.444 -1.0036  1.7267 -1.0583
   13MOL   C629 8573   2.854   2.919   5.212 -0.0215 -0.2556 -0.1144
   13MOL   C630 8574   2.855   2.766   5.183 -1.1086 -0.2062  0.1064
   13MOL   C631 8575   2.741   2.724   5.091 -0.0531  0.8026 -0.2223
   13MOL   C632 8576   2.753   2.575   5.043 -0.4311 -0.3908  0.2636
   13MOL   C633 8577   2.715   2.461   5.140 -0.1673 -0.3336 -0.4828
   13MOL   C634 8578   2.717   2.326   5.075 -0.1156 -0.9049 -0.6745
   13MOL   C635 8579   2.589   2.291   4.995  0.0130  0.2270 -0.2331
   13MOL   C636 8580   2.473   2.232   5.080  0.0848 -0.4950 -0.6706
   13MOL   C637 8581   2.361   2.185   4.982 -0.3051  0.2953  0.0872
   13MOL   C638 8582   2.244   2.129   5.052  0.0711  0.0183 -0.0395
   13MOL   C639 8583   2.124   2.100   4.965 -0.2199  0.4127 -0.0370
   13MOL   H640 8584   2.827   2.972   5.120 -2.5198  1.0793  1.3384
   13MOL   H641 8585   2.951   2.951   5.248 -0.5097 -0.7999  1.7226
   13MOL   H642 8586   2.953   2.737   5.145  0.3908  3.3835  1.0387
   13MOL   H643 8587   2.647   2.757   5.135 -0.7324 -0.5510 -0.6117
   13MOL   H644 8588   2.747   2.787   5.003  0.4617 -0.3450 -1.0299
   13MOL   H645 8589   2.856   2.549   5.018 -0.0171  0.9459  0.5254
   13MOL   H646 8590   2.701   2.565   4.948  0.7138 -1.3841 -0.2536
   13MOL   H647 8591   2.622   2.471   5.196  0.2004  1.4402 -0.1647
   13MOL   H648 8592   2.791   2.471   5.217 -1.0994 -1.3674  0.6026
   13MOL   H649 8593   2.733   2.248   5.149  0.1730 -0.3558 -0.1484
   13MOL   H650 8594   2.800   2.316   5.004 -0.4582  1.0677 -1.3875
   13MOL   H651 8595   2.613   2.221   4.915  0.5684  0.5361 -0.3382
   13MOL   H652 8596   2.541   2.374   4.944 -0.7509 -1.0822 -1.7087
   13MOL   H653 8597   2.441   2.302   5.157  2.7969  1.3125 -1.1306
   13MOL   H654 8598   2.506   2.148   5.142  0.1608  0.6579  0.8772
   13MOL   H655 8599   2.396   2.105   4.917  1.2990 -0.2665  1.6139
   13MOL   H656 8600   2.328   2.263   4.913 -0.6529  0.3958  0.3623
   13MOL   H657 8601   2.218   2.195   5.134  0.0570  0.5472 -0.4703
   13MOL   H658 8602   2.277   2.040   5.106 -0.9596  0.9209  2.1067
   13MOL   H659 8603   2.158   2.023   4.896  2.4011  1.7793 -0.3557
   13MOL   H660 8604   2.093   2.188   4.908  2.0142  1.6984  0.6691
   13MOL   H661 8605   2.038   2.066   5.023 -0.3576 -1.1057 -1.1168
   13MOL   H662 8606   2.854   2.708   5.275  0.7244  0.8609  0.8289
   14MOL     C1 8607   2.149   5.845   1.531 -0.1857 -0.1880 -0.1977
   14MOL     C2 8608   2.285   5.891   1.590  0.3693 -0.0740 -0.7092
   14MOL     C3 8609   2.367   5.766   1.647 -1.0921 -0.6071 -0.1585
   14MOL     C4 8610   2.294   5.696   1.761 -0.2345 -0.0151 -0.1675
   14MOL     C5 8611   2.377   5.595   1.836  0.2709  0.1574  0.5869
   14MOL     C6 8612   2.502   5.642   1.907  0.1748  0.1227  0.0594
   14MOL     C7 8613   2.560   5.526   1.980 -0.3402 -0.8003  0.4388
   14MOL     C8 8614   2.504   5.514   2.124  0.6449 -0.4786 -0.1569
   14MOL     C9 8615   2.564   5.390   2.195  0.9517 -0.2459  0.3169
   14MOL    C10 8616   2.489   5.338   2.314 -0.0116  0.9220  0.1012
   14MOL    C11 8617   2.473   5.439   2.441 -0.3637  0.5556 -0.2158
   14MOL    H12 8618   2.162   5.775   1.449  0.7141 -1.8995  1.3644
   14MOL    H13 8619   2.095   5.934   1.497 -0.8683 -0.1393  0.9659
   14MOL    H14 8620   2.274   5.958   1.675  2.1980  0.2140 -0.6755
   14MOL    H15 8621   2.466   5.800   1.677 -1.0027 -1.9483  1.1414
   14MOL    H16 8622   2.376   5.696   1.564 -1.0575 -0.4697 -0.2715
   14MOL    H17 8623   2.206   5.638   1.732 -0.7266  0.8806 -0.4798
   14MOL    H18 8624   2.261   5.771   1.833  1.3599 -0.3085  0.8862
   14MOL    H19 8625   2.308   5.546   1.905  0.4593  1.4431  1.7106
   14MOL    H20 8626   2.411   5.511   1.777 -0.8001 -0.1523  0.3934
   14MOL    H21 8627   2.478   5.719   1.981 -2.8480 -1.3607  0.7232
   14MOL    H22 8628   2.574   5.679   1.834 -0.9925  3.8790  0.6976
   14MOL    H23 8629   2.539   5.434   1.925  0.2000 -0.1950 -0.7839
   14MOL    H24 8630   2.668   5.534   1.978 -0.3154 -1.2726 -0.0162
   14MOL    H25 8631   2.396   5.525   2.130  0.3928 -2.7607 -0.1534
   14MOL    H26 8632   2.545   5.602   2.174 -0.2947 -1.1393  1.8566
   14MOL    H27 8633   2.667   5.400   2.229  0.5520 -0.0366  1.4821
   14MOL    H28 8634   2.562   5.306   2.125 -1.2774 -1.2108  1.4851
   14MOL    H29 8635   2.543   5.249   2.344  0.0119  1.2430  1.0578
   14MOL    H30 8636   2.391   5.310   2.274  1.2570 -2.4323 -0.8042
   14MOL    H31 8637   2.367   5.434   2.464 -0.3273 -2.5503 -0.5602
   14MOL    H32 8638   2.521   5.399   2.530 -0.7524  2.2843  0.7960
   14MOL    H33 8639   2.506   5.541   2.420  2.3356 -0.1209  0.6327
   14MOL    H34 8640   2.079   5.788   1.593  0.1669 -0.6297 -0.2067
   14MOL    C35 8641   2.358   5.967   1.476  0.3695  0.1933 -0.6095
   14MOL    C36 8642   2.322   6.108   1.443 -0.0812  0.1992 -0.1390
   14MOL    C37 8643   2.323   6.203   1.571  0.3409  0.3220 -0.6003
   14MOL    C38 8644   2.463   6.218   1.625  0.1290 -0.1816 -0.1801
   14MOL    C39 8645   2.475   6.294   1.762 -0.6275 -0.4888 -0.4372
   14MOL    C40 8646   2.442   6.442   1.758  0.6493 -0.3202  0.2530
   14MOL    C41 8647   2.544   6.535   1.689 -0.2617  0.7475  0.2266
   14MOL    C42 8648   2.493   6.678   1.660  0.3418 -0.5836 -0.3063
   14MOL    C43 8649   2.612   6.775   1.634  0.0074 -0.5246 -0.0810
   14MOL    C44 8650   2.714   6.730   1.530  0.5684  0.6083  0.0801
   14MOL    C45 8651   2.815   6.835   1.496 -0.0182 -0.0372 -0.7171
   14MOL    H46 8652   2.345   5.914   1.382 -1.6098  1.2330 -0.9375
   14MOL    H47 8653   2.464   5.955   1.502 -0.2441  0.7187  2.3728
   14MOL    H48 8654   2.215   6.111   1.421 -0.2620 -1.3165  0.4493
   14MOL    H49 8655   2.285   6.300   1.538 -0.7575 -0.4306 -1.5949
   14MOL    H50 8656   2.267   6.168   1.657  0.4719  1.7662  0.0892
   14MOL    H51 8657   2.535   6.258   1.554  0.4490 -0.9864 -0.3184
   14MOL    H52 8658   2.497   6.118   1.652 -0.6003 -0.5558 -0.6134
   14MOL    H53 8659   2.579   6.277   1.789 -0.5215 -0.9545 -1.1454
   14MOL    H54 8660   2.409   6.242   1.832  0.8775 -0.5827  0.9359
   14MOL    H55 8661   2.409   6.484   1.852 -1.6459 -1.9547  0.2379
   14MOL    H56 8662   2.355   6.445   1.693 -0.3588 -0.3906  1.5830
   14MOL    H57 8663   2.629   6.540   1.757  0.4462 -1.5446 -0.4473
   14MOL    H58 8664   2.582   6.482   1.601 -0.6146 -0.1111  0.5938
   14MOL    H59 8665   2.427   6.715   1.739  0.0814 -0.2306 -0.6937
   14MOL    H60 8666   2.416   6.679   1.583 -0.1861 -2.1445  0.1599
   14MOL    H61 8667   2.663   6.787   1.729 -1.6558 -1.9243  1.0033
   14MOL    H62 8668   2.568   6.871   1.607 -0.5043 -0.6220  0.3960
   14MOL    H63 8669   2.767   6.638   1.554  0.0817  0.0597 -0.9432
   14MOL    H64 8670   2.660   6.705   1.439 -0.6626  1.1426  0.6584
   14MOL    H65 8671   2.780   6.934   1.466 -1.1970  0.6408  2.6063
   14MOL    H66 8672   2.878   6.853   1.584  1.8993 -0.1454 -2.0475
   14MOL    H67 8673   2.874   6.792   1.416 -0.4176 -0.0457 -1.0077
   14MOL    C68 8674   2.402   6.166   1.319  0.3904  0.1797 -0.1983
   14MOL    C69 8675   2.376   6.310   1.278  0.6094  0.1431  0.8417
   14MOL    C70 8676   2.470   6.349   1.163 -0.2612  0.2388  0.3611
   14MOL    C71 8677   2.614   6.391   1.216  0.2892 -0.1666 -0.7304
   14MOL    C72 8678   2.715   6.434   1.109 -0.4568  0.2171  0.3992
   14MOL    C73 8679   2.828   6.505   1.184 -0.1346 -0.7126  0.1293
   14MOL    C74 8680   2.944   6.560   1.100 -0.1226  0.3442 -0.6181
   14MOL    C75 8681   3.014   6.693   1.145 -1.0531 -0.0579 -0.1899
   14MOL    C76 8682   3.139   6.731   1.073 -0.3681 -0.8480  0.0768
   14MOL    C77 8683   3.150   6.866   0.997  0.1361 -0.0045 -0.4397
   14MOL    C78 8684   3.287   6.887   0.957 -0.8414 -1.1340  0.4868
   14MOL    H79 8685   2.387   6.105   1.229 -0.0595  0.7239 -0.4939
   14MOL    H80 8686   2.505   6.146   1.349  0.5515  0.2311 -0.7152
   14MOL    H81 8687   2.409   6.375   1.359 -1.5669  3.3753 -0.7405
   14MOL    H82 8688   2.428   6.436   1.113 -0.1213  0.6437  0.9406
   14MOL    H83 8689   2.476   6.269   1.090 -0.1736  0.0467  0.5791
   14MOL    H84 8690   2.597   6.471   1.288 -0.4090 -1.4742  0.5932
   14MOL    H85 8691   2.659   6.317   1.282  1.5047  3.0121  2.1535
   14MOL    H86 8692   2.672   6.499   1.033 -0.6454  0.9770  1.1411
   14MOL    H87 8693   2.756   6.349   1.055 -0.4487 -0.1955  1.0468
   14MOL    H88 8694   2.794   6.587   1.247  2.7371 -1.1559  2.3446
   14MOL    H89 8695   2.879   6.444   1.258  0.1187 -0.5127  0.1193
   14MOL    H90 8696   2.924   6.564   0.992  1.5313  0.8071 -0.9170
   14MOL    H91 8697   3.026   6.490   1.111 -1.0932 -0.5875  0.8549
   14MOL    H92 8698   2.947   6.778   1.131 -0.4495  0.6210  0.9825
   14MOL    H93 8699   3.027   6.666   1.250 -1.3668 -1.9078 -0.6008
   14MOL    H94 8700   3.218   6.737   1.147 -0.3609 -2.3765  0.1950
   14MOL    H95 8701   3.169   6.654   1.001  1.0410 -0.3927  0.1626
   14MOL    H96 8702   3.089   6.865   0.907  0.4013 -0.4886 -0.6168
   14MOL    H97 8703   3.108   6.951   1.051  1.7618  1.3354 -1.2437
   14MOL    H98 8704   3.352   6.898   1.044 -0.5460  1.5290 -0.0255
   14MOL    H99 8705   3.304   6.974   0.893  1.3488 -1.3125  0.7609
   14MOL   H100 8706   3.331   6.804   0.903 -2.4525 -0.8490 -1.3112
   14MOL   C101 8707   2.231   6.336   1.243  0.1631  0.4331  0.4307
   14MOL   C102 8708   2.192   6.492   1.237 -0.2259  0.5322  1.3413
   14MOL   C103 8709   2.196   6.556   1.381  0.0605 -0.3597  0.1833
   14MOL   C104 8710   2.180   6.712   1.384  0.0563  0.1453 -0.5881
   14MOL   C105 8711   2.268   6.804   1.303  0.2810 -0.6008 -0.4889
   14MOL   C106 8712   2.412   6.758   1.288 -0.2159 -0.2226  0.6145
   14MOL   C107 8713   2.491   6.833   1.172  0.8109 -0.0350 -0.5924
   14MOL   C108 8714   2.456   6.768   1.035  0.1376 -0.1463 -0.0581
   14MOL   C109 8715   2.528   6.829   0.907  0.5492 -0.3736 -0.5253
   14MOL   C110 8716   2.452   6.786   0.778  0.3743  0.1140 -0.2261
   14MOL   C111 8717   2.313   6.863   0.752  0.1318 -0.8468 -0.1114
   14MOL   H112 8718   2.208   6.279   1.153  1.6942 -0.2143  0.4478
   14MOL   H113 8719   2.154   6.307   1.315  0.5651 -1.0292  0.2820
   14MOL   H114 8720   2.260   6.553   1.177  0.3618  0.3286  1.7949
   14MOL   H115 8721   2.126   6.504   1.446 -0.9156  2.6618  1.6239
   14MOL   H116 8722   2.296   6.530   1.418  0.8366  0.4170 -1.3167
   14MOL   H117 8723   2.074   6.733   1.370 -0.6806 -1.9329  1.5835
   14MOL   H118 8724   2.182   6.730   1.492  0.0113 -0.6532 -0.4512
   14MOL   H119 8725   2.222   6.816   1.204  1.2471 -0.0496 -0.8841
   14MOL   H120 8726   2.249   6.903   1.345 -1.0490 -1.0156 -0.1123
   14MOL   H121 8727   2.469   6.786   1.377 -1.6554  1.1786  1.1218
   14MOL   H122 8728   2.428   6.654   1.262  0.2614 -0.1874  0.7623
   14MOL   H123 8729   2.595   6.816   1.198  0.6313  0.2261  0.3102
   14MOL   H124 8730   2.469   6.939   1.184 -0.2284 -0.1486 -1.4157
   14MOL   H125 8731   2.475   6.661   1.036 -0.7613 -0.3371 -1.3222
   14MOL   H126 8732   2.348   6.772   1.017  0.0565  0.8617  0.6475
   14MOL   H127 8733   2.538   6.937   0.911  1.4275 -0.4945  0.9750
   14MOL   H128 8734   2.629   6.790   0.912  0.1632 -1.4422 -0.7925
   14MOL   H129 8735   2.433   6.679   0.767 -0.9347  0.2901  0.1478
   14MOL   H130 8736   2.525   6.810   0.701 -0.9117  1.1636 -1.1506
   14MOL   H131 8737   2.268   6.813   0.666  1.2550 -2.6080  0.2999
   14MOL   H132 8738   2.241   6.858   0.833 -1.8019  1.1223 -1.6485
   14MOL   H133 8739   2.320   6.970   0.736 -0.1446 -0.8303 -0.1241
   14MOL   C134 8740   2.048   6.524   1.179  0.1421  0.1603  0.2105
   14MOL   C135 8741   2.024   6.452   1.039 -0.7730 -0.1865  0.6065
   14MOL   C136 8742   2.135   6.463   0.936 -0.2401 -0.2087 -0.0529
   14MOL   C137 8743   2.118   6.373   0.808  0.1159  0.3773  1.0240
   14MOL   C138 8744   2.224   6.400   0.703 -0.1956 -0.5084  0.6127
   14MOL   C139 8745   2.361   6.388   0.775  0.3285 -1.1858 -0.1293
   14MOL   C140 8746   2.477   6.356   0.677 -0.2177  0.5510 -0.7558
   14MOL   C141 8747   2.611   6.338   0.744  0.2678 -0.2926 -0.2176
   14MOL   C142 8748   2.733   6.373   0.654  0.0776 -0.0090 -0.2434
   14MOL   C143 8749   2.866   6.319   0.702 -0.3740  0.3417  0.1282
   14MOL   C144 8750   2.982   6.374   0.628  0.0665 -0.1361 -0.4656
   14MOL   H145 8751   1.969   6.494   1.248  0.5054  0.4269  0.7445
   14MOL   H146 8752   2.035   6.630   1.156  0.5963  0.0085 -0.7385
   14MOL   H147 8753   2.016   6.345   1.058 -0.3745 -0.3756 -0.2569
   14MOL   H148 8754   2.227   6.441   0.992 -0.5781 -0.7334  0.3049
   14MOL   H149 8755   2.150   6.564   0.899  3.8273  1.2323  4.8394
   14MOL   H150 8756   2.130   6.266   0.828 -0.1882  0.3339  0.9684
   14MOL   H151 8757   2.020   6.397   0.768  0.8841 -1.9332 -2.4036
   14MOL   H152 8758   2.221   6.326   0.623  1.4127  0.6791 -0.5826
   14MOL   H153 8759   2.209   6.499   0.661  2.7749 -0.5213 -0.6714
   14MOL   H154 8760   2.385   6.475   0.836  0.7561 -1.6004  0.2924
   14MOL   H155 8761   2.349   6.301   0.839 -0.5702 -1.5142 -0.7402
   14MOL   H156 8762   2.448   6.261   0.632  0.6960 -2.0253  3.8154
   14MOL   H157 8763   2.504   6.436   0.609  2.0936 -0.7657 -1.4371
   14MOL   H158 8764   2.625   6.400   0.833 -0.4827  0.7649 -0.8350
   14MOL   H159 8765   2.630   6.237   0.782  2.5303 -1.2010 -3.5636
   14MOL   H160 8766   2.716   6.338   0.552 -1.9025  0.6505 -0.1653
   14MOL   H161 8767   2.739   6.482   0.651  1.3067 -0.0799 -0.3833
   14MOL   H162 8768   2.876   6.342   0.808  0.9742 -1.2864  0.3806
   14MOL   H163 8769   2.866   6.210   0.700 -0.1163  0.3563 -2.9544
   14MOL   H164 8770   3.078   6.327   0.649  0.2909  0.9298  0.9708
   14MOL   H165 8771   2.996   6.478   0.658  1.9439 -0.4345 -0.2602
   14MOL   H166 8772   2.958   6.365   0.522  0.3624 -2.7939 -0.3510
   14MOL   C167 8773   1.882   6.493   0.980 -0.1945  0.3846  0.5323
   14MOL   C168 8774   1.761   6.480   1.078 -0.6476 -0.0311  0.7123
   14MOL   C169 8775   1.635   6.439   1.002  0.4613  0.3704  0.3460
   14MOL   C170 8776   1.637   6.294   0.950 -0.2191  0.3708  0.4795
   14MOL   C171 8777   1.504   6.258   0.875 -0.0562  0.3365 -0.3748
   14MOL   C172 8778   1.530   6.151   0.774 -0.2709 -0.3679 -1.4712
   14MOL   C173 8779   1.415   6.129   0.679 -0.7952 -0.4411  0.3801
   14MOL   C174 8780   1.432   6.021   0.571 -0.6332 -0.3116 -0.1906
   14MOL   C175 8781   1.317   6.026   0.474  0.4029  0.1487 -0.4808
   14MOL   C176 8782   1.181   5.977   0.528 -0.8027  0.2934 -0.1612
   14MOL   C177 8783   1.067   5.969   0.423 -0.0365  0.2817  0.1507
   14MOL   H178 8784   1.889   6.597   0.950 -0.5275  0.7859  1.8210
   14MOL   H179 8785   1.860   6.427   0.896  1.2098  0.4181  0.1339
   14MOL   H180 8786   1.769   6.397   1.148 -0.6811 -2.0033 -1.5567
   14MOL   H181 8787   1.603   6.513   0.929 -0.8877 -0.9521 -0.4304
   14MOL   H182 8788   1.565   6.431   1.085  0.8825  1.9595  0.8751
   14MOL   H183 8789   1.719   6.284   0.879 -0.9299  0.1861 -0.3199
   14MOL   H184 8790   1.664   6.229   1.034  1.4966  1.4078  0.7714
   14MOL   H185 8791   1.479   6.345   0.816  1.3677  0.9188 -0.1523
   14MOL   H186 8792   1.421   6.248   0.945  1.5065  1.5651  1.7125
   14MOL   H187 8793   1.611   6.183   0.708 -1.5105  3.5824 -1.2391
   14MOL   H188 8794   1.558   6.064   0.834 -0.1639  1.2132  0.8349
   14MOL   H189 8795   1.393   6.221   0.625 -0.3240 -2.2062 -2.9190
   14MOL   H190 8796   1.324   6.104   0.734 -4.4444  1.5117 -4.4010
   14MOL   H191 8797   1.527   6.037   0.520 -0.3822  0.6688  0.5721
   14MOL   H192 8798   1.438   5.923   0.617  0.7950  0.1463  0.6218
   14MOL   H193 8799   1.334   5.965   0.385 -3.4022 -1.1480 -0.4285
   14MOL   H194 8800   1.301   6.124   0.430 -2.7695 -0.5651 -1.0923
   14MOL   H195 8801   1.146   6.048   0.603 -0.8740  0.1936 -0.0986
   14MOL   H196 8802   1.190   5.882   0.581  0.9131 -0.0211 -0.9944
   14MOL   H197 8803   1.076   5.892   0.346 -2.8342 -1.2702  1.3135
   14MOL   H198 8804   1.076   6.058   0.360 -0.8829  0.3452  0.1105
   14MOL   H199 8805   0.967   5.959   0.465  0.8236 -0.5227  2.0286
   14MOL   C200 8806   1.735   6.615   1.150  0.8240 -0.4630  0.5497
   14MOL   C201 8807   1.658   6.601   1.285 -0.4179 -0.5018  0.3983
   14MOL   C202 8808   1.629   6.741   1.342 -0.3444 -0.1856 -0.5518
   14MOL   C203 8809   1.481   6.758   1.393  0.1358  0.8343  0.4924
   14MOL   C204 8810   1.437   6.900   1.424  0.1370 -0.2543  0.0917
   14MOL   C205 8811   1.418   6.997   1.312 -0.0069 -0.4587  0.4962
   14MOL   C206 8812   1.386   7.142   1.366  0.0124  0.2976 -0.0623
   14MOL   C207 8813   1.324   7.243   1.263 -0.0367  0.1769  0.2560
   14MOL   C208 8814   1.278   7.370   1.334  0.2625 -0.2933  0.2330
   14MOL   C209 8815   1.235   7.462   1.232  0.1083  0.4624 -0.6044
   14MOL   C210 8816   1.198   7.593   1.300 -0.2673  0.0052 -0.1685
   14MOL   H211 8817   1.824   6.673   1.175  0.0966  0.8714  0.1189
   14MOL   H212 8818   1.678   6.679   1.083 -0.2162 -0.5861  1.2880
   14MOL   H213 8819   1.561   6.567   1.248 -1.6576  1.5579  1.6365
   14MOL   H214 8820   1.639   6.813   1.260  1.9187 -0.8490 -0.8750
   14MOL   H215 8821   1.697   6.770   1.421 -0.5325  1.4224 -0.9684
   14MOL   H216 8822   1.463   6.691   1.476  0.9543  0.1786  0.1492
   14MOL   H217 8823   1.404   6.728   1.322  1.7094 -3.9835  0.6617
   14MOL   H218 8824   1.516   6.936   1.490 -0.0666 -1.7515  1.1777
   14MOL   H219 8825   1.348   6.890   1.487  1.8415  0.6240  2.7402
   14MOL   H220 8826   1.506   6.987   1.248 -0.2019  0.0731  0.1460
   14MOL   H221 8827   1.336   6.972   1.244 -0.1530  0.6453  0.2594
   14MOL   H222 8828   1.480   7.169   1.414  1.3391 -3.0845 -0.5986
   14MOL   H223 8829   1.317   7.115   1.446 -0.8036  0.3436 -0.7539
   14MOL   H224 8830   1.234   7.206   1.215  0.1549 -3.8763  2.7514
   14MOL   H225 8831   1.391   7.261   1.179 -0.8409  0.6739 -0.2813
   14MOL   H226 8832   1.361   7.421   1.382  0.1494  1.4598 -1.3616
   14MOL   H227 8833   1.204   7.343   1.408  0.2538  0.4245  0.4900
   14MOL   H228 8834   1.310   7.486   1.157 -1.8910  0.1258 -2.7800
   14MOL   H229 8835   1.147   7.427   1.177 -1.6756 -1.6001  3.3078
   14MOL   H230 8836   1.285   7.647   1.337 -0.7641 -0.5204  1.8370
   14MOL   H231 8837   1.127   7.574   1.381  0.6006 -2.0357  0.1518
   14MOL   H232 8838   1.151   7.664   1.232  0.5725  0.7481  0.0163
   14MOL   C233 8839   1.698   6.507   1.400 -0.3282 -0.6281 -0.3089
   14MOL   C234 8840   1.661   6.354   1.412 -0.2041  0.4509  0.9094
   14MOL   C235 8841   1.505   6.334   1.414 -0.1204 -0.3448 -0.2016
   14MOL   C236 8842   1.449   6.202   1.344 -0.2380  0.3551 -0.4552
   14MOL   C237 8843   1.300   6.190   1.353 -0.2042  0.3938  0.1390
   14MOL   C238 8844   1.241   6.167   1.493 -0.5071  0.3452 -0.0827
   14MOL   C239 8845   1.099   6.108   1.480  0.0851  0.5135  0.2727
   14MOL   C240 8846   1.018   6.092   1.609 -0.0709  0.2233 -0.6384
   14MOL   C241 8847   0.905   5.986   1.586 -0.1985  0.1047 -0.1072
   14MOL   C242 8848   0.813   5.994   1.706 -0.0925  0.4477 -0.7817
   14MOL   C243 8849   0.701   5.895   1.686 -0.1163  0.6132 -0.0622
   14MOL   H244 8850   1.654   6.549   1.490 -0.6722  0.5526 -1.0114
   14MOL   H245 8851   1.807   6.518   1.399 -0.2455 -1.4606 -0.8819
   14MOL   H246 8852   1.687   6.301   1.320  2.2324  1.1651  1.1708
   14MOL   H247 8853   1.481   6.334   1.520  2.2952 -1.4053  0.3916
   14MOL   H248 8854   1.451   6.423   1.380 -0.8931  0.3205  2.5784
   14MOL   H249 8855   1.505   6.122   1.391 -2.8628  0.4057  2.9792
   14MOL   H250 8856   1.473   6.192   1.238  1.6283 -1.3387  0.1067
   14MOL   H251 8857   1.279   6.097   1.300  2.6911 -0.5717  0.5682
   14MOL   H252 8858   1.244   6.266   1.301  0.0452 -0.6293 -1.6673
   14MOL   H253 8859   1.235   6.258   1.553  2.7339 -0.3688  1.4546
   14MOL   H254 8860   1.295   6.095   1.555 -0.8649 -0.4728 -0.7035
   14MOL   H255 8861   1.039   6.162   1.407 -1.0981 -3.5452 -1.9622
   14MOL   H256 8862   1.088   6.010   1.433 -1.7548 -0.5433  2.7990
   14MOL   H257 8863   1.077   6.061   1.695 -1.1639 -0.0313  0.0316
   14MOL   H258 8864   0.975   6.190   1.634 -1.1019 -0.4504  0.3185
   14MOL   H259 8865   0.843   6.016   1.502  0.8480  0.5061 -0.7556
   14MOL   H260 8866   0.946   5.886   1.576  0.3280  0.3003  0.0372
   14MOL   H261 8867   0.769   6.090   1.732  0.0692  0.5461 -0.8680
   14MOL   H262 8868   0.868   5.971   1.797  1.1365  0.0862 -1.6038
   14MOL   H263 8869   0.757   5.811   1.645  1.7977 -0.4314  4.3699
   14MOL   H264 8870   0.627   5.932   1.615  0.0154  0.9026 -0.0454
   14MOL   H265 8871   0.638   5.874   1.773 -0.7765 -1.2871 -0.9713
   14MOL   C266 8872   1.716   6.283   1.536  0.4351  0.0276 -0.0296
   14MOL   C267 8873   1.873   6.257   1.527  0.5528  0.5878  0.6500
   14MOL   C268 8874   1.903   6.164   1.401 -0.0972 -0.4176 -0.0822
   14MOL   C269 8875   1.815   6.043   1.371  0.4134 -0.7359 -0.2172
   14MOL   C270 8876   1.873   5.963   1.258 -0.0622 -0.4844  0.3165
   14MOL   C271 8877   1.859   6.029   1.116 -0.0617  0.1676 -0.4708
   14MOL   C272 8878   1.942   5.960   1.002 -0.6462 -0.2138 -1.1061
   14MOL   C273 8879   1.894   6.024   0.867 -0.1608  0.0696  0.3005
   14MOL   C274 8880   1.967   5.966   0.744  0.3831 -0.0380 -0.7208
   14MOL   C275 8881   1.910   6.002   0.603  0.4395  0.0982 -0.6461
   14MOL   C276 8882   1.981   5.926   0.494  0.1054 -0.0363  0.0040
   14MOL   H277 8883   1.658   6.192   1.551  1.3226 -0.4128  0.7764
   14MOL   H278 8884   1.698   6.349   1.620 -0.6092  0.7397 -0.8036
   14MOL   H279 8885   1.933   6.342   1.496  0.2682  0.0162 -1.6306
   14MOL   H280 8886   1.896   6.231   1.315 -0.5484  0.3873  0.5633
   14MOL   H281 8887   2.004   6.127   1.416 -0.5360 -1.3982  0.5248
   14MOL   H282 8888   1.716   6.075   1.341  1.0256  0.6916 -0.7899
   14MOL   H283 8889   1.815   5.972   1.454  1.3179  0.4304  0.7985
   14MOL   H284 8890   1.830   5.863   1.250 -1.5537  0.3115 -1.9415
   14MOL   H285 8891   1.977   5.942   1.285 -0.8642 -1.4804  2.7892
   14MOL   H286 8892   1.902   6.129   1.123  2.2602 -0.9011  1.3301
   14MOL   H287 8893   1.756   6.031   1.082 -0.4111 -0.1932  0.5422
   14MOL   H288 8894   2.050   5.973   1.013 -0.8603  1.5388 -0.9072
   14MOL   H289 8895   1.921   5.854   1.017 -2.5118  0.5179  1.7085
   14MOL   H290 8896   1.911   6.131   0.871 -0.9902  0.1614  2.2448
   14MOL   H291 8897   1.790   5.995   0.851  0.6565 -1.7907 -1.9536
   14MOL   H292 8898   2.071   5.997   0.739  1.2550 -2.8259 -0.6688
   14MOL   H293 8899   1.981   5.859   0.755 -0.9923 -0.1582 -0.0720
   14MOL   H294 8900   1.930   6.107   0.580  0.0069  0.9299  2.4594
   14MOL   H295 8901   1.803   5.985   0.592 -0.4338  1.7668  3.9719
   14MOL   H296 8902   2.087   5.939   0.518  0.1631 -1.3428  0.4858
   14MOL   H297 8903   1.955   5.963   0.395  1.0802 -1.3510 -0.7532
   14MOL   H298 8904   1.956   5.821   0.483  0.6686 -0.2197  0.4316
   14MOL   C299 8905   1.935   6.187   1.652  0.4083  0.0597  0.2393
   14MOL   C300 8906   1.933   6.262   1.782  0.2590  0.4504 -0.5529
   14MOL   C301 8907   2.002   6.399   1.776  0.2021  0.0950 -0.6539
   14MOL   C302 8908   2.007   6.478   1.916 -0.8182 -0.5271 -0.0800
   14MOL   C303 8909   2.069   6.619   1.909 -0.1042  0.1862 -0.3270
   14MOL   C304 8910   2.049   6.702   2.035 -0.5501  0.3616 -0.4813
   14MOL   C305 8911   2.133   6.820   2.039 -0.6499 -0.4001 -0.7450
   14MOL   C306 8912   2.105   6.905   2.165 -0.1925 -0.1003  0.1208
   14MOL   C307 8913   2.185   7.033   2.152  0.5029  0.2136 -0.6105
   14MOL   C308 8914   2.168   7.124   2.279  0.4816 -0.6047 -0.7809
   14MOL   C309 8915   2.282   7.228   2.278  0.6614 -0.3793  0.4100
   14MOL   H310 8916   2.043   6.173   1.639  0.6077  2.1472 -0.4648
   14MOL   H311 8917   1.894   6.086   1.659  2.8054 -1.4360 -4.5406
   14MOL   H312 8918   1.825   6.277   1.790  0.5186  2.3870 -0.4214
   14MOL   H313 8919   2.104   6.383   1.742  1.3914 -0.8617  3.1153
   14MOL   H314 8920   1.951   6.469   1.709 -1.3924 -0.8642 -0.4738
   14MOL   H315 8921   1.904   6.484   1.950 -1.2689 -0.5722 -1.4061
   14MOL   H316 8922   2.062   6.423   1.992 -0.7567 -1.5967 -0.8828
   14MOL   H317 8923   2.177   6.612   1.898 -0.0985  0.3561 -0.3737
   14MOL   H318 8924   2.026   6.679   1.828 -1.2139  0.3128  0.3530
   14MOL   H319 8925   2.059   6.630   2.117 -1.6100 -1.0147 -1.5305
   14MOL   H320 8926   1.943   6.728   2.035 -0.3530  1.1578  0.1304
   14MOL   H321 8927   2.240   6.802   2.031 -0.4303 -0.0918  1.2310
   14MOL   H322 8928   2.106   6.883   1.954  1.0663 -1.4697 -2.1084
   14MOL   H323 8929   2.145   6.852   2.251  0.5417 -2.1271 -1.4249
   14MOL   H324 8930   1.997   6.921   2.171 -0.1782  0.8931 -2.0091
   14MOL   H325 8931   2.170   7.093   2.062  0.2666  0.5773 -0.3322
   14MOL   H326 8932   2.289   7.001   2.151  0.1409 -0.9599 -0.6568
   14MOL   H327 8933   2.160   7.065   2.370  0.3770  1.0959  0.3344
   14MOL   H328 8934   2.075   7.180   2.273 -0.7829 -2.4625  0.7824
   14MOL   H329 8935   2.384   7.189   2.272  0.2292 -1.4489 -0.1354
   14MOL   H330 8936   2.271   7.298   2.195  0.1379  0.4541  1.1761
   14MOL   H331 8937   2.286   7.281   2.374 -0.4510  0.4430  0.0122
   14MOL   C332 8938   1.977   6.172   1.894 -0.5856 -1.0693 -0.4753
   14MOL   C333 8939   1.864   6.120   1.987  0.6506 -0.0093 -0.1826
   14MOL   C334 8940   1.921   6.064   2.123 -0.2537 -0.3617  0.2202
   14MOL   C335 8941   2.033   5.958   2.106 -0.0882 -0.6148 -0.0545
   14MOL   C336 8942   2.069   5.873   2.222  0.9946  0.4888  0.0894
   14MOL   C337 8943   2.200   5.802   2.204 -0.6657 -0.2216 -0.4445
   14MOL   C338 8944   2.266   5.732   2.324  0.0167 -0.4319 -0.4794
   14MOL   C339 8945   2.286   5.814   2.451  1.0266  1.1189  0.4641
   14MOL   C340 8946   2.415   5.903   2.447  0.0532 -0.2685 -0.5131
   14MOL   C341 8947   2.453   5.984   2.575  0.0737  0.3174 -0.0266
   14MOL   C342 8948   2.593   6.053   2.575 -0.1684 -0.1648 -0.2569
   14MOL   H343 8949   2.039   6.091   1.855  0.4857  0.3383 -1.7829
   14MOL   H344 8950   2.047   6.224   1.960  0.7996 -0.6576 -2.2016
   14MOL   H345 8951   1.806   6.209   2.013 -1.2005 -0.5576 -2.2350
   14MOL   H346 8952   1.836   6.031   2.183 -0.3862  1.8331  1.3143
   14MOL   H347 8953   1.956   6.139   2.194 -1.2630 -1.5044  1.9745
   14MOL   H348 8954   2.015   5.909   2.010  1.4578  0.3742 -0.8904
   14MOL   H349 8955   2.118   6.021   2.079 -2.6514  2.8045 -0.4712
   14MOL   H350 8956   2.060   5.926   2.317 -1.4709 -0.6534  0.5332
   14MOL   H351 8957   1.988   5.801   2.232 -0.0367  1.7389  0.8720
   14MOL   H352 8958   2.273   5.873   2.168  0.7671 -1.2178  0.4509
   14MOL   H353 8959   2.183   5.731   2.123 -0.1294  2.0833 -2.6083
   14MOL   H354 8960   2.362   5.705   2.281 -0.0879  1.5318 -1.9976
   14MOL   H355 8961   2.212   5.638   2.342 -1.4456  0.4866  0.0216
   14MOL   H356 8962   2.192   5.865   2.475  0.5614  1.3368 -1.7236
   14MOL   H357 8963   2.291   5.745   2.536 -0.6970  2.7136  1.9170
   14MOL   H358 8964   2.415   5.971   2.362 -2.1698  0.8849  0.3824
   14MOL   H359 8965   2.500   5.838   2.425  0.6407  0.9278 -1.9003
   14MOL   H360 8966   2.455   5.921   2.664 -1.9462 -1.6516 -1.3198
   14MOL   H361 8967   2.384   6.067   2.588  1.9474  1.6336  1.8806
   14MOL   H362 8968   2.600   6.108   2.481 -1.3821  0.6768  0.1329
   14MOL   H363 8969   2.601   6.123   2.659 -0.8204 -0.2903 -0.0886
   14MOL   H364 8970   2.675   5.981   2.577 -0.2325 -0.2200  3.1215
   14MOL   C365 8971   1.760   6.013   1.928 -0.1585 -0.2320 -0.1673
   14MOL   C366 8972   1.626   6.060   1.872  0.9631 -0.6852 -0.0900
   14MOL   C367 8973   1.551   5.945   1.795  0.2992  0.0917 -0.6008
   14MOL   C368 8974   1.625   5.891   1.665 -0.1372 -0.1051 -0.1200
   14MOL   C369 8975   1.540   5.818   1.563  0.1486 -0.3321 -0.8437
   14MOL   C370 8976   1.488   5.674   1.586 -0.0958 -0.2663  0.0413
   14MOL   C371 8977   1.437   5.589   1.467  0.3805 -0.1677  0.3001
   14MOL   C372 8978   1.453   5.443   1.499  0.1301 -0.8752  0.3638
   14MOL   C373 8979   1.410   5.348   1.393 -0.2089  0.4369 -0.0822
   14MOL   C374 8980   1.487   5.210   1.408  0.9876 -0.1064  0.2831
   14MOL   C375 8981   1.406   5.094   1.349 -0.1981 -0.0914 -0.0593
   14MOL   H376 8982   1.809   5.946   1.858  1.0451 -1.3050  1.6490
   14MOL   H377 8983   1.722   5.953   2.011 -1.9264 -0.0605 -0.8224
   14MOL   H378 8984   1.630   6.135   1.793 -1.5035  1.0292  1.3366
   14MOL   H379 8985   1.459   5.988   1.755  0.4969  0.0982 -1.0547
   14MOL   H380 8986   1.529   5.858   1.856  1.9254  0.8852  1.1668
   14MOL   H381 8987   1.699   5.823   1.707 -0.5683 -0.2847  0.3666
   14MOL   H382 8988   1.678   5.978   1.627  0.1073 -0.0225  0.4002
   14MOL   H383 8989   1.597   5.811   1.470  1.5645  1.4465 -0.1310
   14MOL   H384 8990   1.453   5.877   1.532  0.8842  1.8257  1.1031
   14MOL   H385 8991   1.423   5.659   1.673  0.2520 -0.0015  0.3484
   14MOL   H386 8992   1.579   5.626   1.620 -0.7824 -1.6840 -0.0669
   14MOL   H387 8993   1.330   5.603   1.450  0.2880  1.3223  1.9322
   14MOL   H388 8994   1.496   5.601   1.376 -2.1104  0.6925 -1.2784
   14MOL   H389 8995   1.398   5.423   1.591  1.0978 -0.2137  1.0908
   14MOL   H390 8996   1.554   5.417   1.527  0.6540  0.7443  0.0605
   14MOL   H391 8997   1.303   5.329   1.406 -0.0773 -0.1324  0.1929
   14MOL   H392 8998   1.424   5.393   1.295 -1.0987  0.3639 -0.2495
   14MOL   H393 8999   1.586   5.214   1.361  1.1540 -2.3677  0.4034
   14MOL   H394 9000   1.506   5.181   1.511  1.0853 -1.4487 -0.1063
   14MOL   H395 9001   1.391   5.109   1.242  0.5228  2.6758  0.1685
   14MOL   H396 9002   1.307   5.077   1.392 -0.3666 -0.1141 -0.4527
   14MOL   H397 9003   1.458   5.000   1.362 -1.8109 -0.8598  1.0114
   14MOL   C398 9004   1.533   6.106   1.993  0.0336  0.7599 -0.2067
   14MOL   C399 9005   1.423   6.201   1.949  0.0165  0.2112 -0.6360
   14MOL   C400 9006   1.489   6.339   1.915 -0.2452  0.0128 -0.4639
   14MOL   C401 9007   1.396   6.432   1.837  0.2519  0.8000 -0.3464
   14MOL   C402 9008   1.472   6.546   1.765 -0.5930 -0.4657 -0.4543
   14MOL   C403 9009   1.516   6.656   1.864  0.1144 -0.6490  0.2284
   14MOL   C404 9010   1.595   6.778   1.811  0.5242  0.1454 -0.1747
   14MOL   C405 9011   1.726   6.739   1.743 -0.0034  0.0015  0.7282
   14MOL   C406 9012   1.786   6.863   1.685 -0.5076  0.2792  0.4990
   14MOL   C407 9013   1.917   6.832   1.601 -0.5688 -0.4550  0.6858
   14MOL   C408 9014   2.039   6.912   1.654  0.5607  0.4475  0.7373
   14MOL   H409 9015   1.595   6.158   2.066  1.6205 -0.1631 -0.8818
   14MOL   H410 9016   1.477   6.022   2.033  1.0484 -0.1323 -0.6449
   14MOL   H411 9017   1.375   6.162   1.859  0.0129 -0.0511 -0.5220
   14MOL   H412 9018   1.577   6.321   1.854 -1.3217  1.8060 -2.6234
   14MOL   H413 9019   1.518   6.387   2.009  1.0276  2.7428 -2.2049
   14MOL   H414 9020   1.343   6.377   1.759  3.1168 -0.7892 -1.2445
   14MOL   H415 9021   1.319   6.477   1.899  0.9585  0.4729  0.7767
   14MOL   H416 9022   1.562   6.518   1.710  0.3717  0.7810  0.4743
   14MOL   H417 9023   1.401   6.596   1.699 -3.2395  0.6134  3.0843
   14MOL   H418 9024   1.571   6.601   1.941  0.7466  2.1046  1.8364
   14MOL   H419 9025   1.432   6.689   1.924  1.4230  1.6511  0.8614
   14MOL   H420 9026   1.529   6.827   1.739  0.5851 -0.5248 -0.6886
   14MOL   H421 9027   1.618   6.849   1.890 -0.8828  1.1832 -0.6732
   14MOL   H422 9028   1.715   6.661   1.667 -1.0689 -1.1522  2.0486
   14MOL   H423 9029   1.792   6.699   1.821  1.7266 -1.3837 -1.3929
   14MOL   H424 9030   1.709   6.896   1.616 -1.3990  0.0954  1.3948
   14MOL   H425 9031   1.792   6.950   1.751 -0.4686  1.5329 -1.1246
   14MOL   H426 9032   1.896   6.849   1.495  1.5074 -0.5550  0.2427
   14MOL   H427 9033   1.930   6.725   1.611 -1.9457 -0.8626 -1.4540
   14MOL   H428 9034   2.009   7.008   1.694  1.4816  0.9457  0.2472
   14MOL   H429 9035   2.114   6.923   1.576 -0.2461 -0.4348 -0.1862
   14MOL   H430 9036   2.099   6.851   1.722  1.6156  1.0601  0.3679
   14MOL   C431 9037   1.304   6.216   2.056  0.8538  0.6797 -0.7931
   14MOL   C432 9038   1.252   6.097   2.130 -0.2540 -0.3351  0.5444
   14MOL   C433 9039   1.193   5.993   2.024 -0.2567  0.9160  0.2273
   14MOL   C434 9040   1.219   5.849   2.062 -0.0339  0.2785 -0.6224
   14MOL   C435 9041   1.234   5.748   1.952 -0.2144  0.1543  0.7903
   14MOL   C436 9042   1.099   5.701   1.897 -1.1250 -0.1465 -0.1534
   14MOL   C437 9043   1.120   5.572   1.812  0.9669  0.2313 -0.8544
   14MOL   C438 9044   1.138   5.450   1.901 -0.1013 -0.6606 -0.0430
   14MOL   C439 9045   1.200   5.326   1.828  0.1962 -0.7581 -0.4487
   14MOL   C440 9046   1.119   5.281   1.702  0.0607  0.7619 -0.4770
   14MOL   C441 9047   1.162   5.135   1.674 -0.8320 -0.9157 -0.5686
   14MOL   H442 9048   1.231   6.274   1.999  2.6154  1.4371 -2.3088
   14MOL   H443 9049   1.352   6.280   2.130  2.0718 -0.0947 -0.8977
   14MOL   H444 9050   1.334   6.047   2.180  1.4535  1.3721 -0.4967
   14MOL   H445 9051   1.086   6.012   2.010 -0.5685  1.0277  2.5898
   14MOL   H446 9052   1.228   6.013   1.923  1.5006  0.2038  0.6688
   14MOL   H447 9053   1.146   5.817   2.137 -0.9133  4.5598  0.4602
   14MOL   H448 9054   1.317   5.856   2.111 -1.1163  1.9599  1.3676
   14MOL   H449 9055   1.303   5.667   1.974  0.3069 -0.3784 -2.4603
   14MOL   H450 9056   1.263   5.797   1.859 -2.7146  0.6998  0.2365
   14MOL   H451 9057   1.057   5.780   1.835  1.8034  1.2932 -0.4235
   14MOL   H452 9058   1.028   5.682   1.977  0.1492  1.2462  1.3339
   14MOL   H453 9059   1.201   5.570   1.739 -0.9290 -3.1925 -3.0292
   14MOL   H454 9060   1.029   5.548   1.758  2.0804 -1.2105 -2.1319
   14MOL   H455 9061   1.219   5.476   1.969 -0.4773  0.8657 -0.1477
   14MOL   H456 9062   1.058   5.418   1.968  0.3989  0.2947  1.0240
   14MOL   H457 9063   1.193   5.248   1.905 -2.5644  1.4433  1.6324
   14MOL   H458 9064   1.301   5.349   1.794  0.4107 -1.7367 -0.4962
   14MOL   H459 9065   1.115   5.358   1.625 -2.7841  2.3894  1.2231
   14MOL   H460 9066   1.013   5.285   1.724 -0.1663  1.0345 -1.6003
   14MOL   H461 9067   1.185   5.082   1.767 -2.8149 -1.6184 -0.4502
   14MOL   H462 9068   1.086   5.074   1.626 -0.7075 -0.4164 -1.4014
   14MOL   H463 9069   1.240   5.134   1.599  1.9439 -1.0405  2.2189
   14MOL   C464 9070   1.149   6.131   2.237 -0.0525  0.0819  0.3494
   14MOL   C465 9071   1.204   6.192   2.370  0.3766  0.4950 -0.1579
   14MOL   C466 9072   1.134   6.326   2.392  0.4062  0.4102  0.0027
   14MOL   C467 9073   1.171   6.444   2.291 -0.5331 -0.2551  0.6786
   14MOL   C468 9074   1.131   6.588   2.353 -0.1311  0.0982  0.4468
   14MOL   C469 9075   1.218   6.686   2.278  0.1756 -0.0609  0.2906
   14MOL   C470 9076   1.187   6.832   2.317 -0.1769 -0.5845 -1.0472
   14MOL   C471 9077   1.277   6.941   2.246 -0.1487  0.0143 -0.3576
   14MOL   C472 9078   1.287   7.077   2.319 -0.5583  0.2917  0.0447
   14MOL   C473 9079   1.154   7.163   2.328 -0.1306 -0.2489 -0.5203
   14MOL   C474 9080   1.134   7.236   2.201  0.6178 -0.2151 -0.0134
   14MOL   H475 9081   1.109   6.032   2.263 -1.1840  0.5329  0.3451
   14MOL   H476 9082   1.061   6.184   2.200 -0.1371 -1.7535 -2.2807
   14MOL   H477 9083   1.309   6.202   2.342  0.4162 -0.0112 -0.1950
   14MOL   H478 9084   1.147   6.368   2.492  1.6837 -0.0560  0.0318
   14MOL   H479 9085   1.026   6.312   2.386  0.6387 -0.9763 -1.0913
   14MOL   H480 9086   1.278   6.428   2.287 -0.5669 -0.7817  1.6754
   14MOL   H481 9087   1.130   6.435   2.190  0.2897 -0.6816  0.3824
   14MOL   H482 9088   1.152   6.594   2.460  0.4820  0.3343  0.3157
   14MOL   H483 9089   1.025   6.601   2.334  0.1148 -1.1183 -1.9220
   14MOL   H484 9090   1.324   6.677   2.304  0.2639  0.9017  0.2805
   14MOL   H485 9091   1.205   6.674   2.170  2.0212  0.6832 -0.0342
   14MOL   H486 9092   1.085   6.858   2.288 -0.7235 -0.5767  0.7994
   14MOL   H487 9093   1.188   6.849   2.425  0.8081 -1.6292 -0.8783
   14MOL   H488 9094   1.376   6.897   2.228  0.7320  1.6739  0.2653
   14MOL   H489 9095   1.255   6.958   2.141 -3.9980  1.2923  0.5845
   14MOL   H490 9096   1.322   7.054   2.420 -0.9026 -1.7839 -0.2866
   14MOL   H491 9097   1.364   7.129   2.263  0.2485  1.4933  2.2255
   14MOL   H492 9098   1.072   7.095   2.351 -1.0464  1.4046  1.1837
   14MOL   H493 9099   1.149   7.227   2.416 -2.0134 -1.1100  0.0155
   14MOL   H494 9100   1.029   7.263   2.188  0.3032 -1.6337 -0.5616
   14MOL   H495 9101   1.144   7.170   2.114  1.3476  1.6200 -1.3434
   14MOL   H496 9102   1.199   7.321   2.183  0.1369  0.1350 -0.1290
   14MOL   C497 9103   1.189   6.107   2.500 -0.6452  0.1945  0.7673
   14MOL   C498 9104   1.277   5.979   2.514  0.2441 -0.1300  0.3488
   14MOL   C499 9105   1.221   5.881   2.618 -0.1026  0.0757  0.8482
   14MOL   C500 9106   1.268   5.739   2.600 -0.2097  0.2012  0.0943
   14MOL   C501 9107   1.177   5.649   2.685  0.4729  0.1032  0.5912
   14MOL   C502 9108   1.228   5.508   2.695 -0.5766 -0.0144  0.4361
   14MOL   C503 9109   1.148   5.418   2.783  0.2756  0.3452  0.5402
   14MOL   C504 9110   1.219   5.287   2.828 -0.4918  0.3494  0.2715
   14MOL   C505 9111   1.122   5.194   2.904  0.3434 -0.0375 -0.1765
   14MOL   C506 9112   1.066   5.267   3.029  1.0241  0.2633 -0.1612
   14MOL   C507 9113   0.984   5.185   3.132 -0.1842  0.3557  0.1696
   14MOL   H508 9114   1.209   6.174   2.583  1.9250 -0.1950  0.4927
   14MOL   H509 9115   1.082   6.083   2.498 -0.6511  0.1520  1.6019
   14MOL   H510 9116   1.277   5.917   2.424 -0.0908 -0.9538  0.9077
   14MOL   H511 9117   1.112   5.887   2.614 -0.0503  0.7970  0.5158
   14MOL   H512 9118   1.249   5.905   2.720  1.6318 -1.6707  0.8124
   14MOL   H513 9119   1.370   5.721   2.635  1.1768  2.2988 -2.6594
   14MOL   H514 9120   1.270   5.699   2.499 -1.0496  1.5179 -0.4413
   14MOL   H515 9121   1.164   5.696   2.782 -1.4093 -1.7613  1.2823
   14MOL   H516 9122   1.078   5.640   2.642  0.4098  0.7714  0.5990
   14MOL   H517 9123   1.236   5.478   2.590 -0.7761  0.1330  0.3776
   14MOL   H518 9124   1.334   5.519   2.719 -1.1565 -0.5437  3.3413
   14MOL   H519 9125   1.140   5.478   2.874 -0.1883  2.6750 -0.9967
   14MOL   H520 9126   1.054   5.381   2.742  0.1838  2.0069 -0.7977
   14MOL   H521 9127   1.306   5.321   2.884  0.3787 -0.5412 -0.5341
   14MOL   H522 9128   1.247   5.242   2.732  0.6947  1.3159  0.1433
   14MOL   H523 9129   1.168   5.100   2.933  2.9511  0.3057 -2.9618
   14MOL   H524 9130   1.042   5.156   2.840  2.1024  0.8112 -2.9562
   14MOL   H525 9131   1.009   5.353   2.995  1.8375  0.1695 -1.8446
   14MOL   H526 9132   1.161   5.300   3.072  2.3173 -1.6718 -1.4246
   14MOL   H527 9133   1.033   5.094   3.166  1.1850  1.2473  0.5980
   14MOL   H528 9134   0.888   5.146   3.096  0.7687 -0.2863 -1.7661
   14MOL   H529 9135   0.954   5.241   3.220 -0.2550 -0.3308  0.5891
   14MOL   C530 9136   1.429   6.015   2.558  0.4267  0.8115  1.1174
   14MOL   C531 9137   1.540   6.012   2.445 -0.0776  1.1344 -0.6949
   14MOL   C532 9138   1.580   5.865   2.420  0.1814 -0.3296 -0.3311
   14MOL   C533 9139   1.643   5.828   2.290 -0.0140 -0.1181  0.3582
   14MOL   C534 9140   1.605   5.686   2.237 -0.2264  0.0417  0.1941
   14MOL   C535 9141   1.676   5.666   2.097 -0.1189 -0.0454 -0.1407
   14MOL   C536 9142   1.649   5.537   2.022 -0.2847  0.6153 -0.4266
   14MOL   C537 9143   1.742   5.532   1.897  0.6275  0.3061  0.4586
   14MOL   C538 9144   1.744   5.393   1.836  0.4894 -0.3657  0.4018
   14MOL   C539 9145   1.814   5.378   1.704 -0.6098 -0.0297 -0.2916
   14MOL   C540 9146   1.816   5.233   1.654  0.1746 -0.1304 -0.7215
   14MOL   H541 9147   1.431   6.117   2.596 -1.0395  1.5359 -0.6308
   14MOL   H542 9148   1.458   5.946   2.637  1.3629  1.9384  1.7616
   14MOL   H543 9149   1.493   6.049   2.354  0.6858 -2.5583 -2.7212
   14MOL   H544 9150   1.480   5.822   2.429 -0.5295  1.5360  0.9174
   14MOL   H545 9151   1.630   5.819   2.505  0.1946  0.3709  0.0411
   14MOL   H546 9152   1.750   5.848   2.295  0.2106 -0.0011 -3.1891
   14MOL   H547 9153   1.617   5.900   2.212  0.6273  0.3163  0.5431
   14MOL   H548 9154   1.497   5.691   2.228 -0.1022 -0.0369 -1.4379
   14MOL   H549 9155   1.637   5.612   2.311  2.3130  1.4501  0.5621
   14MOL   H550 9156   1.780   5.680   2.126 -0.3851 -3.7111  3.1280
   14MOL   H551 9157   1.648   5.746   2.029 -0.9373 -1.1438 -1.1228
   14MOL   H552 9158   1.542   5.517   2.014  0.2357 -2.3759 -0.5787
   14MOL   H553 9159   1.687   5.464   2.093  0.1957 -0.4112 -1.7152
   14MOL   H554 9160   1.839   5.553   1.940  0.2633 -1.6446  2.3148
   14MOL   H555 9161   1.704   5.609   1.829 -2.0102 -1.9458 -0.7474
   14MOL   H556 9162   1.642   5.360   1.817  0.3367  1.6193 -2.5208
   14MOL   H557 9163   1.779   5.327   1.915 -0.1500 -0.0901  0.9283
   14MOL   H558 9164   1.916   5.414   1.721 -0.3595 -0.9602  0.2176
   14MOL   H559 9165   1.766   5.445   1.633  0.5578  0.1470 -0.9338
   14MOL   H560 9166   1.890   5.176   1.710  0.0690 -0.2384 -0.6924
   14MOL   H561 9167   1.719   5.185   1.666 -0.3520  1.3722  1.3212
   14MOL   H562 9168   1.854   5.221   1.552  2.2759 -2.5515  0.2998
   14MOL   C563 9169   1.663   6.101   2.476  0.0825 -0.4010  0.1244
   14MOL   C564 9170   1.639   6.258   2.467 -0.8288  0.0373 -0.3460
   14MOL   C565 9171   1.629   6.311   2.326 -0.0861 -0.7911 -0.6928
   14MOL   C566 9172   1.587   6.454   2.309 -0.3982  0.0599 -1.0166
   14MOL   C567 9173   1.691   6.557   2.249 -0.0365  0.3055 -0.6422
   14MOL   C568 9174   1.628   6.693   2.226  0.6652 -0.1812  0.0679
   14MOL   C569 9175   1.724   6.810   2.187  0.3395  0.0039  0.2506
   14MOL   C570 9176   1.663   6.947   2.212  0.1426 -0.4669  0.4379
   14MOL   C571 9177   1.763   7.064   2.203  0.3369 -0.1524 -1.1082
   14MOL   C572 9178   1.698   7.191   2.237 -0.6439 -0.1348 -0.2770
   14MOL   C573 9179   1.794   7.300   2.276 -0.2726 -0.9469  0.8058
   14MOL   H574 9180   1.739   6.074   2.404 -2.4887 -0.9693 -2.4928
   14MOL   H575 9181   1.699   6.076   2.576  0.4201 -1.2331 -0.1960
   14MOL   H576 9182   1.539   6.285   2.500 -0.6693 -0.4187  0.5099
   14MOL   H577 9183   1.553   6.249   2.278  0.0254 -0.2209 -1.6152
   14MOL   H578 9184   1.715   6.280   2.268  1.5289 -1.3222  1.9013
   14MOL   H579 9185   1.570   6.491   2.410  0.5457 -1.7364 -0.1870
   14MOL   H580 9186   1.491   6.453   2.257 -1.2283  1.0574  0.4542
   14MOL   H581 9187   1.721   6.511   2.155  0.3106 -1.5626  0.3558
   14MOL   H582 9188   1.777   6.572   2.315 -0.3788  0.0357 -0.1305
   14MOL   H583 9189   1.554   6.682   2.146 -0.5937  0.5390  1.1187
   14MOL   H584 9190   1.591   6.722   2.324  0.4696  0.1028 -0.0861
   14MOL   H585 9191   1.822   6.804   2.233 -0.7773 -0.8887  2.5873
   14MOL   H586 9192   1.745   6.805   2.080 -0.9006 -0.4058  0.0163
   14MOL   H587 9193   1.620   6.953   2.311 -1.8040  2.8258 -0.5307
   14MOL   H588 9194   1.583   6.982   2.147 -0.4199 -0.0919  1.3281
   14MOL   H589 9195   1.822   7.069   2.111 -0.3648  1.7101 -1.4674
   14MOL   H590 9196   1.832   7.038   2.284  0.1322  0.3610 -0.7686
   14MOL   H591 9197   1.638   7.179   2.327 -0.4316  0.7437 -0.0105
   14MOL   H592 9198   1.629   7.221   2.159  0.7706  1.2918 -1.0264
   14MOL   H593 9199   1.749   7.398   2.289  0.1340 -1.0312  2.9634
   14MOL   H594 9200   1.850   7.280   2.367 -1.8620  0.2666  2.0710
   14MOL   H595 9201   1.868   7.289   2.196 -0.5628 -2.3684  0.7123
   14MOL   C596 9202   1.747   6.330   2.549 -0.5685 -0.8811 -0.6183
   14MOL   C597 9203   1.718   6.361   2.698  0.6493 -0.6775  0.3821
   14MOL   C598 9204   1.605   6.458   2.717  0.0841 -0.3211  0.1192
   14MOL   C599 9205   1.573   6.515   2.859 -0.8497  0.4399 -0.0041
   14MOL   C600 9206   1.498   6.410   2.944  0.4431 -0.2335  0.2228
   14MOL   C601 9207   1.468   6.439   3.094 -0.0526 -0.3662 -0.6532
   14MOL   C602 9208   1.598   6.448   3.177 -0.5842 -0.2394  0.2403
   14MOL   C603 9209   1.569   6.479   3.327 -0.2109  0.2699  1.0010
   14MOL   C604 9210   1.694   6.470   3.416 -0.1868  0.3980 -0.3049
   14MOL   C605 9211   1.652   6.453   3.565  0.1707 -0.0581  0.5323
   14MOL   C606 9212   1.757   6.389   3.648 -0.4182 -0.2792  0.8486
   14MOL   H607 9213   1.840   6.274   2.546 -0.4371 -0.5961 -1.8097
   14MOL   H608 9214   1.774   6.424   2.502  1.5038 -0.4991  1.2344
   14MOL   H609 9215   1.690   6.269   2.750  0.3957 -0.0617  1.3535
   14MOL   H610 9216   1.516   6.410   2.676 -0.2476 -0.5223  1.0805
   14MOL   H611 9217   1.620   6.543   2.651  0.0147 -0.9588 -0.7325
   14MOL   H612 9218   1.519   6.609   2.843 -1.7770 -0.0563  0.1796
   14MOL   H613 9219   1.666   6.529   2.914 -0.3021  0.8379 -1.0173
   14MOL   H614 9220   1.548   6.313   2.935 -0.4634 -0.5174 -2.1711
   14MOL   H615 9221   1.405   6.403   2.889  0.7929  1.7257 -0.6663
   14MOL   H616 9222   1.413   6.532   3.110  0.4241 -0.0154 -1.0248
   14MOL   H617 9223   1.406   6.359   3.134  1.0094 -1.2613 -0.7716
   14MOL   H618 9224   1.661   6.531   3.143 -1.0829 -0.2563 -0.7498
   14MOL   H619 9225   1.650   6.352   3.172  1.5745  0.9472 -0.9801
   14MOL   H620 9226   1.486   6.417   3.363 -0.6126  0.9912  1.3198
   14MOL   H621 9227   1.534   6.582   3.331  1.9667  1.0261  1.0013
   14MOL   H622 9228   1.734   6.372   3.389 -1.7029 -0.6461  1.1802
   14MOL   H623 9229   1.770   6.543   3.388  0.3876 -0.5143 -1.1519
   14MOL   H624 9230   1.564   6.388   3.575  1.9602 -2.4769  1.0733
   14MOL   H625 9231   1.624   6.551   3.602 -1.5629 -0.4989  0.4505
   14MOL   H626 9232   1.859   6.418   3.626 -0.7268  0.6445  0.6103
   14MOL   H627 9233   1.743   6.430   3.748 -1.1802 -0.1695  0.6984
   14MOL   H628 9234   1.748   6.284   3.676  1.5255 -0.4273  0.9513
   14MOL   C629 9235   1.851   6.410   2.773 -0.3341  0.0544 -0.3514
   14MOL   C630 9236   1.877   6.330   2.903  0.1619  0.5173  0.0531
   14MOL   C631 9237   1.980   6.394   2.992 -0.0580 -0.5924 -0.2356
   14MOL   C632 9238   1.980   6.347   3.140 -0.3516 -0.3907  0.6988
   14MOL   C633 9239   2.108   6.369   3.218  0.1212 -0.1044  0.3863
   14MOL   C634 9240   2.087   6.367   3.370 -0.3883  0.0242 -0.8683
   14MOL   C635 9241   2.217   6.386   3.448 -0.3300 -0.0895 -0.4087
   14MOL   C636 9242   2.208   6.368   3.599  0.1360 -0.1315  0.1702
   14MOL   C637 9243   2.182   6.225   3.655  0.3149  0.0772 -0.1154
   14MOL   C638 9244   2.185   6.208   3.806 -0.2457 -0.0224  0.7095
   14MOL   C639 9245   2.096   6.310   3.887  0.0299 -0.0988 -0.0132
   14MOL   H640 9246   1.938   6.406   2.708  0.5546  3.2386  0.5482
   14MOL   H641 9247   1.846   6.518   2.791 -3.7168 -0.4608  2.2805
   14MOL   H642 9248   1.783   6.320   2.957  0.3660 -0.5271  0.2239
   14MOL   H643 9249   2.082   6.390   2.954  0.5346  1.6262  0.9981
   14MOL   H644 9250   1.965   6.502   2.996  1.8378 -0.3769  3.3635
   14MOL   H645 9251   1.960   6.241   3.144 -0.8164 -0.3101  0.5071
   14MOL   H646 9252   1.897   6.401   3.185 -0.7300  1.7240 -2.3934
   14MOL   H647 9253   2.157   6.460   3.184 -3.1124  1.2234 -0.8913
   14MOL   H648 9254   2.183   6.297   3.183  1.1827  0.7358  0.9240
   14MOL   H649 9255   2.038   6.275   3.400 -2.2502  1.1895 -0.2834
   14MOL   H650 9256   2.015   6.443   3.399 -0.0989 -0.1262  0.2883
   14MOL   H651 9257   2.261   6.485   3.433  1.7705 -1.2177 -1.8036
   14MOL   H652 9258   2.293   6.315   3.416 -0.7090 -0.0620 -1.3723
   14MOL   H653 9259   2.122   6.423   3.640  0.0412  1.0251 -1.5033
   14MOL   H654 9260   2.299   6.413   3.638 -0.7151  1.0486  0.8428
   14MOL   H655 9261   2.256   6.160   3.609  1.5394  1.3977 -0.0411
   14MOL   H656 9262   2.081   6.196   3.625 -0.5154  1.3867  1.3384
   14MOL   H657 9263   2.288   6.219   3.843  0.1615 -1.8426  0.1802
   14MOL   H658 9264   2.158   6.104   3.824 -0.3797  0.2294  2.0232
   14MOL   H659 9265   2.126   6.414   3.878 -1.5341  0.4401  0.7842
   14MOL   H660 9266   2.071   6.285   3.990  0.3764  0.3473  0.1815
   14MOL   H661 9267   2.000   6.313   3.836  0.1831 -0.1927 -0.3042
   14MOL   H662 9268   1.889   6.229   2.865 -1.2330  0.3090  0.1510
   15MOL     C1 9269   3.599   5.175   3.033 -0.6362 -0.3468  0.7477
   15MOL     C2 9270   3.470   5.095   3.030 -1.3125 -0.6155  0.1540
   15MOL     C3 9271   3.405   5.100   2.892 -0.0091 -0.8761  0.0998
   15MOL     C4 9272   3.470   5.022   2.777 -0.0460 -0.0877 -0.0606
   15MOL     C5 9273   3.403   5.053   2.639 -0.7477 -0.0369 -0.0507
   15MOL     C6 9274   3.251   5.008   2.635  0.0229 -0.8293  0.4154
   15MOL     C7 9275   3.177   5.060   2.514  0.4437  0.5395 -0.0069
   15MOL     C8 9276   3.023   5.052   2.532  0.3096 -0.0687  0.6767
   15MOL     C9 9277   2.966   5.125   2.401 -0.3797  0.5888  0.2442
   15MOL    C10 9278   2.813   5.131   2.399  0.4281 -0.1917  0.0413
   15MOL    C11 9279   2.750   5.203   2.523  0.1510 -0.0462  0.0292
   15MOL    H12 9280   3.584   5.277   2.998 -1.1622 -0.1749  1.4747
   15MOL    H13 9281   3.675   5.137   2.964 -1.2386 -0.2898  0.0464
   15MOL    H14 9282   3.402   5.129   3.107 -1.3096 -2.4075  0.9842
   15MOL    H15 9283   3.385   5.201   2.859  0.1335 -0.4731  1.2306
   15MOL    H16 9284   3.308   5.052   2.903 -0.5674 -0.3303 -2.0825
   15MOL    H17 9285   3.477   4.914   2.789 -0.2505 -0.2032 -0.9717
   15MOL    H18 9286   3.566   5.074   2.770 -1.1087  2.0825  1.0398
   15MOL    H19 9287   3.405   5.161   2.626  4.4239 -0.3019 -2.6841
   15MOL    H20 9288   3.464   5.010   2.559  2.7804  1.0195  1.9541
   15MOL    H21 9289   3.192   5.041   2.720 -1.7051 -1.9272 -0.3404
   15MOL    H22 9290   3.248   4.899   2.630 -3.4945 -0.8260  1.1501
   15MOL    H23 9291   3.211   5.163   2.503 -0.8305  0.7469 -2.1744
   15MOL    H24 9292   3.212   5.007   2.425 -1.5436 -0.9629  0.0828
   15MOL    H25 9293   2.990   5.103   2.623  0.2203  1.2770 -0.0986
   15MOL    H26 9294   2.995   4.950   2.557  0.3365 -0.0746  0.6805
   15MOL    H27 9295   2.998   5.064   2.316  0.2632  1.0780  0.1377
   15MOL    H28 9296   3.003   5.227   2.392  0.2969  0.3580  0.3914
   15MOL    H29 9297   2.782   5.027   2.409 -0.2589 -0.1216 -1.3505
   15MOL    H30 9298   2.772   5.172   2.307 -1.3978 -0.3142  0.7700
   15MOL    H31 9299   2.766   5.152   2.618 -1.1482 -1.2752 -0.3826
   15MOL    H32 9300   2.767   5.310   2.532 -2.6171  0.5613 -1.3952
   15MOL    H33 9301   2.642   5.184   2.519  0.0752  0.1447  0.9477
   15MOL    H34 9302   3.635   5.178   3.136  0.0556  0.7459  0.4852
   15MOL    C35 9303   3.507   4.949   3.072  0.1332 -0.2044  0.1067
   15MOL    C36 9304   3.395   4.848   3.083 -0.0259 -0.0035 -0.5215
   15MOL    C37 9305   3.441   4.698   3.104 -0.3294  0.3220  0.6062
   15MOL    C38 9306   3.537   4.651   2.993  0.1007  0.1549  0.0564
   15MOL    C39 9307   3.565   4.497   2.977  0.3265 -0.5225  0.6769
   15MOL    C40 9308   3.592   4.423   3.104 -0.2314  0.4924 -0.0499
   15MOL    C41 9309   3.611   4.269   3.089  0.0297  0.7970  0.3033
   15MOL    C42 9310   3.645   4.214   3.223  0.1265 -0.0001 -0.2755
   15MOL    C43 9311   3.710   4.079   3.218  0.6421 -0.0336  0.9525
   15MOL    C44 9312   3.737   4.023   3.355 -0.0096  0.0397 -0.5545
   15MOL    C45 9313   3.838   3.912   3.355 -0.5260  0.6960  0.1601
   15MOL    H46 9314   3.551   4.964   3.171  1.2957  2.2762 -0.7385
   15MOL    H47 9315   3.593   4.917   3.014  0.7083  3.8864 -1.5094
   15MOL    H48 9316   3.347   4.847   2.985 -1.4602 -0.6937  0.1659
   15MOL    H49 9317   3.490   4.685   3.201 -1.1900 -2.7305  0.6981
   15MOL    H50 9318   3.351   4.638   3.095 -0.2525  0.4085 -0.8061
   15MOL    H51 9319   3.634   4.693   3.019 -0.4702  0.9282  0.9159
   15MOL    H52 9320   3.499   4.699   2.903 -1.0115 -0.2228  0.3240
   15MOL    H53 9321   3.644   4.477   2.904 -0.4340  0.5593 -0.4581
   15MOL    H54 9322   3.471   4.457   2.938  0.0627  1.7594 -1.0982
   15MOL    H55 9323   3.514   4.432   3.179  2.0171  1.0182  2.3195
   15MOL    H56 9324   3.682   4.466   3.150  0.6205 -2.8085  1.5711
   15MOL    H57 9325   3.513   4.232   3.059  0.6964 -0.6287 -0.1541
   15MOL    H58 9326   3.689   4.247   3.016 -0.0454 -0.7648  0.6730
   15MOL    H59 9327   3.564   4.212   3.295 -0.6220  1.0764 -1.0765
   15MOL    H60 9328   3.709   4.282   3.280 -2.0206 -1.0735  3.5905
   15MOL    H61 9329   3.809   4.087   3.172 -0.3447 -2.1791 -1.6701
   15MOL    H62 9330   3.650   4.026   3.144  0.0556  1.8805  0.0231
   15MOL    H63 9331   3.784   4.096   3.421  0.0336  0.2544 -0.8213
   15MOL    H64 9332   3.640   3.991   3.395  0.6213 -1.1617  0.0564
   15MOL    H65 9333   3.830   3.842   3.438 -0.7299  1.7557  1.0462
   15MOL    H66 9334   3.831   3.853   3.263  1.2790 -1.5492  1.3904
   15MOL    H67 9335   3.939   3.949   3.367 -1.0779  2.9723 -1.8447
   15MOL    C68 9336   3.293   4.885   3.196 -0.7450  0.0640  0.1470
   15MOL    C69 9337   3.151   4.820   3.175  0.4909 -0.0594 -0.5314
   15MOL    C70 9338   3.066   4.845   3.308  0.3428 -0.1138  0.4963
   15MOL    C71 9339   3.107   4.764   3.431  0.5663  0.1340 -0.0391
   15MOL    C72 9340   3.102   4.620   3.402  0.0069  0.0795  0.7930
   15MOL    C73 9341   3.100   4.544   3.532  0.6552 -1.2360  0.6947
   15MOL    C74 9342   3.118   4.393   3.518 -0.3437 -0.4151  0.3269
   15MOL    C75 9343   3.130   4.312   3.644  0.6542 -0.3489  0.6164
   15MOL    C76 9344   3.173   4.167   3.617  0.3548  0.1189  0.1934
   15MOL    C77 9345   3.156   4.072   3.730 -0.5173 -0.3509  0.4636
   15MOL    C78 9346   3.184   3.928   3.700 -0.0959  0.1124  0.9518
   15MOL    H79 9347   3.275   4.993   3.205  0.3136  0.2544 -0.0202
   15MOL    H80 9348   3.333   4.865   3.295  0.6632  0.0783 -0.4124
   15MOL    H81 9349   3.162   4.716   3.143  1.4005 -0.5863  1.4326
   15MOL    H82 9350   2.959   4.835   3.292  0.4771 -1.8815  0.6427
   15MOL    H83 9351   3.070   4.952   3.328 -1.6231  0.1218 -0.2936
   15MOL    H84 9352   3.201   4.799   3.473 -0.0717  0.5817  1.0289
   15MOL    H85 9353   3.028   4.790   3.500 -0.4582  0.1555 -1.2016
   15MOL    H86 9354   3.189   4.584   3.347 -0.0082 -0.2528  0.9893
   15MOL    H87 9355   3.008   4.596   3.353 -0.0889 -1.7440  1.8504
   15MOL    H88 9356   3.184   4.588   3.585  1.2558 -3.2364  1.4239
   15MOL    H89 9357   3.017   4.563   3.600  0.6739  0.5381  0.2652
   15MOL    H90 9358   3.212   4.374   3.465 -0.3047 -0.2547  0.3370
   15MOL    H91 9359   3.030   4.357   3.465 -0.7639  0.1043  0.6594
   15MOL    H92 9360   3.205   4.365   3.704 -0.6995  1.5777  0.6443
   15MOL    H93 9361   3.034   4.311   3.696 -0.6133  2.6072 -1.5630
   15MOL    H94 9362   3.118   4.134   3.529  0.5886 -0.7950  0.3886
   15MOL    H95 9363   3.280   4.169   3.598  0.0519  1.5479 -1.4547
   15MOL    H96 9364   3.213   4.104   3.818 -0.8959  0.1661  0.5181
   15MOL    H97 9365   3.051   4.074   3.760 -1.1446 -1.8835 -1.5572
   15MOL    H98 9366   3.288   3.899   3.690 -0.5746 -2.1110  2.1371
   15MOL    H99 9367   3.136   3.894   3.608 -0.6094  0.2924  1.1463
   15MOL   H100 9368   3.156   3.865   3.785  1.2191 -0.5382  0.9029
   15MOL   C101 9369   3.075   4.895   3.061 -0.3406 -0.4291  0.4375
   15MOL   C102 9370   2.968   4.809   2.975 -0.7418  0.3480  0.5393
   15MOL   C103 9371   3.029   4.686   2.905 -0.4290  0.3408  0.3130
   15MOL   C104 9372   3.141   4.711   2.794  0.3272 -0.5872 -0.5946
   15MOL   C105 9373   3.208   4.583   2.725  0.4327 -0.3166  0.2516
   15MOL   C106 9374   3.334   4.608   2.636 -0.4672 -0.2027 -0.4901
   15MOL   C107 9375   3.291   4.658   2.500 -0.2253 -0.0968 -0.2150
   15MOL   C108 9376   3.418   4.691   2.420  0.1826 -0.1297 -0.2771
   15MOL   C109 9377   3.389   4.736   2.280  0.3137 -0.7177 -0.2455
   15MOL   C110 9378   3.518   4.781   2.215  0.3169 -1.0429  0.1154
   15MOL   C111 9379   3.501   4.782   2.062 -0.5416 -0.1811  0.2094
   15MOL   H112 9380   3.017   4.975   3.108 -0.2254 -0.3564  0.4555
   15MOL   H113 9381   3.135   4.949   2.988  0.6978 -0.0747  1.5334
   15MOL   H114 9382   2.893   4.779   3.048  0.2991 -1.5940  0.8438
   15MOL   H115 9383   3.078   4.617   2.974  0.0365  0.5260  0.1675
   15MOL   H116 9384   2.944   4.628   2.868 -0.9498  0.6137  1.0753
   15MOL   H117 9385   3.105   4.779   2.716  1.0170 -0.5871 -0.9121
   15MOL   H118 9386   3.223   4.767   2.839  1.0666 -0.5493 -1.9960
   15MOL   H119 9387   3.244   4.514   2.802  0.6985 -1.3729 -0.8000
   15MOL   H120 9388   3.137   4.511   2.683  2.1530 -0.5231 -2.4835
   15MOL   H121 9389   3.403   4.667   2.698 -0.7308 -3.1251  2.7206
   15MOL   H122 9390   3.385   4.513   2.622 -0.6064 -0.1894 -1.1098
   15MOL   H123 9391   3.217   4.738   2.493  0.9293  0.9442 -0.6881
   15MOL   H124 9392   3.242   4.576   2.446  0.2643  0.7415 -1.9770
   15MOL   H125 9393   3.473   4.770   2.471  2.1122 -1.2162 -0.6274
   15MOL   H126 9394   3.489   4.609   2.415 -1.1795 -1.3844  0.3846
   15MOL   H127 9395   3.343   4.654   2.225 -0.9954 -1.7861  2.3574
   15MOL   H128 9396   3.316   4.817   2.283  1.7079  0.5513 -0.2867
   15MOL   H129 9397   3.608   4.722   2.231  0.5659 -0.5436  0.5878
   15MOL   H130 9398   3.531   4.881   2.256  1.3722 -1.1927  0.1506
   15MOL   H131 9399   3.450   4.690   2.031  0.1281 -0.3411 -0.4365
   15MOL   H132 9400   3.440   4.869   2.041 -0.9594 -1.0500 -2.3191
   15MOL   H133 9401   3.597   4.799   2.014 -2.1392 -0.3309 -3.1955
   15MOL   C134 9402   2.892   4.902   2.873  0.3532  0.5954  0.2279
   15MOL   C135 9403   2.750   4.854   2.854 -0.1513  0.0070  0.1652
   15MOL   C136 9404   2.716   4.838   2.707  0.1027  0.6042  0.2570
   15MOL   C137 9405   2.790   4.724   2.640  0.2029  0.0064  0.6651
   15MOL   C138 9406   2.704   4.677   2.513  0.3511 -0.4264  0.3702
   15MOL   C139 9407   2.775   4.579   2.423 -0.0478 -0.2914  0.2140
   15MOL   C140 9408   2.779   4.446   2.499  0.1653 -0.0437  0.7796
   15MOL   C141 9409   2.836   4.340   2.406  0.4566  0.2608  0.1574
   15MOL   C142 9410   2.890   4.215   2.477 -0.0301  0.5060 -0.0304
   15MOL   C143 9411   2.935   4.112   2.371 -0.4639  0.2635 -0.1402
   15MOL   C144 9412   2.964   3.965   2.419 -0.6525  0.2278  0.3637
   15MOL   H145 9413   2.892   5.002   2.914 -1.8013  1.4343 -1.6879
   15MOL   H146 9414   2.955   4.910   2.784  0.0993  1.5919  0.1359
   15MOL   H147 9415   2.721   4.762   2.905  1.7035 -1.1130 -0.7532
   15MOL   H148 9416   2.724   4.931   2.651  1.5211  0.3832  0.0770
   15MOL   H149 9417   2.609   4.823   2.698 -0.0284  2.1357 -0.8400
   15MOL   H150 9418   2.890   4.752   2.606 -0.4383  2.9645  1.1459
   15MOL   H151 9419   2.799   4.640   2.708 -1.7699 -0.7552  0.0273
   15MOL   H152 9420   2.612   4.634   2.554 -1.1143  0.9271 -1.4424
   15MOL   H153 9421   2.672   4.765   2.458 -3.3380 -0.8587  1.6990
   15MOL   H154 9422   2.717   4.578   2.330  0.2418  1.8071 -0.0285
   15MOL   H155 9423   2.867   4.624   2.384  0.0950 -0.2268  0.6307
   15MOL   H156 9424   2.844   4.458   2.586  1.3943  1.1011 -0.2677
   15MOL   H157 9425   2.676   4.424   2.526 -0.0283  1.8070  1.6502
   15MOL   H158 9426   2.762   4.312   2.331 -0.9967 -0.7549  1.9274
   15MOL   H159 9427   2.919   4.384   2.351  0.4910 -0.7024 -0.5751
   15MOL   H160 9428   2.980   4.238   2.534 -0.5619  0.5928  0.7956
   15MOL   H161 9429   2.821   4.167   2.546  0.6702  0.7214  0.8357
   15MOL   H162 9430   2.853   4.093   2.302 -0.9420 -1.4829  0.8706
   15MOL   H163 9431   3.014   4.158   2.313  2.5867 -2.8099  1.4102
   15MOL   H164 9432   3.046   3.971   2.491  0.5093 -1.0452 -0.8285
   15MOL   H165 9433   3.000   3.887   2.353  0.5419 -0.6339  1.9813
   15MOL   H166 9434   2.875   3.921   2.464 -1.6234 -0.3629 -2.1014
   15MOL   C167 9435   2.655   4.959   2.919 -0.0987  0.2229 -0.3661
   15MOL   C168 9436   2.501   4.920   2.925 -1.0970 -0.2490 -0.3943
   15MOL   C169 9437   2.413   5.041   2.877  0.4740 -0.1909 -0.0844
   15MOL   C170 9438   2.420   5.067   2.730  0.5213  0.1556 -0.1987
   15MOL   C171 9439   2.317   4.994   2.655 -0.4524 -0.1418 -0.2884
   15MOL   C172 9440   2.331   5.007   2.505 -0.0276 -0.2684 -0.2161
   15MOL   C173 9441   2.287   4.883   2.428 -0.1132 -0.6267  0.2919
   15MOL   C174 9442   2.275   4.916   2.278 -1.1171  0.2740 -0.3329
   15MOL   C175 9443   2.405   4.956   2.204  0.1925 -0.1846  0.2455
   15MOL   C176 9444   2.515   4.844   2.198  0.0368 -0.0415 -0.5969
   15MOL   C177 9445   2.471   4.697   2.160 -0.2958  0.6902 -0.3395
   15MOL   H178 9446   2.696   4.996   3.013  0.7039 -0.9887 -0.2269
   15MOL   H179 9447   2.652   5.046   2.853  0.9131  0.7980  0.3357
   15MOL   H180 9448   2.479   4.842   2.851  1.7355 -0.0665 -1.5046
   15MOL   H181 9449   2.449   5.128   2.931 -0.3143 -1.5200  2.6316
   15MOL   H182 9450   2.310   5.036   2.911  1.4672  2.7437  3.6761
   15MOL   H183 9451   2.404   5.174   2.712 -2.1766 -0.4855 -1.8889
   15MOL   H184 9452   2.520   5.046   2.692 -0.1240 -1.3721 -1.0695
   15MOL   H185 9453   2.215   5.030   2.670 -0.4311  0.7711 -2.2041
   15MOL   H186 9454   2.317   4.890   2.686 -1.1449 -0.5967 -1.7862
   15MOL   H187 9455   2.264   5.089   2.477 -0.1297 -0.5669 -0.8756
   15MOL   H188 9456   2.432   5.029   2.472 -0.9437  1.5713 -1.9406
   15MOL   H189 9457   2.190   4.847   2.463 -1.3608  2.5896  0.2960
   15MOL   H190 9458   2.363   4.805   2.435 -0.6480 -0.9285  3.2337
   15MOL   H191 9459   2.231   4.827   2.233 -1.4675  0.6138 -0.6631
   15MOL   H192 9460   2.201   4.995   2.264 -2.5042 -0.9095  0.3368
   15MOL   H193 9461   2.438   5.056   2.232  1.2106 -0.0872 -1.2720
   15MOL   H194 9462   2.378   4.970   2.099 -0.6545 -0.2669  0.4440
   15MOL   H195 9463   2.563   4.850   2.296  0.6903 -2.8895 -0.6906
   15MOL   H196 9464   2.592   4.881   2.130 -1.1974  0.8779 -1.5312
   15MOL   H197 9465   2.566   4.642   2.164 -0.6708  0.0625  0.0461
   15MOL   H198 9466   2.433   4.688   2.059  2.5960 -0.2871 -1.3869
   15MOL   H199 9467   2.408   4.647   2.234  0.3147 -1.2555 -1.0847
   15MOL   C200 9468   2.466   4.866   3.069  0.5298 -0.2829  0.1125
   15MOL   C201 9469   2.330   4.781   3.090 -0.9568 -0.2669 -0.2448
   15MOL   C202 9470   2.306   4.669   2.989  0.7277  0.5298 -0.4710
   15MOL   C203 9471   2.429   4.574   2.974  0.5964  0.1907 -0.7226
   15MOL   C204 9472   2.414   4.475   2.857 -0.0868 -0.4334  0.8457
   15MOL   C205 9473   2.522   4.368   2.868  0.3656  0.1731  0.5674
   15MOL   C206 9474   2.510   4.256   2.765 -0.1315  0.1275  1.1410
   15MOL   C207 9475   2.618   4.145   2.791  0.8481  0.1368  0.0320
   15MOL   C208 9476   2.593   4.056   2.917 -0.8611  0.0378  0.0749
   15MOL   C209 9477   2.725   3.975   2.945  0.3716 -0.0886 -0.0832
   15MOL   C210 9478   2.713   3.886   3.066 -0.4041 -0.6581 -0.1815
   15MOL   H211 9479   2.546   4.794   3.089  0.3245 -0.1266  1.4950
   15MOL   H212 9480   2.477   4.953   3.133 -0.4123 -0.0900  0.0143
   15MOL   H213 9481   2.356   4.745   3.190  2.6825  1.3011 -0.5186
   15MOL   H214 9482   2.284   4.698   2.886 -0.8667 -3.3564 -1.3449
   15MOL   H215 9483   2.220   4.611   3.022  0.6472 -0.0280 -1.6192
   15MOL   H216 9484   2.439   4.517   3.066 -0.2211  1.4618  0.1564
   15MOL   H217 9485   2.521   4.630   2.953  1.4872 -1.2008 -0.5790
   15MOL   H218 9486   2.428   4.531   2.764 -1.7873 -2.2743 -0.5710
   15MOL   H219 9487   2.318   4.425   2.846  0.0733 -0.2494 -1.8658
   15MOL   H220 9488   2.621   4.412   2.856  0.3402 -0.0979 -0.6854
   15MOL   H221 9489   2.529   4.330   2.970  0.3965 -1.7295 -0.1260
   15MOL   H222 9490   2.518   4.292   2.662  0.3514 -0.1501  1.0778
   15MOL   H223 9491   2.413   4.206   2.767  0.6878 -1.6211 -0.9300
   15MOL   H224 9492   2.719   4.186   2.787  1.0152 -0.1327  1.2847
   15MOL   H225 9493   2.633   4.081   2.703 -0.3601 -0.3077  0.1458
   15MOL   H226 9494   2.512   3.985   2.897 -1.2419  0.6778 -0.6575
   15MOL   H227 9495   2.552   4.108   3.004 -0.6941  0.2632  0.0190
   15MOL   H228 9496   2.746   3.922   2.852  0.3305 -1.7971  0.8840
   15MOL   H229 9497   2.811   4.041   2.957  2.4004 -2.8888  1.0465
   15MOL   H230 9498   2.614   3.839   3.072  0.2224 -2.1538 -1.1814
   15MOL   H231 9499   2.726   3.936   3.162 -0.9319  1.0682 -0.9846
   15MOL   H232 9500   2.789   3.809   3.062 -1.3870 -1.5497 -3.0142
   15MOL   C233 9501   2.199   4.864   3.104  0.4489 -0.0475 -0.1884
   15MOL   C234 9502   2.202   5.000   3.187 -0.2958  0.1091  0.7140
   15MOL   C235 9503   2.267   4.985   3.324 -0.7271 -0.3740 -0.0968
   15MOL   C236 9504   2.185   4.896   3.421  0.0441  0.3768  0.1247
   15MOL   C237 9505   2.228   4.915   3.571 -0.0027  0.2524 -0.0699
   15MOL   C238 9506   2.340   4.828   3.629 -0.0735  0.3470  0.1066
   15MOL   C239 9507   2.475   4.829   3.553 -0.3065 -0.0825  0.3261
   15MOL   C240 9508   2.561   4.954   3.563 -0.0366  0.3621 -0.7412
   15MOL   C241 9509   2.668   4.955   3.460  0.1995 -0.2263 -0.0798
   15MOL   C242 9510   2.741   5.091   3.443 -0.8853 -0.4475  0.1595
   15MOL   C243 9511   2.846   5.105   3.556  0.0922 -0.6464  0.1683
   15MOL   H244 9512   2.119   4.798   3.137  0.4389 -0.3398 -0.7837
   15MOL   H245 9513   2.170   4.891   3.002  0.2858  2.0145  0.3839
   15MOL   H246 9514   2.267   5.060   3.122  0.8228  0.3430  2.0203
   15MOL   H247 9515   2.371   4.956   3.317 -0.4952 -0.1869  2.1994
   15MOL   H248 9516   2.276   5.085   3.365  0.6015  0.3006 -1.9928
   15MOL   H249 9517   2.180   4.791   3.393 -1.6394 -0.0063  1.7533
   15MOL   H250 9518   2.077   4.912   3.416  0.0489 -0.3654 -3.1092
   15MOL   H251 9519   2.138   4.892   3.627  0.8224 -1.4174  0.5955
   15MOL   H252 9520   2.256   5.018   3.593  0.5134 -0.8356  5.0683
   15MOL   H253 9521   2.311   4.723   3.634 -1.7349  0.8576  1.7729
   15MOL   H254 9522   2.356   4.864   3.731  1.4522 -0.0357  0.0250
   15MOL   H255 9523   2.532   4.739   3.573  1.5170  0.4660 -2.0484
   15MOL   H256 9524   2.447   4.810   3.449 -0.8762 -0.3660  0.5324
   15MOL   H257 9525   2.490   5.035   3.544  1.2307  1.3172 -1.4113
   15MOL   H258 9526   2.595   4.970   3.666 -1.6066 -0.8329 -0.0125
   15MOL   H259 9527   2.736   4.875   3.490 -0.5495 -1.1482 -0.8235
   15MOL   H260 9528   2.613   4.924   3.371 -2.1509  0.4386  1.1076
   15MOL   H261 9529   2.663   5.167   3.448 -1.7285 -1.1868 -1.4824
   15MOL   H262 9530   2.792   5.091   3.346 -0.0177 -1.9212  0.5929
   15MOL   H263 9531   2.883   5.208   3.564 -0.9661 -0.1120 -1.5887
   15MOL   H264 9532   2.929   5.040   3.528  1.0545  0.6798 -0.0942
   15MOL   H265 9533   2.790   5.077   3.645 -1.2031 -1.2249 -0.8201
   15MOL   C266 9534   2.060   5.066   3.195  0.3329  0.6684 -0.0111
   15MOL   C267 9535   2.009   5.117   3.058 -0.2798 -0.3969  0.9117
   15MOL   C268 9536   2.033   5.269   3.016  0.4239  0.1265  0.3124
   15MOL   C269 9537   2.159   5.291   2.932  0.2986 -0.6207  0.3083
   15MOL   C270 9538   2.194   5.432   2.887 -0.7840  0.5456  0.1595
   15MOL   C271 9539   2.328   5.449   2.817 -0.8186 -0.6239 -0.0730
   15MOL   C272 9540   2.368   5.598   2.805  0.3521 -0.2055  0.3012
   15MOL   C273 9541   2.435   5.667   2.923 -0.2381 -0.1654 -0.2273
   15MOL   C274 9542   2.577   5.625   2.966  0.5421  0.4211 -0.1439
   15MOL   C275 9543   2.631   5.711   3.085  0.9912  0.2581  0.2826
   15MOL   C276 9544   2.765   5.670   3.128 -0.4585 -0.9690  0.0988
   15MOL   H277 9545   2.073   5.153   3.260  0.7191 -1.5426  2.9403
   15MOL   H278 9546   1.993   4.995   3.243  0.0054  0.2987 -0.9963
   15MOL   H279 9547   2.054   5.053   2.983 -1.5507  0.4903 -0.6381
   15MOL   H280 9548   1.953   5.326   2.970 -0.5193  0.6794  2.5812
   15MOL   H281 9549   2.042   5.322   3.111  0.9126 -1.1907  1.0132
   15MOL   H282 9550   2.137   5.232   2.842  1.7294  0.0326 -0.4983
   15MOL   H283 9551   2.239   5.246   2.991  2.6107  0.4574 -1.8951
   15MOL   H284 9552   2.183   5.501   2.971 -0.6251  2.4578 -1.3561
   15MOL   H285 9553   2.123   5.477   2.819  2.1858  2.2788 -1.8844
   15MOL   H286 9554   2.311   5.396   2.723 -1.0412 -1.1957  0.2909
   15MOL   H287 9555   2.411   5.397   2.865  0.0949  0.0069 -0.9317
   15MOL   H288 9556   2.431   5.612   2.718  1.4228  0.5749  1.1733
   15MOL   H289 9557   2.281   5.660   2.783  1.3078  1.2994  0.6267
   15MOL   H290 9558   2.374   5.643   3.010 -4.0479 -0.8135 -2.9074
   15MOL   H291 9559   2.430   5.770   2.889 -1.2938  0.0759  0.6266
   15MOL   H292 9560   2.582   5.523   3.004  2.6268  0.9090  0.9198
   15MOL   H293 9561   2.639   5.639   2.878  1.8777 -0.2785  0.6726
   15MOL   H294 9562   2.569   5.723   3.173 -2.3794  0.6254 -2.0424
   15MOL   H295 9563   2.626   5.816   3.055 -1.0398 -0.2293 -1.1358
   15MOL   H296 9564   2.763   5.583   3.194 -1.3620 -1.8755 -1.1128
   15MOL   H297 9565   2.817   5.747   3.186 -1.8232 -0.5318  0.7453
   15MOL   H298 9566   2.835   5.643   3.049  0.2898 -1.1215  0.7986
   15MOL   C299 9567   1.858   5.082   3.050  0.2838 -0.5568  0.3998
   15MOL   C300 9568   1.789   5.070   2.910 -0.7117  0.6691 -0.0869
   15MOL   C301 9569   1.647   5.110   2.916  0.7920  0.1658 -0.6824
   15MOL   C302 9570   1.609   5.263   2.934 -0.2550  0.5519  0.1999
   15MOL   C303 9571   1.598   5.344   2.801 -0.2216 -0.6608 -0.1732
   15MOL   C304 9572   1.609   5.499   2.829  0.9043  0.3700 -0.2066
   15MOL   C305 9573   1.749   5.558   2.849  0.1907  0.3849 -0.0064
   15MOL   C306 9574   1.803   5.636   2.736  0.3463 -0.4756  0.4481
   15MOL   C307 9575   1.854   5.541   2.620 -0.4775 -0.3385  0.0280
   15MOL   C308 9576   1.893   5.609   2.487  0.0233  0.1131  0.5762
   15MOL   C309 9577   1.926   5.524   2.370  0.2427  0.2444  0.5356
   15MOL   H310 9578   1.802   5.155   3.109 -0.2396  0.0580 -0.8395
   15MOL   H311 9579   1.828   4.992   3.104  1.0146 -1.1596 -0.1928
   15MOL   H312 9580   1.847   5.138   2.848  0.7142  1.4631  2.0511
   15MOL   H313 9581   1.588   5.078   2.830 -0.6831 -0.5560  0.5646
   15MOL   H314 9582   1.606   5.059   3.004  1.1474  1.3871  0.2066
   15MOL   H315 9583   1.514   5.276   2.987  0.1206  1.7423  0.5961
   15MOL   H316 9584   1.693   5.304   2.991  0.2908 -0.4878  0.1531
   15MOL   H317 9585   1.686   5.328   2.739 -0.2752 -0.8806 -0.1943
   15MOL   H318 9586   1.513   5.301   2.748  0.1530  0.2971 -1.5789
   15MOL   H319 9587   1.545   5.531   2.911  0.6434 -0.1726 -0.1996
   15MOL   H320 9588   1.562   5.543   2.742 -0.6575 -1.0547 -0.1037
   15MOL   H321 9589   1.738   5.621   2.938  0.2079  0.2415  0.0981
   15MOL   H322 9590   1.822   5.484   2.881 -0.4887 -0.4094 -0.2933
   15MOL   H323 9591   1.880   5.687   2.793 -0.1456  0.3883  0.3574
   15MOL   H324 9592   1.728   5.705   2.696  1.3355  0.4472  0.1758
   15MOL   H325 9593   1.766   5.479   2.602 -1.3509  0.8801 -0.0233
   15MOL   H326 9594   1.932   5.474   2.655  1.2219  1.0894 -0.9450
   15MOL   H327 9595   1.979   5.675   2.502 -0.6574  0.6434  2.2479
   15MOL   H328 9596   1.818   5.681   2.458 -1.1745 -0.6870  1.6443
   15MOL   H329 9597   1.921   5.576   2.274 -0.7600  0.6628  0.8064
   15MOL   H330 9598   2.024   5.478   2.382 -0.5566 -1.4460  0.7961
   15MOL   H331 9599   1.860   5.439   2.351 -1.3294  0.9362  2.6886
   15MOL   C332 9600   1.791   4.924   2.856 -0.3569  0.6288  0.2011
   15MOL   C333 9601   1.916   4.879   2.777 -0.1762  0.0655 -0.1119
   15MOL   C334 9602   1.906   4.907   2.623  0.4953 -0.1948 -0.2408
   15MOL   C335 9603   1.885   5.063   2.595  0.2760 -0.1411  0.6238
   15MOL   C336 9604   1.916   5.106   2.451  0.0391  0.7512  0.6659
   15MOL   C337 9605   1.836   5.018   2.355 -1.0852  0.1588 -0.9018
   15MOL   C338 9606   1.804   5.093   2.223  0.0747 -0.1913 -0.1957
   15MOL   C339 9607   1.697   5.023   2.148  0.1684 -0.3054  0.4276
   15MOL   C340 9608   1.656   5.087   2.012 -0.1520  0.6742 -0.6675
   15MOL   C341 9609   1.547   4.991   1.959 -0.2221  0.1793 -0.7733
   15MOL   C342 9610   1.505   5.014   1.814 -0.1510 -0.1535  0.0273
   15MOL   H343 9611   1.763   4.856   2.937 -2.1118  0.3075 -0.6508
   15MOL   H344 9612   1.709   4.927   2.784 -0.4255  2.1459  0.3108
   15MOL   H345 9613   1.996   4.942   2.816  0.0966  1.2833 -2.4950
   15MOL   H346 9614   1.823   4.851   2.579  0.2708 -0.4472  0.5054
   15MOL   H347 9615   1.993   4.872   2.568  0.6762 -0.9529  0.5318
   15MOL   H348 9616   1.788   5.107   2.621 -0.2614  1.2912 -3.4140
   15MOL   H349 9617   1.956   5.116   2.659  0.7746 -1.4908  1.1996
   15MOL   H350 9618   1.891   5.208   2.421  1.8335  0.2293 -2.8063
   15MOL   H351 9619   2.021   5.088   2.428 -0.6818  0.0874 -2.2774
   15MOL   H352 9620   1.752   4.979   2.411 -0.1661  2.0533  1.8517
   15MOL   H353 9621   1.906   4.938   2.329 -0.9985 -0.4163  1.0177
   15MOL   H354 9622   1.890   5.096   2.156  0.2867 -0.2901  0.0709
   15MOL   H355 9623   1.780   5.197   2.242 -0.5440  0.2849 -3.2372
   15MOL   H356 9624   1.726   4.920   2.129  0.6217  0.0155 -0.6555
   15MOL   H357 9625   1.612   5.020   2.216 -0.9983 -2.1354 -1.0647
   15MOL   H358 9626   1.746   5.094   1.951 -1.4622  1.5513 -2.5188
   15MOL   H359 9627   1.611   5.185   2.021 -2.2505 -0.1714 -1.6323
   15MOL   H360 9628   1.454   4.979   2.015  0.4162  0.0582  0.2738
   15MOL   H361 9629   1.584   4.890   1.943  0.3258  0.2469  0.0625
   15MOL   H362 9630   1.580   4.982   1.742  0.2357  0.2692  0.2382
   15MOL   H363 9631   1.417   4.952   1.798 -0.3386 -0.3190  1.6195
   15MOL   H364 9632   1.474   5.115   1.786  1.2114 -0.1746 -1.6888
   15MOL   C365 9633   1.961   4.737   2.818  0.0908 -0.1475  0.1732
   15MOL   C366 9634   1.887   4.626   2.749 -0.8977 -0.2493  0.7931
   15MOL   C367 9635   1.929   4.578   2.607 -0.3691 -0.5795 -0.1249
   15MOL   C368 9636   2.072   4.515   2.605 -0.3283  0.1217  0.1889
   15MOL   C369 9637   2.119   4.465   2.468 -0.1061 -0.3821 -0.0392
   15MOL   C370 9638   2.240   4.382   2.474 -0.5359 -0.4462 -0.2261
   15MOL   C371 9639   2.256   4.318   2.339  0.3826 -0.1320  0.5436
   15MOL   C372 9640   2.385   4.250   2.296  0.1787 -0.7931  0.2918
   15MOL   C373 9641   2.465   4.164   2.392  0.6694  0.1392  0.2498
   15MOL   C374 9642   2.533   4.039   2.328  0.3921  0.4018  0.4395
   15MOL   C375 9643   2.584   3.937   2.431 -0.1285  0.2110  0.0385
   15MOL   H376 9644   2.068   4.723   2.805  0.4557  2.9506 -0.5395
   15MOL   H377 9645   1.940   4.741   2.925  0.2014  0.6744  0.1684
   15MOL   H378 9646   1.787   4.668   2.738 -0.6200  0.4018  0.7462
   15MOL   H379 9647   1.917   4.646   2.523 -0.7269 -1.7811 -1.0554
   15MOL   H380 9648   1.862   4.496   2.584 -0.5592 -0.1688 -1.0385
   15MOL   H381 9649   2.068   4.426   2.667 -0.6249 -0.0480 -0.0712
   15MOL   H382 9650   2.157   4.582   2.617  1.2238 -1.7308 -0.2010
   15MOL   H383 9651   2.130   4.551   2.402  0.0438  0.8113  1.4955
   15MOL   H384 9652   2.033   4.406   2.436 -0.5371  0.2919 -0.1353
   15MOL   H385 9653   2.239   4.305   2.550  4.0085  0.4479  0.9186
   15MOL   H386 9654   2.328   4.444   2.492 -1.0161  0.6711 -1.6042
   15MOL   H387 9655   2.188   4.233   2.346  0.4360  0.0009  3.0737
   15MOL   H388 9656   2.234   4.387   2.257  0.2175  0.0319  0.7245
   15MOL   H389 9657   2.453   4.327   2.260 -1.0606 -0.6604 -1.8084
   15MOL   H390 9658   2.358   4.184   2.213 -1.2701 -0.7977  0.7639
   15MOL   H391 9659   2.552   4.215   2.433  2.1554 -0.4003 -2.0591
   15MOL   H392 9660   2.404   4.125   2.473  2.2844 -1.6572  0.6755
   15MOL   H393 9661   2.462   3.985   2.264 -0.0322  1.5002 -0.0241
   15MOL   H394 9662   2.604   4.075   2.254  0.6787 -0.2560  0.3938
   15MOL   H395 9663   2.505   3.894   2.493 -0.5806  1.2524  0.2081
   15MOL   H396 9664   2.648   3.975   2.510 -0.4040  1.3274 -0.2571
   15MOL   H397 9665   2.642   3.860   2.381  1.8998  1.9632 -0.3587
   15MOL   C398 9666   1.876   4.511   2.844  0.2955 -0.1209  0.6192
   15MOL   C399 9667   1.754   4.519   2.943 -0.8507 -0.2527 -0.6343
   15MOL   C400 9668   1.802   4.494   3.091 -0.5874  0.4298 -0.1047
   15MOL   C401 9669   1.830   4.624   3.170 -0.0590  0.7088 -0.9839
   15MOL   C402 9670   1.944   4.623   3.279  1.1647  0.7606 -0.2538
   15MOL   C403 9671   1.915   4.529   3.402  0.3778  0.4060 -0.3786
   15MOL   C404 9672   2.018   4.554   3.511 -0.1740  0.5541  0.3812
   15MOL   C405 9673   2.002   4.470   3.642 -0.1874 -0.5375  0.3778
   15MOL   C406 9674   2.123   4.467   3.740  0.9729 -0.5337  0.2631
   15MOL   C407 9675   2.257   4.421   3.682  0.1982  0.1061  0.3946
   15MOL   C408 9676   2.249   4.278   3.632 -0.2495  0.3571 -0.0665
   15MOL   H409 9677   1.973   4.496   2.891  0.2286 -0.3744  0.6787
   15MOL   H410 9678   1.871   4.414   2.795  1.4822  0.7826 -1.3589
   15MOL   H411 9679   1.709   4.619   2.941 -3.0121 -1.1091  1.9595
   15MOL   H412 9680   1.894   4.436   3.085 -1.2467 -0.7155  0.5968
   15MOL   H413 9681   1.732   4.430   3.145 -2.3624  0.7604 -1.9648
   15MOL   H414 9682   1.867   4.701   3.103  0.9400  1.3011  0.2136
   15MOL   H415 9683   1.735   4.666   3.205 -0.8519 -1.7591 -0.0975
   15MOL   H416 9684   2.040   4.593   3.236  0.8704 -0.3661 -0.1436
   15MOL   H417 9685   1.963   4.723   3.316  0.2139  0.1655  1.9145
   15MOL   H418 9686   1.926   4.422   3.386 -3.3020 -0.2312  0.9367
   15MOL   H419 9687   1.815   4.544   3.442 -0.2577  0.4156 -1.9503
   15MOL   H420 9688   2.110   4.526   3.459 -0.0481 -0.3951  1.0781
   15MOL   H421 9689   2.023   4.662   3.526  1.0862  0.3715  1.4217
   15MOL   H422 9690   1.968   4.368   3.622 -1.7693 -0.2648  1.5453
   15MOL   H423 9691   1.915   4.506   3.696 -1.0140 -2.6637  0.5280
   15MOL   H424 9692   2.131   4.569   3.778  0.3879 -0.7466  0.9725
   15MOL   H425 9693   2.102   4.389   3.814  0.8482  1.0752  1.9541
   15MOL   H426 9694   2.342   4.433   3.748  0.4916 -0.5537  0.1366
   15MOL   H427 9695   2.287   4.484   3.598 -0.0676 -0.4871 -0.1501
   15MOL   H428 9696   2.346   4.232   3.612 -0.2925 -0.6640  1.8868
   15MOL   H429 9697   2.188   4.272   3.542 -1.9227  1.5751  0.9618
   15MOL   H430 9698   2.204   4.211   3.705  0.1465 -0.2895 -0.4030
   15MOL   C431 9699   1.646   4.424   2.894  0.7489 -0.1412  0.2175
   15MOL   C432 9700   1.572   4.464   2.765 -0.5220 -0.0411  0.2350
   15MOL   C433 9701   1.493   4.594   2.791  0.4201 -0.7108  1.0445
   15MOL   C434 9702   1.489   4.662   2.650  0.1873 -0.2220 -0.0408
   15MOL   C435 9703   1.433   4.812   2.656  0.2387  0.4670  0.2797
   15MOL   C436 9704   1.492   4.901   2.551 -0.6726 -0.3058  0.2491
   15MOL   C437 9705   1.435   5.049   2.559 -0.0061  0.7872  0.3917
   15MOL   C438 9706   1.468   5.136   2.439  0.2083  0.0574 -0.3905
   15MOL   C439 9707   1.400   5.269   2.440  0.2426 -0.4939 -0.0674
   15MOL   C440 9708   1.440   5.356   2.322  0.4479 -0.1241  0.9396
   15MOL   C441 9709   1.366   5.312   2.195  0.2838 -0.3825 -0.4046
   15MOL   H442 9710   1.570   4.417   2.971  0.5184  1.1155  0.1159
   15MOL   H443 9711   1.696   4.329   2.875 -1.5679 -1.1840 -0.7996
   15MOL   H444 9712   1.649   4.477   2.689 -1.4279 -0.1984 -0.7264
   15MOL   H445 9713   1.389   4.569   2.810 -0.5454  1.4777 -1.0589
   15MOL   H446 9714   1.518   4.663   2.872 -3.6864  0.3495  1.5332
   15MOL   H447 9715   1.428   4.609   2.577  1.3810 -0.2123 -1.0765
   15MOL   H448 9716   1.589   4.666   2.606  1.2875  3.7787  2.6076
   15MOL   H449 9717   1.462   4.849   2.755  1.6960 -2.1689  0.8916
   15MOL   H450 9718   1.324   4.807   2.660  0.3431 -3.6379 -0.0225
   15MOL   H451 9719   1.466   4.856   2.455 -1.0862 -0.6525  0.5220
   15MOL   H452 9720   1.599   4.900   2.571 -0.6302  0.3837  0.0532
   15MOL   H453 9721   1.461   5.104   2.650 -0.6228 -0.3091  1.2528
   15MOL   H454 9722   1.326   5.045   2.559  0.0353 -0.7397 -0.8772
   15MOL   H455 9723   1.577   5.140   2.445  0.1509  1.6909 -0.0113
   15MOL   H456 9724   1.452   5.077   2.349  1.4043 -1.2433  0.2297
   15MOL   H457 9725   1.410   5.324   2.533  2.4120 -1.8477  0.5580
   15MOL   H458 9726   1.292   5.255   2.431  0.2632 -1.1136  0.5829
   15MOL   H459 9727   1.545   5.339   2.304  0.2831 -2.4563  2.0400
   15MOL   H460 9728   1.419   5.460   2.349  0.3971  0.1137 -0.0232
   15MOL   H461 9729   1.380   5.207   2.172 -0.6171 -1.0283  1.9228
   15MOL   H462 9730   1.260   5.331   2.211  0.6039  1.4581 -0.3076
   15MOL   H463 9731   1.383   5.375   2.107 -0.8317 -0.0492 -0.3901
   15MOL   C464 9732   1.473   4.356   2.720 -0.1110 -0.2069  0.8491
   15MOL   C465 9733   1.526   4.226   2.665  0.6451 -0.3875  0.2792
   15MOL   C466 9734   1.420   4.118   2.644 -0.6238  0.2371 -0.2297
   15MOL   C467 9735   1.335   4.139   2.523  0.5579 -0.0036  0.3752
   15MOL   C468 9736   1.246   4.009   2.509 -1.0021  0.1205 -0.2302
   15MOL   C469 9737   1.155   4.022   2.381 -0.0510  0.2237 -0.0685
   15MOL   C470 9738   1.033   3.927   2.387  0.5332 -0.6086 -0.4452
   15MOL   C471 9739   0.929   3.974   2.285  0.2100  0.2865  0.1566
   15MOL   C472 9740   0.812   3.874   2.261 -0.1250  0.1180 -0.6048
   15MOL   C473 9741   0.758   3.893   2.116 -0.3351 -0.2179 -0.2589
   15MOL   C474 9742   0.616   3.830   2.099  0.0624  0.1074 -0.4312
   15MOL   H475 9743   1.399   4.404   2.655 -0.0930 -0.4955  0.6181
   15MOL   H476 9744   1.418   4.319   2.807  1.6685 -0.8036  1.7555
   15MOL   H477 9745   1.582   4.189   2.751 -0.6815  2.8211  2.6190
   15MOL   H478 9746   1.356   4.108   2.733 -1.5411  0.3115 -0.8715
   15MOL   H479 9747   1.461   4.018   2.633 -0.0855  0.5328 -0.9640
   15MOL   H480 9748   1.278   4.232   2.528  1.8819  0.7436  2.3590
   15MOL   H481 9749   1.395   4.136   2.432  3.1959 -2.8374  2.1016
   15MOL   H482 9750   1.200   3.986   2.606 -3.1689  0.2015 -1.2029
   15MOL   H483 9751   1.300   3.918   2.487  1.9036  1.5501  0.7051
   15MOL   H484 9752   1.112   4.122   2.383  0.5688  0.5006 -0.5842
   15MOL   H485 9753   1.220   4.001   2.297  2.0681  0.2560  1.5072
   15MOL   H486 9754   1.069   3.825   2.374 -0.0003 -0.9139  0.4023
   15MOL   H487 9755   0.988   3.928   2.486 -0.0030 -1.1978 -0.6780
   15MOL   H488 9756   0.885   4.067   2.321 -1.9155  0.1096 -1.9350
   15MOL   H489 9757   0.981   3.992   2.191 -0.7873  3.9120  0.2327
   15MOL   H490 9758   0.850   3.777   2.293  2.8445  1.0313 -1.1728
   15MOL   H491 9759   0.735   3.890   2.337  0.7864 -0.3655  0.4405
   15MOL   H492 9760   0.764   3.998   2.086 -0.7717 -0.1646 -0.1656
   15MOL   H493 9761   0.824   3.832   2.054  2.0833  1.9343  0.0692
   15MOL   H494 9762   0.576   3.858   2.002  0.4391 -1.1686 -0.9597
   15MOL   H495 9763   0.542   3.872   2.167  1.9197  2.0988  0.4320
   15MOL   H496 9764   0.615   3.723   2.119 -1.1346 -0.3002 -2.5639
   15MOL   C497 9765   1.622   4.249   2.537 -0.0341 -0.2142  0.3130
   15MOL   C498 9766   1.714   4.129   2.508 -0.7645 -0.7428  1.1751
   15MOL   C499 9767   1.835   4.147   2.604 -0.1468  0.0031  0.2885
   15MOL   C500 9768   1.912   4.011   2.618 -0.0993 -0.1468  0.1931
   15MOL   C501 9769   2.040   4.024   2.696  0.8553  0.0067  0.1371
   15MOL   C502 9770   2.025   4.067   2.841 -0.3141 -0.6452  0.1020
   15MOL   C503 9771   2.162   4.077   2.912  0.2413  0.3489 -0.7345
   15MOL   C504 9772   2.154   4.107   3.058  0.0707  0.6759 -0.4888
   15MOL   C505 9773   2.297   4.133   3.115 -0.4237  0.4885 -0.4208
   15MOL   C506 9774   2.293   4.188   3.257  0.6891  0.1035  0.0879
   15MOL   C507 9775   2.429   4.225   3.310 -0.2460  0.4210  0.6850
   15MOL   H508 9776   1.557   4.273   2.453 -0.5859  0.6995  1.0062
   15MOL   H509 9777   1.672   4.345   2.536 -2.8341  1.2760  0.3390
   15MOL   H510 9778   1.655   4.041   2.534  0.1393 -1.5194  0.6519
   15MOL   H511 9779   1.807   4.168   2.707 -1.4206 -0.5885  0.0710
   15MOL   H512 9780   1.889   4.236   2.572  1.5708 -1.9726 -2.5215
   15MOL   H513 9781   1.938   3.956   2.527 -0.2771  0.7939 -0.4380
   15MOL   H514 9782   1.850   3.934   2.662 -2.2309  0.1211 -2.2041
   15MOL   H515 9783   2.092   3.929   2.697  1.4600  0.3371  1.7276
   15MOL   H516 9784   2.108   4.090   2.643 -1.2458  1.7361 -0.4949
   15MOL   H517 9785   1.974   4.163   2.849  1.4078  0.0424  3.4719
   15MOL   H518 9786   1.980   3.995   2.910  0.6169 -1.6015 -0.2663
   15MOL   H519 9787   2.214   3.982   2.893 -0.8438 -0.7203  1.4118
   15MOL   H520 9788   2.216   4.158   2.863 -0.0121  0.5625 -0.6594
   15MOL   H521 9789   2.112   4.019   3.108  1.0086 -0.5290 -1.7801
   15MOL   H522 9790   2.088   4.191   3.083  1.3154  1.1633  1.2334
   15MOL   H523 9791   2.338   4.220   3.063 -1.3190  1.1024 -0.1094
   15MOL   H524 9792   2.358   4.044   3.100 -0.1838  0.3799  1.1246
   15MOL   H525 9793   2.243   4.124   3.329 -0.5887  0.1311 -0.7439
   15MOL   H526 9794   2.239   4.281   3.240  0.7518 -0.3595 -2.8622
   15MOL   H527 9795   2.496   4.269   3.236 -2.6325  1.7609 -0.7585
   15MOL   H528 9796   2.485   4.144   3.357  0.7553  1.9316  2.1560
   15MOL   H529 9797   2.424   4.304   3.385  1.2321  0.6945  0.4926
   15MOL   C530 9798   1.760   4.125   2.358 -0.2467 -0.3003 -0.1217
   15MOL   C531 9799   1.651   4.064   2.268 -0.5113  0.1114 -0.6150
   15MOL   C532 9800   1.676   3.916   2.247  0.1229  0.1444  0.1065
   15MOL   C533 9801   1.693   3.826   2.378  0.2934 -0.0560  0.1962
   15MOL   C534 9802   1.715   3.679   2.340  0.0570  0.1943 -0.1616
   15MOL   C535 9803   1.720   3.586   2.466 -0.5988 -0.8861 -0.0977
   15MOL   C536 9804   1.823   3.602   2.578  0.4427  0.1953 -0.4234
   15MOL   C537 9805   1.849   3.462   2.656  0.6423  0.9931 -0.0860
   15MOL   C538 9806   1.895   3.473   2.804 -0.4051  0.2954 -0.1591
   15MOL   C539 9807   1.790   3.513   2.908 -0.1082 -0.0924  0.4988
   15MOL   C540 9808   1.840   3.530   3.046 -0.1038  0.7534 -0.1239
   15MOL   H541 9809   1.785   4.223   2.316  1.5027 -0.3991  0.6441
   15MOL   H542 9810   1.851   4.065   2.356 -0.1959 -0.2773  0.9702
   15MOL   H543 9811   1.551   4.072   2.311 -0.4411 -0.2640 -0.3783
   15MOL   H544 9812   1.765   3.903   2.185 -0.9107  0.5833 -1.5183
   15MOL   H545 9813   1.607   3.863   2.182  1.1694 -1.7733  0.5279
   15MOL   H546 9814   1.593   3.828   2.423 -0.4199 -0.5739 -1.3344
   15MOL   H547 9815   1.765   3.866   2.449  0.2908 -1.2922  0.9062
   15MOL   H548 9816   1.812   3.664   2.293 -0.8535 -0.7262 -1.8060
   15MOL   H549 9817   1.632   3.655   2.273  1.5084 -1.6979 -1.3580
   15MOL   H550 9818   1.711   3.484   2.428 -2.2033 -1.0494  0.7035
   15MOL   H551 9819   1.624   3.602   2.514  0.1610 -0.4129  1.2921
   15MOL   H552 9820   1.777   3.678   2.642 -2.2569 -1.2147 -0.6212
   15MOL   H553 9821   1.911   3.642   2.528  0.4287  0.0582 -0.5553
   15MOL   H554 9822   1.922   3.409   2.596  0.5779  2.1225 -1.1904
   15MOL   H555 9823   1.758   3.402   2.657  1.3452 -0.1596 -2.1887
   15MOL   H556 9824   1.975   3.547   2.800  1.0527 -1.2900 -1.1568
   15MOL   H557 9825   1.929   3.372   2.826  0.5247  0.0908 -2.3504
   15MOL   H558 9826   1.724   3.427   2.916  0.1097 -0.2749  0.3636
   15MOL   H559 9827   1.727   3.600   2.888  0.6369  0.1887 -0.6637
   15MOL   H560 9828   1.880   3.443   3.098  0.2823  2.3852  2.3927
   15MOL   H561 9829   1.927   3.594   3.061  0.6291 -0.2410 -0.0269
   15MOL   H562 9830   1.767   3.571   3.116  1.7954  1.4469  1.5131
   15MOL   C563 9831   1.660   4.140   2.128 -0.1881  0.1123 -0.4213
   15MOL   C564 9832   1.552   4.096   2.021  0.3607  0.3508 -0.7291
   15MOL   C565 9833   1.590   4.136   1.875 -0.7515  0.9688  0.7727
   15MOL   C566 9834   1.598   4.294   1.857  0.3504 -0.0176  0.1806
   15MOL   C567 9835   1.633   4.318   1.712 -0.4923 -0.0973  0.4913
   15MOL   C568 9836   1.629   4.464   1.656 -0.0508 -0.2778  0.1390
   15MOL   C569 9837   1.501   4.502   1.585  0.1230 -0.1708 -0.0340
   15MOL   C570 9838   1.413   4.594   1.677 -0.1527  0.0360  0.3944
   15MOL   C571 9839   1.299   4.672   1.604 -0.4397  0.4664  0.4039
   15MOL   C572 9840   1.172   4.585   1.564 -0.7069  0.7220  0.6627
   15MOL   C573 9841   1.051   4.673   1.564  0.0810 -0.2222 -0.4647
   15MOL   H574 9842   1.764   4.137   2.095 -0.9426 -1.7879 -2.8353
   15MOL   H575 9843   1.644   4.247   2.140  4.2108  0.6960  1.4825
   15MOL   H576 9844   1.545   3.989   2.039  2.3378  0.5119  1.0868
   15MOL   H577 9845   1.510   4.101   1.809 -0.1754  1.4421 -0.1842
   15MOL   H578 9846   1.678   4.081   1.842 -0.8423 -0.3592  2.6293
   15MOL   H579 9847   1.680   4.346   1.907 -0.1072 -0.2450  1.1823
   15MOL   H580 9848   1.497   4.329   1.880  0.4665  0.1630  0.4142
   15MOL   H581 9849   1.579   4.262   1.636  0.6246  2.0248 -1.9657
   15MOL   H582 9850   1.735   4.285   1.693 -0.5567  0.5274 -1.0313
   15MOL   H583 9851   1.664   4.538   1.727  0.4571  0.2316 -0.6289
   15MOL   H584 9852   1.707   4.454   1.581 -1.0574  0.1243 -0.9847
   15MOL   H585 9853   1.513   4.544   1.485 -0.4482  1.8513  0.7163
   15MOL   H586 9854   1.449   4.409   1.565  1.2508 -0.5567 -1.2768
   15MOL   H587 9855   1.480   4.669   1.719  0.4413 -0.1466 -0.2045
   15MOL   H588 9856   1.364   4.543   1.760  0.8922 -1.2996  0.2256
   15MOL   H589 9857   1.325   4.731   1.515 -1.8527  0.8107  0.2073
   15MOL   H590 9858   1.255   4.742   1.676  1.8740  0.4531  1.8686
   15MOL   H591 9859   1.136   4.511   1.636 -0.0896  0.8670  1.1278
   15MOL   H592 9860   1.192   4.529   1.473  3.5660  0.1259  1.8348
   15MOL   H593 9861   0.963   4.624   1.523  0.3304 -1.0907  0.0372
   15MOL   H594 9862   1.021   4.705   1.664  1.5586 -2.6910  0.8083
   15MOL   H595 9863   1.071   4.755   1.495  0.5185  0.6192  0.6540
   15MOL   C596 9864   1.413   4.154   2.072  0.0309  0.0586 -0.3680
   15MOL   C597 9865   1.292   4.141   1.975 -0.3762  0.0941  0.0162
   15MOL   C598 9866   1.165   4.234   2.008  0.3297  0.0708  0.0445
   15MOL   C599 9867   1.199   4.386   1.995 -0.3267  1.1780  0.1031
   15MOL   C600 9868   1.073   4.473   1.988 -0.8089  0.7283 -0.0327
   15MOL   C601 9869   1.115   4.619   1.972  0.5205 -0.1290 -0.3817
   15MOL   C602 9870   0.989   4.708   1.979  0.6306 -0.2292 -0.5302
   15MOL   C603 9871   1.029   4.860   1.988 -0.2007 -0.5816  0.0075
   15MOL   C604 9872   0.912   4.955   2.011  0.1985 -0.1177  1.0433
   15MOL   C605 9873   0.944   5.106   2.017 -0.5493  0.1958 -0.7355
   15MOL   C606 9874   0.817   5.185   2.043 -0.5569  0.4471  0.0860
   15MOL   H607 9875   1.385   4.108   2.167  2.8966 -0.6702  0.1734
   15MOL   H608 9876   1.420   4.260   2.097 -0.3130  0.4457 -1.8706
   15MOL   H609 9877   1.320   4.166   1.872 -0.4329  0.5195  0.1038
   15MOL   H610 9878   1.135   4.214   2.111  0.7628 -0.4422  0.0698
   15MOL   H611 9879   1.081   4.215   1.941  0.2167  0.3512  0.1060
   15MOL   H612 9880   1.277   4.413   1.924  0.3761 -2.8026 -0.8105
   15MOL   H613 9881   1.249   4.395   2.091 -1.3854 -2.1336  1.0343
   15MOL   H614 9882   1.011   4.461   2.077 -0.7922 -1.0025 -0.2460
   15MOL   H615 9883   1.017   4.443   1.900 -0.1122  0.7003 -0.4670
   15MOL   H616 9884   1.197   4.639   2.041 -1.4632 -0.2897  2.0848
   15MOL   H617 9885   1.171   4.634   1.879 -0.1739 -0.2856 -0.8272
   15MOL   H618 9886   0.952   4.694   2.080 -0.1818 -0.1324 -0.8093
   15MOL   H619 9887   0.911   4.682   1.908 -0.0163 -0.4991  0.2755
   15MOL   H620 9888   1.088   4.888   1.900 -0.3833 -0.1052  0.0350
   15MOL   H621 9889   1.099   4.867   2.072 -1.9662  3.0758  1.2921
   15MOL   H622 9890   0.839   4.938   1.932  0.8202  3.8177 -0.4863
   15MOL   H623 9891   0.862   4.931   2.106  1.6552 -1.5798  1.4646
   15MOL   H624 9892   0.984   5.119   1.916  0.9227 -1.1889 -0.3474
   15MOL   H625 9893   1.029   5.125   2.082  0.1281  1.2448 -1.9084
   15MOL   H626 9894   0.831   5.293   2.052 -1.5930  1.2381 -5.6834
   15MOL   H627 9895   0.750   5.167   1.959 -1.4024  1.0805  0.6190
   15MOL   H628 9896   0.762   5.140   2.125 -0.2320 -2.2824 -1.1291
   15MOL   C629 9897   1.254   3.995   1.965  0.3366  0.3690  0.7438
   15MOL   C630 9898   1.146   3.962   1.870  0.8054 -0.1221  0.9727
   15MOL   C631 9899   1.144   3.811   1.847 -0.0869 -0.6695 -0.1584
   15MOL   C632 9900   1.050   3.761   1.737 -0.1127 -0.3603  0.2607
   15MOL   C633 9901   0.895   3.754   1.778 -0.2139 -0.1093 -0.5174
   15MOL   C634 9902   0.793   3.695   1.675  0.3420  0.3398  0.3808
   15MOL   C635 9903   0.654   3.679   1.738  0.5848  0.3807  0.3191
   15MOL   C636 9904   0.544   3.644   1.635 -0.3589 -0.1796  0.0739
   15MOL   C637 9905   0.432   3.548   1.696 -0.4322 -0.1261 -0.5761
   15MOL   C638 9906   0.328   3.508   1.588 -0.9464 -0.6808  0.6662
   15MOL   C639 9907   0.341   3.364   1.548 -0.6281 -0.5284  1.1229
   15MOL   H640 9908   1.345   3.941   1.937 -1.2999 -0.6142 -3.0050
   15MOL   H641 9909   1.226   3.960   2.064  0.5991 -1.1277  0.3011
   15MOL   H642 9910   1.050   4.001   1.901  1.4916  0.7795  2.0055
   15MOL   H643 9911   1.247   3.778   1.832  0.2425 -0.3268  1.2929
   15MOL   H644 9912   1.100   3.767   1.937  0.8655  0.6682  0.9852
   15MOL   H645 9913   1.070   3.658   1.706 -1.4539 -0.7732  0.7009
   15MOL   H646 9914   1.058   3.821   1.646  0.1786  0.4032  0.7899
   15MOL   H647 9915   0.866   3.851   1.819 -0.0238  0.4935 -1.7972
   15MOL   H648 9916   0.897   3.696   1.871  0.9436  1.9556  0.8014
   15MOL   H649 9917   0.833   3.605   1.630  1.2965  1.8006 -1.7711
   15MOL   H650 9918   0.803   3.767   1.594 -1.7517  1.0130  0.6768
   15MOL   H651 9919   0.620   3.767   1.794 -1.0136 -0.4854  0.7442
   15MOL   H652 9920   0.649   3.603   1.815  2.1185 -2.5101 -2.3351
   15MOL   H653 9921   0.593   3.592   1.553  1.4417 -0.2597  1.1781
   15MOL   H654 9922   0.508   3.732   1.581 -1.1152  0.4282  1.5541
   15MOL   H655 9923   0.384   3.602   1.777  0.6672  0.4110 -0.2713
   15MOL   H656 9924   0.484   3.458   1.729  0.1910  0.6669  0.6336
   15MOL   H657 9925   0.346   3.574   1.503 -0.2739 -0.9444  0.5961
   15MOL   H658 9926   0.229   3.529   1.628 -0.5572  0.5002  1.0141
   15MOL   H659 9927   0.329   3.308   1.641 -0.9788 -0.7159  0.9649
   15MOL   H660 9928   0.438   3.350   1.502 -0.4556 -2.1312  1.9608
   15MOL   H661 9929   0.258   3.335   1.484 -0.7265  0.5978  0.7191
   15MOL   H662 9930   1.168   4.016   1.778 -3.0525  2.3071  1.3879
   16MOL     C1 9931   3.046   2.091   7.596 -0.3553  0.1197  0.0849
   16MOL     C2 9932   2.922   2.022   7.647 -0.4868  0.5121 -0.1627
   16MOL     C3 9933   2.936   1.868   7.634 -0.4463 -0.2316  0.3621
   16MOL     C4 9934   2.824   1.767   7.660  0.1764 -0.1101 -0.0959
   16MOL     C5 9935   2.677   1.812   7.648  0.7886 -0.2740  0.0263
   16MOL     C6 9936   2.644   1.836   7.499  0.1367 -0.5898 -0.2152
   16MOL     C7 9937   2.498   1.868   7.476  0.2315 -0.3359  0.8249
   16MOL     C8 9938   2.481   1.925   7.334 -0.3316  0.1409  0.0417
   16MOL     C9 9939   2.333   1.964   7.296 -0.2618  0.3625 -0.7919
   16MOL    C10 9940   2.308   2.000   7.147  0.2923 -0.3373 -0.6649
   16MOL    C11 9941   2.162   2.009   7.089 -0.1775 -0.5441  0.1093
   16MOL    H12 9942   3.075   2.047   7.501 -1.5203 -0.2311 -0.1182
   16MOL    H13 9943   3.130   2.082   7.665 -0.6234  0.9454  0.5248
   16MOL    H14 9944   2.832   2.042   7.589  0.0022  1.3542 -0.6502
   16MOL    H15 9945   3.018   1.835   7.699 -2.0492  0.7179  2.9394
   16MOL    H16 9946   2.968   1.850   7.532  0.0980  0.3421  0.4280
   16MOL    H17 9947   2.833   1.739   0.062 -0.2231 -0.6097 -0.1917
   16MOL    H18 9948   2.827   1.671   7.611  0.3888 -0.6444  0.9468
   16MOL    H19 9949   2.620   1.729   7.691 -1.2184  0.9966 -0.1145
   16MOL    H20 9950   2.662   1.902   0.004 -1.5970 -1.0221  0.5980
   16MOL    H21 9951   2.667   1.742   7.448 -2.8839 -1.2433 -0.4924
   16MOL    H22 9952   2.708   1.915   7.460 -1.6855 -0.6196 -3.3624
   16MOL    H23 9953   2.439   1.780   7.502 -2.0478  0.9434  0.1006
   16MOL    H24 9954   2.464   1.943   7.547 -2.3978  1.1287 -1.8598
   16MOL    H25 9955   2.530   1.854   7.268  2.4098  1.8537  0.1583
   16MOL    H26 9956   2.548   2.011   7.327  0.1933 -0.2614  0.0767
   16MOL    H27 9957   2.295   2.048   7.355  0.1586 -0.4036  0.5978
   16MOL    H28 9958   2.268   1.881   7.324  0.2251  0.0317 -0.6357
   16MOL    H29 9959   2.363   1.931   7.082  2.3443  0.7938 -0.1730
   16MOL    H30 9960   2.360   2.095   7.141  4.1348 -1.9864  3.8966
   16MOL    H31 9961   2.105   1.918   7.104  1.8335 -1.4764  2.4844
   16MOL    H32 9962   2.099   2.092   7.121  1.0014 -0.4960  2.4589
   16MOL    H33 9963   2.170   2.011   6.981 -0.3224 -0.9972  0.0899
   16MOL    H34 9964   3.031   2.199   7.589  1.4099  0.6784  3.5429
   16MOL    C35 9965   2.889   2.064   0.086  0.3996  0.1018  0.3602
   16MOL    C36 9966   2.818   2.201   0.107  0.0865 -0.0106  0.1074
   16MOL    C37 9967   2.673   2.191   0.068 -0.2190 -0.2757  0.6795
   16MOL    C38 9968   2.577   2.124   0.167  0.2527  0.0962 -0.3014
   16MOL    C39 9969   2.436   2.122   0.113  0.2682 -0.7941 -0.5481
   16MOL    C40 9970   2.345   2.023   0.190  0.3134 -0.4433 -0.0977
   16MOL    C41 9971   2.247   1.943   0.106 -0.6832 -0.8366  0.0025
   16MOL    C42 9972   2.154   2.026   0.019  0.8632 -0.2106 -0.0770
   16MOL    C43 9973   2.104   1.956   7.599 -0.4794 -0.0118  0.2098
   16MOL    C44 9974   1.979   2.006   7.531 -0.3496  0.5723 -0.2452
   16MOL    C45 9975   1.984   2.151   7.492 -0.1935  0.7072 -0.2240
   16MOL    H46 9976   2.975   2.060   0.152 -0.1535 -0.1409  1.0709
   16MOL    H47 9977   2.829   1.985   0.133 -0.2871  0.2730 -0.2143
   16MOL    H48 9978   2.849   2.258   0.020  1.2013 -1.4915 -0.4875
   16MOL    H49 9979   2.632   2.291   0.058 -1.3004 -0.8655 -1.1178
   16MOL    H50 9980   2.665   2.140   7.675  0.7520  1.3404 -0.2765
   16MOL    H51 9981   2.584   2.174   0.264 -1.1342 -0.4579  0.0922
   16MOL    H52 9982   2.608   2.022   0.186 -0.2585 -0.2806 -1.4309
   16MOL    H53 9983   2.446   2.089   0.010  1.3727 -2.7670  0.1749
   16MOL    H54 9984   2.390   2.221   0.108  2.3309  0.1414 -1.6194
   16MOL    H55 9985   2.302   2.072   0.277 -0.2666 -1.7536  0.3726
   16MOL    H56 9986   2.410   1.948   0.236  2.6230  0.0056 -2.4825
   16MOL    H57 9987   2.313   1.890   0.037 -0.9071 -1.3093  0.1500
   16MOL    H58 9988   2.185   1.865   0.151 -1.6274 -1.0502 -1.6437
   16MOL    H59 9989   2.197   2.114   7.677 -0.1010 -0.0789 -0.7608
   16MOL    H60 9990   2.066   2.062   0.072  0.5699  1.4111 -1.6237
   16MOL    H61 9991   2.079   1.859   7.643 -0.4625 -1.4935 -2.8763
   16MOL    H62 9992   2.186   1.921   7.536  0.1957 -0.7528  1.4568
   16MOL    H63 9993   1.959   1.939   7.448 -0.0029 -0.7472  0.7089
   16MOL    H64 9994   1.900   2.002   7.607 -0.8042  0.9207 -0.7038
   16MOL    H65 9995   2.080   2.168   7.442  0.0375  2.6977  0.8459
   16MOL    H66 9996   1.901   2.163   7.422  0.4929  2.4737 -0.7731
   16MOL    H67 9997   1.956   2.226   7.566 -1.5642  0.4575 -0.4716
   16MOL    C68 9998   2.856   2.272   0.240  0.4650  0.5192  0.3436
   16MOL    C69 9999   2.984   2.360   0.233 -0.0675 -0.1906 -1.3981
   16MOL    C7010000   2.943   2.509   0.207 -0.2532  0.2644 -0.4700
   16MOL    C7110001   2.908   2.545   0.059  0.4477 -0.4937  1.0367
   16MOL    C7210002   2.906   2.697   0.050 -0.0308  0.4366  0.4629
   16MOL    C7310003   2.857   2.741   7.612  0.3426  0.1110 -0.1852
   16MOL    C7410004   2.834   2.894   7.609 -0.2701 -0.7710  0.4797
   16MOL    C7510005   2.958   2.972   7.622  0.6790 -0.6278  0.0092
   16MOL    C7610006   3.049   2.978   7.495 -0.2012  0.4506  0.1303
   16MOL    C7710007   3.168   3.080   7.497 -0.1829 -0.3140  0.6001
   16MOL    C7810008   3.259   3.073   7.370  0.3231 -0.1290  0.2294
   16MOL    H7910009   2.864   2.200   0.322  1.6590 -1.1508 -1.1854
   16MOL    H8010010   2.773   2.333   0.274  0.6764  0.8472  0.2724
   16MOL    H8110011   3.045   2.332   0.148  4.5439 -1.2085  2.0242
   16MOL    H8210012   3.032   2.559   0.247  0.4731  0.4750 -2.2901
   16MOL    H8310013   2.859   2.545   0.266  0.5746  3.0211 -0.8784
   16MOL    H8410014   2.989   2.508   7.700  1.3108 -1.2382  2.5928
   16MOL    H8510015   2.813   2.501   0.028  0.8253  0.3773 -1.5315
   16MOL    H8610016   3.001   2.741   0.081 -0.3172  1.6778 -0.3814
   16MOL    H8710017   2.829   2.744   0.111 -1.7032  0.3236 -1.5328
   16MOL    H8810018   2.928   2.716   7.533 -1.0880 -1.9368 -0.8608
   16MOL    H8910019   2.762   2.692   7.591  1.0532 -0.8319 -1.2977
   16MOL    H9010020   2.759   2.921   7.684 -1.5144  1.8897 -1.6428
   16MOL    H9110021   2.780   2.919   7.518  0.5166 -2.6715 -0.5284
   16MOL    H9210022   2.921   3.073   7.640  0.6239 -0.8694  1.3312
   16MOL    H9310023   3.008   2.944   0.012 -1.3298 -2.2543  0.6441
   16MOL    H9410024   3.084   2.876   7.477 -0.6070  0.4097 -0.4344
   16MOL    H9510025   2.979   3.022   7.424 -1.7386 -0.5357  1.0190
   16MOL    H9610026   3.134   3.183   7.509  0.7910  0.0588  0.2250
   16MOL    H9710027   3.229   3.053   7.583 -0.9616  2.4644  2.1094
   16MOL    H9810028   3.322   2.983   7.364  1.7424  0.7717  1.2820
   16MOL    H9910029   3.321   3.162   7.377 -1.0700  0.9477 -1.0005
   16MOL   H10010030   3.209   3.080   7.274 -1.3000  0.7324  1.1170
   16MOL   C10110031   3.059   2.336   0.367  0.2700  0.3022  0.4136
   16MOL   C10210032   3.191   2.416   0.399 -0.4031  0.7987 -0.8526
   16MOL   C10310033   3.294   2.416   0.283 -0.6620 -0.3824 -0.3922
   16MOL   C10410034   3.346   2.273   0.243 -0.5419 -0.8534 -0.0886
   16MOL   C10510035   3.430   2.262   0.115 -0.3316  0.2983  0.1339
   16MOL   C10610036   3.376   2.339   7.696  0.6648 -0.2086 -0.1555
   16MOL   C10710037   3.448   2.323   7.558  0.3965 -0.2110  0.6742
   16MOL   C10810038   3.355   2.363   7.439 -0.0554 -0.2033 -0.4620
   16MOL   C10910039   3.355   2.515   7.403  0.3696  0.2011 -0.3757
   16MOL   C11010040   3.292   2.541   7.257  0.0570  0.4739  0.5997
   16MOL   C11110041   3.306   2.682   7.205 -0.4471  0.2793 -0.7307
   16MOL   H11210042   2.988   2.357   0.447  1.0368  1.3091  0.8337
   16MOL   H11310043   3.083   2.231   0.383 -0.8218 -0.1703 -0.9661
   16MOL   H11410044   3.173   2.523   0.392 -2.0899  0.6129  0.4367
   16MOL   H11510045   3.263   2.471   0.194  0.0601 -0.0023 -0.4154
   16MOL   H11610046   3.378   2.472   0.325 -0.4446 -1.6869  0.9480
   16MOL   H11710047   3.410   2.232   0.322  0.5556  0.6399 -0.1749
   16MOL   H11810048   3.260   2.208   0.230 -0.3741 -1.7263  2.7610
   16MOL   H11910049   3.531   2.301   0.127 -0.9445  1.9178  0.2308
   16MOL   H12010050   3.449   2.157   0.093 -0.7705  0.1567  0.4142
   16MOL   H12110051   3.271   2.309   7.688  0.4817  0.3777  0.0640
   16MOL   H12210052   3.350   2.443   0.013  0.9018 -0.0620 -0.5815
   16MOL   H12310053   3.463   2.217   7.537 -2.3782 -0.8255  1.4905
   16MOL   H12410054   3.543   2.374   7.575  0.3144  0.1077  0.1958
   16MOL   H12510055   3.392   2.308   7.352 -0.1337 -0.9497 -0.0282
   16MOL   H12610056   3.253   2.328   7.458 -0.1801  0.1052 -0.5540
   16MOL   H12710057   3.297   2.575   7.473  0.8385 -1.8931  1.8928
   16MOL   H12810058   3.453   2.562   7.415  1.0229 -1.9252  3.4862
   16MOL   H12910059   3.185   2.525   7.261  0.0641  0.0070 -0.8673
   16MOL   H13010060   3.329   2.475   7.178  1.1514  1.3339  0.3852
   16MOL   H13110061   3.272   2.751   7.283 -1.5063 -0.5567 -0.4420
   16MOL   H13210062   3.410   2.711   7.194 -0.8617  2.3718  0.5581
   16MOL   H13310063   3.257   2.695   7.108  0.5931 -0.0345 -1.3016
   16MOL   C13410064   3.253   2.392   0.544  0.0458 -0.0264 -0.0725
   16MOL   C13510065   3.157   2.415   0.664  0.3026 -0.6006 -0.7637
   16MOL   C13610066   3.109   2.562   0.676 -0.4073  0.3419 -0.3389
   16MOL   C13710067   3.220   2.664   0.699  0.1854 -0.4069 -0.2422
   16MOL   C13810068   3.184   2.796   0.773 -0.5648 -0.1138  0.1485
   16MOL   C13910069   3.291   2.904   0.785 -0.0236 -0.0198  0.0876
   16MOL   C14010070   3.252   3.014   0.881 -0.5845  0.6208  0.1679
   16MOL   C14110071   3.366   3.113   0.905 -0.2156 -0.0211  0.4490
   16MOL   C14210072   3.488   3.056   0.989  0.0259  0.2361 -0.0163
   16MOL   C14310073   3.584   3.169   0.992 -0.1186 -0.4473  0.5489
   16MOL   C14410074   3.703   3.129   1.081 -0.2306 -0.4808 -0.2961
   16MOL   H14510075   3.273   2.284   0.544 -2.0633 -0.4562 -2.4650
   16MOL   H14610076   3.346   2.447   0.555  0.1626 -0.0943 -0.6893
   16MOL   H14710077   3.069   2.350   0.658  0.4942 -1.0271  0.6117
   16MOL   H14810078   3.026   2.572   0.746 -0.1533 -0.5289  0.0971
   16MOL   H14910079   3.059   2.571   0.579  1.7391 -2.9422 -1.8492
   16MOL   H15010080   3.302   2.625   0.760 -0.6878  1.4658  2.2250
   16MOL   H15110081   3.274   2.694   0.609 -0.2538 -0.1666 -0.4315
   16MOL   H15210082   3.099   2.835   0.718  0.1965 -0.0897 -1.0209
   16MOL   H15310083   3.137   2.768   0.868 -0.3375  0.8070  0.5311
   16MOL   H15410084   3.372   2.850   0.835  0.9576  1.4585  0.1082
   16MOL   H15510085   3.317   2.941   0.686 -0.6847  0.4411  0.0856
   16MOL   H15610086   3.167   3.069   0.841  1.3590  0.9946 -3.6506
   16MOL   H15710087   3.238   2.968   0.979 -1.3934  0.6438  0.0631
   16MOL   H15810088   3.403   3.157   0.812  2.5573 -1.0206  1.0177
   16MOL   H15910089   3.318   3.202   0.946 -0.7082  0.6271 -1.4763
   16MOL   H16010090   3.443   3.031   1.085  0.1351  0.5800  0.1221
   16MOL   H16110091   3.531   2.969   0.938  1.8161  1.4694 -0.6502
   16MOL   H16210092   3.620   3.206   0.896 -1.3699 -3.0285 -0.9773
   16MOL   H16310093   3.522   3.247   1.035 -0.7653 -1.1868  0.9717
   16MOL   H16410094   3.659   3.092   1.174 -2.5266 -0.4809 -1.3354
   16MOL   H16510095   3.766   3.214   1.106  2.0214 -2.3016  0.4527
   16MOL   H16610096   3.767   3.047   1.048  0.3055  0.3608 -1.3415
   16MOL   C16710097   3.219   2.363   0.802  0.1539  0.3459  0.0153
   16MOL   C16810098   3.213   2.207   0.812  0.5489 -0.8106 -0.1797
   16MOL   C16910099   3.096   2.154   0.894  0.0659  0.1144  0.2273
   16MOL   C17010100   3.086   2.176   1.051 -0.0109  0.2109 -0.1101
   16MOL   C17110101   2.952   2.143   1.107 -0.1450  0.2828 -0.1793
   16MOL   C17210102   2.941   2.208   1.247 -0.3697  0.3631  0.4006
   16MOL   C17310103   2.802   2.183   1.312 -0.0031 -0.1124 -0.3934
   16MOL   C17410104   2.783   2.270   1.443  0.6425  0.2249 -0.7267
   16MOL   C17510105   2.646   2.275   1.502 -0.5064 -0.0780  0.1230
   16MOL   C17610106   2.616   2.370   1.625  0.1122  0.4992  0.0757
   16MOL   C17710107   2.470   2.408   1.644 -0.7458 -0.2265  0.6140
   16MOL   H17810108   3.319   2.395   0.829  1.5138 -1.7307 -2.3389
   16MOL   H17910109   3.166   2.410   0.885  0.8896  2.0118 -0.4351
   16MOL   H18010110   3.207   2.156   0.715 -2.3554  2.1973 -1.6701
   16MOL   H18110111   3.091   2.046   0.879  1.5502 -0.1503  1.5164
   16MOL   H18210112   3.004   2.188   0.846 -0.7888 -1.4708  0.6749
   16MOL   H18310113   3.168   2.123   1.100  0.4309 -0.2496 -1.3414
   16MOL   H18410114   3.097   2.284   1.062 -2.2542  0.2607  2.5196
   16MOL   H18510115   2.946   2.034   1.110 -1.5884  0.3852  1.9860
   16MOL   H18610116   2.874   2.190   1.047  0.5378  0.0073 -1.2848
   16MOL   H18710117   3.013   2.186   1.325  0.1509  1.4168  0.2243
   16MOL   H18810118   2.952   2.316   1.232  0.6980  0.1250 -0.6333
   16MOL   H18910119   2.796   2.082   1.352 -2.0836  1.1897  2.7447
   16MOL   H19010120   2.723   2.198   1.238 -0.2396  0.1631 -0.0878
   16MOL   H19110121   2.856   2.250   1.521 -1.1866  0.1496  1.0260
   16MOL   H19210122   2.797   2.373   1.413  2.1162 -0.0122 -0.9021
   16MOL   H19310123   2.616   2.173   1.526  3.0162 -0.5260  3.2803
   16MOL   H19410124   2.576   2.300   1.423  0.7665  0.4850 -0.8419
   16MOL   H19510125   2.677   2.459   1.610  0.1056 -0.0387 -3.5544
   16MOL   H19610126   2.639   2.333   1.725 -0.0120  0.2112 -0.0007
   16MOL   H19710127   2.444   2.494   1.582 -2.2042 -0.3187  1.0766
   16MOL   H19810128   2.446   2.437   1.746 -1.2881 -0.6850  0.6208
   16MOL   H19910129   2.397   2.329   1.624 -0.8924  0.6049 -2.4439
   16MOL   C20010130   3.349   2.151   0.859  0.4181  0.4499 -0.5737
   16MOL   C20110131   3.474   2.158   0.760  0.1286 -0.4597 -0.0630
   16MOL   C20210132   3.540   2.019   0.740  0.3915 -0.7338 -0.3813
   16MOL   C20310133   3.447   1.923   0.669 -0.4496 -0.0423 -0.2568
   16MOL   C20410134   3.509   1.791   0.622  0.1757 -0.2793  0.0621
   16MOL   C20510135   3.567   1.709   0.740 -0.0170  0.4256 -0.0313
   16MOL   C20610136   3.634   1.573   0.725  0.2047  0.2740  0.4731
   16MOL   C20710137   3.768   1.566   0.645 -0.2802 -0.2590 -0.7559
   16MOL   C20810138   3.822   1.419   0.639 -1.3897  0.4122  0.6455
   16MOL   C20910139   3.929   1.413   0.532  0.3747  0.1177  0.0993
   16MOL   C21010140   3.987   1.273   0.519  0.0914 -0.2286  0.3367
   16MOL   H21110141   3.368   2.199   0.955 -2.4921 -0.3188  0.4395
   16MOL   H21210142   3.324   2.048   0.883 -2.2726  0.8678 -1.3370
   16MOL   H21310143   3.452   2.193   0.659 -1.1422 -1.0772  0.0009
   16MOL   H21410144   3.557   1.985   0.842 -1.2832  0.4015  0.2930
   16MOL   H21510145   3.633   2.013   0.684  0.6806  1.0915 -0.1064
   16MOL   H21610146   3.396   1.974   0.588 -1.3268 -0.7596 -0.1593
   16MOL   H21710147   3.361   1.896   0.731  0.5302 -0.5920  0.8899
   16MOL   H21810148   3.593   1.797   0.554 -0.2317 -1.6724 -0.5826
   16MOL   H21910149   3.432   1.734   0.570 -0.2651  0.1257  0.2676
   16MOL   H22010150   3.628   1.767   0.808  0.1785  1.4004 -1.0279
   16MOL   H22110151   3.478   1.686   0.798 -1.5589  2.8825 -1.3388
   16MOL   H22210152   3.559   1.508   0.680  0.1714  0.4195  0.3197
   16MOL   H22310153   3.657   1.539   0.826 -1.5640 -0.4699  0.6458
   16MOL   H22410154   3.849   1.622   0.692 -0.3466  0.5531 -1.5862
   16MOL   H22510155   3.749   1.604   0.545  0.3792 -1.0735 -1.1982
   16MOL   H22610156   3.747   1.343   0.621 -0.2661 -0.4476 -0.5114
   16MOL   H22710157   3.855   1.402   0.742  0.8136  0.8051  0.0412
   16MOL   H22810158   3.895   1.441   0.433 -0.0918 -0.1967  0.1673
   16MOL   H22910159   3.995   1.494   0.565 -1.8127  2.3755 -0.9127
   16MOL   H23010160   4.054   1.263   0.604  0.9414  0.9633 -0.1694
   16MOL   H23110161   4.043   1.260   0.426  1.1520  0.5544  0.8638
   16MOL   H23210162   3.907   1.198   0.517 -0.7747  0.6872  0.3787
   16MOL   C23310163   3.581   2.244   0.817 -0.1790  0.1208 -0.4601
   16MOL   C23410164   3.698   2.291   0.730  0.0062 -0.5103  0.6960
   16MOL   C23510165   3.822   2.324   0.812  0.2396 -0.5806  0.0264
   16MOL   C23610166   3.810   2.448   0.895 -0.6499 -0.4411 -0.1369
   16MOL   C23710167   3.938   2.505   0.953  0.7346 -0.2613 -0.1221
   16MOL   C23810168   3.922   2.610   1.070  0.5762 -0.4024 -0.4867
   16MOL   C23910169   4.052   2.654   1.133 -0.0352  0.6446 -0.3532
   16MOL   C24010170   4.040   2.752   1.249 -0.0916 -0.2725 -0.1988
   16MOL   C24110171   4.172   2.777   1.316 -0.2937 -0.7803  0.2035
   16MOL   C24210172   4.158   2.862   1.445  0.1817 -0.4679  0.2541
   16MOL   C24310173   4.298   2.872   1.508 -0.5371  0.5478 -0.3682
   16MOL   H24410174   3.623   2.199   0.907  1.6734  1.3078 -0.7022
   16MOL   H24510175   3.529   2.333   0.852  2.8436  1.5704  0.4234
   16MOL   H24610176   3.735   2.202   0.677  1.5185 -0.5826  1.8453
   16MOL   H24710177   3.840   2.242   0.882  1.1147 -2.3887 -2.2392
   16MOL   H24810178   3.900   2.324   0.735 -2.4506  0.2830 -2.7722
   16MOL   H24910179   3.743   2.425   0.978  0.3116  2.2096  1.4478
   16MOL   H25010180   3.775   2.525   0.826 -1.4128 -0.9229 -0.2934
   16MOL   H25110181   3.991   2.547   0.867  0.0511  0.0803 -0.3821
   16MOL   H25210182   3.998   2.426   0.999  0.9240  0.1170  0.2867
   16MOL   H25310183   3.857   2.557   1.140 -0.4442  0.3387 -0.8500
   16MOL   H25410184   3.868   2.697   1.032 -1.0506 -0.4594  1.5465
   16MOL   H25510185   4.101   2.560   1.156  1.7026  1.1849 -1.7302
   16MOL   H25610186   4.115   2.699   1.056 -0.5034 -1.6995 -2.1550
   16MOL   H25710187   3.992   2.842   1.211  0.6859  0.3761  0.3415
   16MOL   H25810188   3.972   2.706   1.320  0.2134 -2.7078 -1.3907
   16MOL   H25910189   4.217   2.683   1.347  1.5591 -0.2708 -0.9134
   16MOL   H26010190   4.243   2.822   1.247 -3.2839  2.1097 -1.1180
   16MOL   H26110191   4.077   2.827   1.510 -1.2268  0.4145 -0.9970
   16MOL   H26210192   4.126   2.965   1.429 -0.4786 -1.1749 -3.2087
   16MOL   H26310193   4.290   2.924   1.603 -1.1563  0.3175 -0.2902
   16MOL   H26410194   4.370   2.932   1.452  0.0029  1.7136  1.5156
   16MOL   H26510195   4.347   2.780   1.538  0.0163  0.7700 -0.5757
   16MOL   C26610196   3.645   2.389   0.615 -0.5381  0.4995 -0.5247
   16MOL   C26710197   3.753   2.456   0.532  0.8033 -0.4710 -0.4287
   16MOL   C26810198   3.692   2.564   0.435 -0.2640 -0.2919 -0.9408
   16MOL   C26910199   3.599   2.666   0.506 -0.5744 -1.2860 -0.2555
   16MOL   C27010200   3.653   2.742   0.626 -0.3695 -0.2751 -0.2101
   16MOL   C27110201   3.782   2.809   0.599  0.0974  0.1369 -0.0533
   16MOL   C27210202   3.815   2.893   0.724  0.3784  0.0778 -0.1291
   16MOL   C27310203   3.921   3.003   0.700  0.6452  0.2702 -0.0466
   16MOL   C27410204   3.980   3.054   0.832  0.0301 -0.0545  0.8231
   16MOL   C27510205   4.075   2.956   0.901  0.1098 -0.5567 -0.2400
   16MOL   C27610206   4.203   2.932   0.827  0.4884  0.0747 -0.0619
   16MOL   H27710207   3.573   2.450   0.670 -0.3654  1.1907 -1.0521
   16MOL   H27810208   3.584   2.341   0.538  0.0580  0.0714 -0.7333
   16MOL   H27910209   3.819   2.515   0.595 -0.8684  2.1650 -1.0692
   16MOL   H28010210   3.774   2.608   0.377  1.1009 -1.2325  0.2341
   16MOL   H28110211   3.636   2.519   0.353  0.0913 -4.4961  0.9912
   16MOL   H28210212   3.516   2.603   0.537 -2.0927  1.4533  1.4403
   16MOL   H28310213   3.567   2.745   0.437 -0.9190 -1.3224 -0.1366
   16MOL   H28410214   3.661   2.664   0.702  1.0495  0.5320  0.4930
   16MOL   H28510215   3.577   2.811   0.663 -0.5792 -1.8118  2.3286
   16MOL   H28610216   3.769   2.879   0.517 -0.3832  1.2510  0.9584
   16MOL   H28710217   3.864   2.740   0.578  0.7010  0.7661  0.2270
   16MOL   H28810218   3.726   2.952   0.745  0.2127  0.9431 -3.1302
   16MOL   H28910219   3.824   2.828   0.811  0.0219  0.6606  0.3493
   16MOL   H29010220   3.874   3.087   0.648 -0.9296  1.0634  2.5325
   16MOL   H29110221   3.992   2.962   0.630 -2.4495 -2.0869 -1.9374
   16MOL   H29210222   4.035   3.148   0.821 -1.2128  0.6426  0.4801
   16MOL   H29310223   3.893   3.072   0.895 -0.6081 -1.3181  0.3284
   16MOL   H29410224   4.018   2.864   0.917 -1.8904  0.6473 -0.3449
   16MOL   H29510225   4.096   2.991   1.002 -1.0675 -0.1257 -0.1421
   16MOL   H29610226   4.263   2.862   0.885  1.7496 -0.1945 -1.6319
   16MOL   H29710227   4.277   3.013   0.823  0.4667  0.0393 -1.5130
   16MOL   H29810228   4.198   2.897   0.724  0.7223 -1.6878  0.5212
   16MOL   C29910229   3.837   2.350   0.452 -0.5883 -0.0533  0.1188
   16MOL   C30010230   3.971   2.412   0.399 -0.3126  0.0918 -0.6918
   16MOL   C30110231   4.010   2.336   0.266 -0.2171 -0.1787 -0.0653
   16MOL   C30210232   3.939   2.385   0.137  0.7800 -0.1043  0.5415
   16MOL   C30310233   3.973   2.294   0.014 -0.5145  0.0674 -0.0381
   16MOL   C30410234   3.908   2.334   7.587  0.4984 -0.6716  0.8769
   16MOL   C30510235   3.969   2.272   7.464 -0.2154  0.4517 -0.1450
   16MOL   C30610236   3.895   2.300   7.332  0.4636 -0.4442  1.0255
   16MOL   C30710237   3.890   2.451   7.292 -0.2800 -0.5729 -0.3076
   16MOL   C30810238   3.823   2.479   7.158  0.6668 -0.3015 -0.0025
   16MOL   C30910239   3.668   2.503   7.179 -0.0025  0.1044 -0.0607
   16MOL   H31010240   3.773   2.321   0.369 -0.5525 -1.6258  0.6209
   16MOL   H31110241   3.865   2.266   0.516 -0.3672  1.1078  1.5923
   16MOL   H31210242   3.952   2.518   0.379  3.2999  1.2939  1.5901
   16MOL   H31310243   4.117   2.335   0.244 -0.3177 -1.1650 -0.5482
   16MOL   H31410244   3.991   2.231   0.291  1.3726 -1.2356 -3.0289
   16MOL   H31510245   3.834   2.387   0.163  1.1212  0.7632  1.9136
   16MOL   H31610246   3.975   2.487   0.118 -0.9319  0.3760 -0.2125
   16MOL   H31710247   4.080   2.294   7.697 -0.5196 -0.3984 -0.0648
   16MOL   H31810248   3.935   2.195   0.038 -0.1092  0.3021  1.6811
   16MOL   H31910249   3.897   2.442   7.578 -0.7404 -0.8613 -0.1447
   16MOL   H32010250   3.803   2.306   7.590 -0.0934  1.2863 -0.3207
   16MOL   H32110251   4.073   2.302   7.448 -0.6289  2.1426  0.2331
   16MOL   H32210252   3.984   2.165   7.476  2.6107  1.0282  1.7944
   16MOL   H32310253   3.797   2.253   7.343 -0.2105  0.6918 -0.0398
   16MOL   H32410254   3.951   2.248   7.254  0.6127  0.7592  0.3309
   16MOL   H32510255   3.991   2.491   7.284  1.5527 -5.0870 -1.2087
   16MOL   H32610256   3.837   2.510   7.367  0.8715  0.9809 -0.6746
   16MOL   H32710257   3.839   2.395   7.091  0.0866  0.9428 -1.7397
   16MOL   H32810258   3.878   2.550   7.097  1.6433 -0.0135  1.1869
   16MOL   H32910259   3.651   2.578   7.256  1.4673 -2.7715  3.1965
   16MOL   H33010260   3.620   2.539   7.088  0.5771  3.2565  0.8305
   16MOL   H33110261   3.600   2.422   7.206  0.9569 -0.4438  0.7610
   16MOL   C33210262   4.082   2.418   0.516 -0.0257 -0.3993  0.2643
   16MOL   C33310263   4.228   2.460   0.483  0.0581  0.8213 -0.6135
   16MOL   C33410264   4.329   2.422   0.589  1.0587 -0.0650 -0.3809
   16MOL   C33510265   4.301   2.486   0.728  0.6826  0.6159 -0.4230
   16MOL   C33610266   4.428   2.498   0.818  0.6551 -0.4408  0.7022
   16MOL   C33710267   4.418   2.566   0.957 -0.7347  0.3478  0.0656
   16MOL   C33810268   4.558   2.587   1.022  0.1663 -0.6902  0.2411
   16MOL   C33910269   4.550   2.647   1.168 -0.3660  0.2713 -0.5715
   16MOL   C34010270   4.673   2.610   1.250  0.2023  0.2807  0.2576
   16MOL   C34110271   4.673   2.665   1.393  0.3244  0.7223 -0.6699
   16MOL   C34210272   4.669   2.817   1.413 -0.4394  0.1575  0.2892
   16MOL   H34310273   4.048   2.482   0.597  0.5437 -0.5665  0.6368
   16MOL   H34410274   4.091   2.314   0.549 -2.2970 -0.7518 -0.1407
   16MOL   H34510275   4.260   2.399   0.398 -1.1555  1.1836 -1.3339
   16MOL   H34610276   4.428   2.455   0.557  0.6553  1.4389 -0.1058
   16MOL   H34710277   4.339   2.314   0.579 -2.5889 -0.5074  0.1473
   16MOL   H34810278   4.264   2.587   0.714 -0.8295  0.1033 -0.2630
   16MOL   H34910279   4.219   2.443   0.786  1.3850 -0.7446 -0.4077
   16MOL   H35010280   4.468   2.398   0.834 -0.5939 -0.8747  1.1935
   16MOL   H35110281   4.504   2.554   0.764 -0.2904 -0.3114 -0.5169
   16MOL   H35210282   4.370   2.495   1.024 -0.5601 -0.5295 -0.7249
   16MOL   H35310283   4.371   2.664   0.951  1.8925  1.6579 -0.0066
   16MOL   H35410284   4.615   2.657   0.961 -1.3946  0.2584 -0.1601
   16MOL   H35510285   4.612   2.493   1.025 -0.7219 -1.2949 -1.9502
   16MOL   H35610286   4.537   2.755   1.166  0.7130  0.4528  1.5439
   16MOL   H35710287   4.462   2.607   1.219 -0.3288  0.6389 -0.2183
   16MOL   H35810288   4.766   2.640   1.201  0.2448 -2.1410 -1.2537
   16MOL   H35910289   4.673   2.501   1.256 -1.0926  0.2698  0.0329
   16MOL   H36010290   4.764   2.638   1.446 -0.7922 -0.6969  0.5629
   16MOL   H36110291   4.591   2.614   1.444  0.0676  1.1055 -0.6956
   16MOL   H36210292   4.702   2.850   1.511 -1.2087 -1.5249  1.1339
   16MOL   H36310293   4.737   2.867   1.343  2.0304 -2.5788  0.6283
   16MOL   H36410294   4.570   2.856   1.392 -0.8685 -0.4821  1.1240
   16MOL   C36510295   4.234   2.601   0.436 -0.6486 -0.6037 -0.7149
   16MOL   C36610296   4.341   2.626   0.326 -0.3011 -0.1637 -0.1573
   16MOL   C36710297   4.282   2.595   0.188  0.0273  0.9218 -0.4023
   16MOL   C36810298   4.166   2.686   0.142  0.4282 -0.2105 -0.4621
   16MOL   C36910299   4.149   2.663   7.694  0.7787 -0.0019 -0.8676
   16MOL   C37010300   4.035   2.759   7.637  0.3918 -0.1767 -0.1401
   16MOL   C37110301   4.016   2.747   7.482  0.0669 -0.1643 -0.2385
   16MOL   C37210302   4.022   2.882   7.413 -0.4876 -0.5347 -0.0217
   16MOL   C37310303   4.165   2.957   7.426  0.0667  0.4336 -0.5058
   16MOL   C37410304   4.168   3.088   7.349  0.2906  0.1633  0.2045
   16MOL   C37510305   4.297   3.170   7.370  0.5232 -0.2679 -0.6504
   16MOL   H37610306   4.143   2.634   0.386 -1.3214  0.9957  1.4644
   16MOL   H37710307   4.253   2.667   0.521  1.5079  0.7773 -2.2376
   16MOL   H37810308   4.421   2.551   0.334 -0.1267 -0.2971 -2.8325
   16MOL   H37910309   4.244   2.493   0.191  2.5707 -0.1136 -1.6202
   16MOL   H38010310   4.367   2.597   0.120 -1.0938 -1.5593 -1.9498
   16MOL   H38110311   4.206   2.785   0.165  0.6593 -0.1862 -0.9761
   16MOL   H38210312   4.070   2.676   0.194  0.7024 -3.4094 -0.4765
   16MOL   H38310313   4.118   2.562   7.665 -0.6997  0.5314 -1.2025
   16MOL   H38410314   4.245   2.681   7.647  1.6684 -0.7174  0.6479
   16MOL   H38510315   4.053   2.862   7.665 -0.9151 -0.4194  1.6540
   16MOL   H38610316   3.942   2.742   7.692  0.9768 -0.6939  0.6906
   16MOL   H38710317   4.099   2.687   7.446  2.0569  1.3382  1.7507
   16MOL   H38810318   3.918   2.712   7.448 -0.5983  2.5013 -1.2380
   16MOL   H38910319   3.949   2.954   7.451  1.5795  2.4331 -1.4203
   16MOL   H39010320   4.004   2.862   7.308  0.6264 -1.3936 -0.0601
   16MOL   H39110321   4.194   2.968   7.530  0.0879  1.6874 -0.6361
   16MOL   H39210322   4.234   2.882   7.385 -1.5588 -1.6277  0.4412
   16MOL   H39310323   4.152   3.073   7.243 -0.0469  0.4790  0.2067
   16MOL   H39410324   4.080   3.148   7.375 -2.8366 -4.8816  1.9383
   16MOL   H39510325   4.294   3.226   7.464 -1.7332  1.0800 -1.4838
   16MOL   H39610326   4.296   3.242   7.288 -1.4039  0.7055  0.1952
   16MOL   H39710327   4.374   3.093   7.361  0.3706 -0.0953 -3.7514
   16MOL   C39810328   4.399   2.764   0.337 -0.5660  0.2971 -0.8503
   16MOL   C39910329   4.520   2.776   0.429 -0.0567  0.0957  0.5884
   16MOL   C40010330   4.536   2.922   0.483  0.1677 -0.4907 -0.5748
   16MOL   C40110331   4.589   3.036   0.390 -0.1615 -0.6747  0.1029
   16MOL   C40210332   4.638   3.155   0.474  0.8291  0.3201 -0.0153
   16MOL   C40310333   4.644   3.283   0.396 -0.3005 -0.2335  0.1206
   16MOL   C40410334   4.719   3.393   0.475 -0.0264 -0.2138  0.1422
   16MOL   C40510335   4.733   3.533   0.402 -0.0964 -0.0479  0.2723
   16MOL   C40610336   4.848   3.544   0.294  0.4899  0.1209 -0.7375
   16MOL   C40710337   4.903   3.687   0.282  0.6387  0.2581  0.6562
   16MOL   C40810338   5.024   3.697   0.183  0.3907  0.0334 -0.9420
   16MOL   H40910339   4.325   2.833   0.378  0.7758  1.6580 -0.6547
   16MOL   H41010340   4.424   2.791   0.234 -0.9729  1.1004 -0.7400
   16MOL   H41110341   4.490   2.721   0.517  1.5719  1.1252  1.8187
   16MOL   H41210342   4.598   2.907   0.572  0.0497 -1.7337 -0.7035
   16MOL   H41310343   4.443   2.968   0.519  0.6137 -0.1727  0.2026
   16MOL   H41410344   4.668   2.998   0.325  0.4068 -0.0510  0.4226
   16MOL   H41510345   4.508   3.076   0.329 -0.1010  0.3405  0.6824
   16MOL   H41610346   4.563   3.164   0.553  1.2399  0.9660  0.3102
   16MOL   H41710347   4.733   3.123   0.518  0.3069 -1.7055 -0.3205
   16MOL   H41810348   4.540   3.304   0.370 -0.1571 -2.2689 -2.2669
   16MOL   H41910349   4.689   3.257   0.301  0.4035 -0.8377  0.6103
   16MOL   H42010350   4.664   3.412   0.567  0.4872 -2.7538  1.0239
   16MOL   H42110351   4.817   3.353   0.501 -0.2589 -0.7876  0.1495
   16MOL   H42210352   4.747   3.606   0.481  0.6894 -0.5823  0.6390
   16MOL   H42310353   4.637   3.552   0.355 -0.2689  2.6725  1.6589
   16MOL   H42410354   4.922   3.470   0.326 -1.5946 -1.4344  0.6067
   16MOL   H42510355   4.809   3.508   0.199 -0.4031 -2.2899  0.5099
   16MOL   H42610356   4.938   3.704   0.384  2.0912  0.6074  0.1090
   16MOL   H42710357   4.819   3.747   0.246  2.1671  0.9832 -1.8201
   16MOL   H42810358   5.101   3.630   0.222  0.4544  0.8787  0.4156
   16MOL   H42910359   5.067   3.797   0.182  0.2479  0.3047  4.6560
   16MOL   H43010360   5.003   3.663   0.082  0.5792 -0.8211 -0.6980
   16MOL   C43110361   4.653   2.734   0.363 -0.3759 -0.2786 -0.2741
   16MOL   C43210362   4.772   2.715   0.455  0.0544 -0.2175 -0.7557
   16MOL   C43310363   4.912   2.703   0.383 -0.4801 -0.4816 -0.0582
   16MOL   C43410364   4.970   2.826   0.315 -0.0827  1.1182  0.0136
   16MOL   C43510365   4.999   2.945   0.415 -0.2277 -0.5353  0.0073
   16MOL   C43610366   5.087   3.053   0.362 -0.2757  0.2863 -0.5778
   16MOL   C43710367   5.026   3.155   0.277  0.0021  0.5421  0.2068
   16MOL   C43810368   5.128   3.239   0.199 -0.2952  0.6049 -0.2828
   16MOL   C43910369   5.070   3.309   0.080 -0.4408 -0.0875  0.1409
   16MOL   C44010370   5.070   3.224   7.659 -0.0597 -0.5875  0.2941
   16MOL   C44110371   4.991   3.296   7.556  0.7040  0.3377  0.6515
   16MOL   H44210372   4.673   2.803   0.281 -0.9765 -0.3162 -0.4534
   16MOL   H44310373   4.638   2.648   0.299  0.2918  0.7092 -1.8028
   16MOL   H44410374   4.766   2.787   0.536  0.3752 -0.0965 -0.8409
   16MOL   H44510375   4.987   2.681   0.459  1.2718 -0.5233 -1.7642
   16MOL   H44610376   4.910   2.620   0.313 -0.7866 -1.2003  0.7920
   16MOL   H44710377   4.903   2.856   0.235 -1.3944  1.0601  1.0786
   16MOL   H44810378   5.063   2.790   0.270 -0.1258  1.7618 -0.5942
   16MOL   H44910379   5.047   2.894   0.499 -2.3066  0.1677  1.6744
   16MOL   H45010380   4.906   2.990   0.451 -1.0544 -2.4147  0.3133
   16MOL   H45110381   5.169   3.004   0.310 -2.2034 -1.6415 -1.8599
   16MOL   H45210382   5.136   3.109   0.442 -1.1166  2.5584 -1.6258
   16MOL   H45310383   4.954   3.222   0.324 -0.1933  0.5865 -0.1529
   16MOL   H45410384   4.963   3.101   0.206 -2.3146  2.2036  0.9317
   16MOL   H45510385   5.165   3.310   0.272 -1.9291 -0.5884  1.7574
   16MOL   H45610386   5.206   3.169   0.168  0.2635  0.7389  0.7916
   16MOL   H45710387   5.127   3.400   0.065 -0.1235 -0.6335 -2.1312
   16MOL   H45810388   4.967   3.338   0.101 -1.3225 -3.1831  0.4620
   16MOL   H45910389   5.025   3.126   7.677  0.4845 -0.6685  1.2568
   16MOL   H46010390   5.170   3.205   7.620  0.5280  1.9686  0.4923
   16MOL   H46110391   4.963   3.225   7.477  0.9594 -0.0109  0.8728
   16MOL   H46210392   4.898   3.328   7.602  1.0360 -2.1912  3.2422
   16MOL   H46310393   5.042   3.384   7.517  1.4642  0.1859  1.3054
   16MOL   C46410394   4.750   2.570   0.525  0.1663  0.1666  0.7880
   16MOL   C46510395   4.836   2.532   0.646 -0.5539 -0.0233  0.2646
   16MOL   C46610396   4.798   2.612   0.772  0.4139  0.1206  0.4084
   16MOL   C46710397   4.887   2.720   0.818 -0.2290 -0.8360  0.0790
   16MOL   C46810398   5.021   2.670   0.886  0.0234 -0.1800 -0.0944
   16MOL   C46910399   5.118   2.779   0.928 -0.0610  0.1652 -0.1351
   16MOL   C47010400   5.068   2.847   1.061 -0.1922  0.9220  0.4173
   16MOL   C47110401   5.102   2.759   1.183  0.5195 -0.1317 -0.8549
   16MOL   C47210402   5.076   2.828   1.314  0.3034 -0.1869 -0.4508
   16MOL   C47310403   5.120   2.741   1.431  0.2725  0.0582  0.0460
   16MOL   C47410404   5.092   2.795   1.572 -0.5196  0.7448 -0.9104
   16MOL   H47510405   4.767   2.493   0.449  0.9907  0.5953  0.5257
   16MOL   H47610406   4.646   2.559   0.554  0.1982 -1.2856  0.4162
   16MOL   H47710407   4.939   2.544   0.613 -0.3692  0.1379  0.8936
   16MOL   H47810408   4.783   2.552   0.862 -0.9505 -1.2846 -0.7378
   16MOL   H47910409   4.702   2.661   0.758 -0.2126 -1.0989  0.4376
   16MOL   H48010410   4.924   2.778   0.734  0.1215  1.1964  1.5926
   16MOL   H48110411   4.831   2.789   0.881  0.9339  0.3913 -0.2130
   16MOL   H48210412   5.070   2.620   0.803 -0.9096 -0.8163 -0.2790
   16MOL   H48310413   4.995   2.595   0.961 -2.0237 -1.6868 -2.2194
   16MOL   H48410414   5.221   2.743   0.934  0.5927  1.9762 -0.1419
   16MOL   H48510415   5.109   2.859   0.855 -1.8522  0.5102  0.4331
   16MOL   H48610416   5.132   2.935   1.074 -0.3140  1.0141  0.4071
   16MOL   H48710417   4.968   2.890   1.064  0.2150  2.1245 -2.3475
   16MOL   H48810418   5.057   2.660   1.180 -0.0514  0.0986 -0.0530
   16MOL   H48910419   5.208   2.734   1.179 -0.0808 -3.2037  1.4013
   16MOL   H49010420   5.127   2.924   1.325  1.2528 -0.6050 -1.1376
   16MOL   H49110421   4.969   2.848   1.314  0.2912 -0.2552 -0.0493
   16MOL   H49210422   5.070   2.644   1.422 -1.0306  0.7830 -0.5952
   16MOL   H49310423   5.226   2.717   1.419  0.2704 -0.6047  1.3029
   16MOL   H49410424   5.137   2.894   1.574  2.1880 -0.4644 -0.0407
   16MOL   H49510425   5.135   2.724   1.642  1.0194  0.4470 -2.1169
   16MOL   H49610426   4.985   2.813   1.581 -0.5230 -0.6642  2.7124
   16MOL   C49710427   4.824   2.377   0.654  0.2013  0.4934 -0.1711
   16MOL   C49810428   4.903   2.302   0.761 -0.0455  0.3423  0.1868
   16MOL   C49910429   5.061   2.319   0.753 -0.5809  0.1751  0.5319
   16MOL   C50010430   5.128   2.300   0.886 -0.5854  0.6519  0.2543
   16MOL   C50110431   5.282   2.313   0.896 -0.2688  0.2455 -0.1404
   16MOL   C50210432   5.339   2.287   1.033  0.0456  0.4445  0.3030
   16MOL   C50310433   5.320   2.397   1.138 -0.1231 -0.0280  0.4704
   16MOL   C50410434   5.378   2.353   1.272 -0.2201 -0.0063  0.1736
   16MOL   C50510435   5.350   2.455   1.385  0.0031  0.0970  0.7508
   16MOL   C50610436   5.413   2.395   1.516  0.0477  0.0795 -0.0727
   16MOL   C50710437   5.367   2.459   1.646  0.3874 -0.4830 -0.1597
   16MOL   H50810438   4.720   2.358   0.682  0.8762 -3.8041 -0.4015
   16MOL   H50910439   4.834   2.322   0.561 -1.9640 -1.1999  0.5388
   16MOL   H51010440   4.874   2.344   0.857 -0.9266 -0.8540  0.4543
   16MOL   H51110441   5.084   2.420   0.719  3.2902 -1.1204 -0.8869
   16MOL   H51210442   5.084   2.250   0.672 -2.0664  0.8567 -0.4977
   16MOL   H51310443   5.102   2.201   0.924  1.7936 -0.1033 -0.0086
   16MOL   H51410444   5.089   2.367   0.962 -0.4930  0.3226  0.5930
   16MOL   H51510445   5.341   2.240   0.841  0.1803  0.0568  0.5812
   16MOL   H51610446   5.315   2.414   0.872 -2.2414  1.5468  2.3748
   16MOL   H51710447   5.284   2.202   1.072 -1.8784  0.7133 -1.7572
   16MOL   H51810448   5.442   2.251   1.025 -0.0251  0.8116 -2.5455
   16MOL   H51910449   5.374   2.486   1.106  0.2871  0.2266  1.8162
   16MOL   H52010450   5.217   2.430   1.151 -0.8021 -2.0428  0.3652
   16MOL   H52110451   5.485   2.338   1.258 -0.7163 -1.4936 -2.1674
   16MOL   H52210452   5.336   2.258   1.301  0.3243  0.5944  3.0821
   16MOL   H52310453   5.242   2.469   1.399 -0.0907 -0.2503  0.3701
   16MOL   H52410454   5.399   2.551   1.370  3.3990 -1.3671  2.1174
   16MOL   H52510455   5.521   2.386   1.503  0.1923  1.3918  0.1994
   16MOL   H52610456   5.384   2.290   1.528 -0.8672  0.5385  1.8442
   16MOL   H52710457   5.385   2.398   1.734  0.0537 -1.2898 -0.6450
   16MOL   H52810458   5.263   2.491   1.638  0.6555  0.1012 -1.5831
   16MOL   H52910459   5.418   2.553   1.665 -0.8082 -0.1546  1.5476
   16MOL   C53010460   4.873   2.149   0.760  0.3608  0.3322 -0.0839
   16MOL   C53110461   4.731   2.099   0.815  0.4441  0.2468  0.2499
   16MOL   C53210462   4.722   2.120   0.969 -0.0324  0.2999 -0.2747
   16MOL   C53310463   4.582   2.109   1.022  0.0556  0.4836  0.0907
   16MOL   C53410464   4.560   2.159   1.174 -0.6010 -0.2620 -0.8425
   16MOL   C53510465   4.429   2.220   1.204  0.4315  0.6391  0.6140
   16MOL   C53610466   4.432   2.317   1.318 -0.0172 -0.0108 -0.3099
   16MOL   C53710467   4.294   2.383   1.352  0.4511 -0.0272 -0.6699
   16MOL   C53810468   4.283   2.424   1.501 -0.3249 -0.7430  0.5227
   16MOL   C53910469   4.142   2.472   1.544  0.3644 -0.1645 -0.1466
   16MOL   C54010470   4.131   2.529   1.688  0.8151 -0.1857  0.6408
   16MOL   H54110471   4.868   2.107   0.660 -3.2756 -1.7686  0.8643
   16MOL   H54210472   4.942   2.086   0.815  0.8426  1.6975  0.8972
   16MOL   H54310473   4.662   2.165   0.762 -1.7649  1.0223  3.9366
   16MOL   H54410474   4.763   2.219   0.993  1.5049 -0.6174  0.9776
   16MOL   H54510475   4.786   2.053   1.026 -0.2776 -0.6139 -1.0680
   16MOL   H54610476   4.539   2.010   1.006 -1.2098  1.0013  0.2268
   16MOL   H54710477   4.506   2.163   0.966  0.0950  2.0685  1.5417
   16MOL   H54810478   4.640   2.223   1.211  1.0149 -0.3970 -3.8999
   16MOL   H54910479   4.574   2.071   1.236 -0.6348 -0.6825 -1.4256
   16MOL   H55010480   4.354   2.143   1.225  0.9128  0.3688  1.3793
   16MOL   H55110481   4.399   2.280   1.118  0.9101 -1.0198 -0.7351
   16MOL   H55210482   4.498   2.394   1.278 -0.0976 -0.0381 -0.4943
   16MOL   H55310483   4.474   2.261   1.402 -1.1615  0.0393  0.3184
   16MOL   H55410484   4.215   2.308   1.341  1.1898 -1.1509  1.4757
   16MOL   H55510485   4.268   2.464   1.284 -0.8429 -1.7499 -2.2714
   16MOL   H55610486   4.357   2.502   1.521 -0.7460 -0.6575  1.8351
   16MOL   H55710487   4.311   2.333   1.555 -0.1346 -1.0577 -0.1117
   16MOL   H55810488   4.074   2.387   1.544 -1.5359  1.3095  0.5650
   16MOL   H55910489   4.102   2.540   1.468  1.5269  0.2225 -0.4235
   16MOL   H56010490   4.028   2.562   1.706  1.1704  2.7086 -2.0864
   16MOL   H56110491   4.161   2.465   1.771 -0.1977 -2.3006 -0.5943
   16MOL   H56210492   4.181   2.625   1.704 -1.0244  0.6069  1.9705
   16MOL   C56310493   4.709   1.949   0.779  0.5729 -0.3983 -0.4918
   16MOL   C56410494   4.660   1.928   0.632  0.4946 -0.3400 -0.2927
   16MOL   C56510495   4.510   1.982   0.616  0.0554  0.3255 -0.2504
   16MOL   C56610496   4.480   2.005   0.468 -0.1265 -0.4308  0.0155
   16MOL   C56710497   4.542   2.128   0.400  0.2778 -0.0141  0.4982
   16MOL   C56810498   4.460   2.165   0.278  0.1804  0.4450  0.0729
   16MOL   C56910499   4.533   2.284   0.204  0.5257  0.1791  0.3803
   16MOL   C57010500   4.480   2.290   0.065 -0.5291  0.0215  0.1744
   16MOL   C57110501   4.535   2.393   7.679 -0.7499 -0.5600  0.3796
   16MOL   C57210502   4.441   2.422   7.559 -0.3002 -0.4808  0.1926
   16MOL   C57310503   4.503   2.517   7.459  0.0657  0.3322 -0.0275
   16MOL   H57410504   4.644   1.903   0.854  0.1136  1.7170  0.4427
   16MOL   H57510505   4.805   1.898   0.787  0.8687  0.3593  0.9855
   16MOL   H57610506   4.722   1.983   0.562  1.9835 -0.1899  1.1280
   16MOL   H57710507   4.482   2.069   0.675 -0.0736  0.1430 -0.0415
   16MOL   H57810508   4.441   1.906   0.653  0.9403 -1.5716 -2.3682
   16MOL   H57910509   4.372   2.011   0.463 -0.1190 -1.0608 -0.9899
   16MOL   H58010510   4.503   1.919   0.405  1.8748  0.0402  0.0436
   16MOL   H58110511   4.647   2.107   0.383  0.2436  0.8662 -0.8807
   16MOL   H58210512   4.554   2.206   0.475 -4.4403 -0.4300  1.8377
   16MOL   H58310513   4.444   2.071   0.226 -2.3780  0.6729  0.3871
   16MOL   H58410514   4.359   2.197   0.304 -0.4764  1.0151 -2.9631
   16MOL   H58510515   4.531   2.379   0.258 -0.2198 -0.0557  0.7741
   16MOL   H58610516   4.639   2.258   0.196  0.2260 -0.4452 -1.7502
   16MOL   H58710517   4.372   2.304   0.061 -0.7027 -1.3874 -0.4516
   16MOL   H58810518   4.488   2.193   0.014  0.6309 -0.3629  1.0534
   16MOL   H58910519   4.627   2.349   7.639 -0.5722 -0.5848  0.8203
   16MOL   H59010520   4.533   2.483   0.036 -1.2707 -2.1869  2.8541
   16MOL   H59110521   4.343   2.457   7.591 -0.2928 -0.5104  0.2464
   16MOL   H59210522   4.417   2.333   7.501 -1.0614 -1.3201  1.7431
   16MOL   H59310523   4.592   2.474   7.412 -0.0940  2.3175 -2.2436
   16MOL   H59410524   4.433   2.527   7.377 -0.4220 -1.5342  0.1271
   16MOL   H59510525   4.535   2.608   7.509  1.5729 -0.6253  0.8234
   16MOL   C59610526   4.677   1.780   0.601 -0.2663  0.1546  0.1647
   16MOL   C59710527   4.810   1.720   0.560  0.1556  0.5218  0.3816
   16MOL   C59810528   4.898   1.787   0.460  0.3280  0.3450 -0.2683
   16MOL   C59910529   4.836   1.843   0.324 -0.0186 -0.1477  0.6241
   16MOL   C60010530   4.935   1.932   0.253  0.1037 -0.1793 -0.4799
   16MOL   C60110531   4.867   2.007   0.141  0.5531 -0.2162 -0.2201
   16MOL   C60210532   4.964   2.107   0.074 -0.3555  0.0169  0.1470
   16MOL   C60310533   4.890   2.189   7.676  0.0088  0.2707  0.7305
   16MOL   C60410534   4.978   2.291   7.589  0.2003 -0.2534  0.1978
   16MOL   C60510535   4.917   2.436   7.560  0.1272 -0.5198  0.0580
   16MOL   C60610536   5.021   2.522   7.482 -0.0455  0.0545  0.5080
   16MOL   H60710537   4.640   1.704   0.669 -0.7848 -2.7070 -3.1549
   16MOL   H60810538   4.617   1.757   0.513  0.5455 -0.4287 -0.2483
   16MOL   H60910539   4.862   1.709   0.655 -2.7835  1.5478  2.1861
   16MOL   H61010540   4.988   1.727   0.447 -0.2125 -1.0792  2.1673
   16MOL   H61110541   4.932   1.870   0.522  0.2153 -0.6261  1.1331
   16MOL   H61210542   4.753   1.908   0.351  1.2322  1.0889  1.5813
   16MOL   H61310543   4.798   1.766   0.257  0.1992 -0.0460  0.3816
   16MOL   H61410544   5.023   1.874   0.226  2.2843  3.5596 -1.8372
   16MOL   H61510545   4.972   2.002   0.329  0.5995 -0.6873 -0.2543
   16MOL   H61610546   4.828   1.935   0.070  1.6035 -0.1862 -0.8405
   16MOL   H61710547   4.793   2.068   0.194 -0.8450 -1.2093 -1.0171
   16MOL   H61810548   5.053   2.049   0.048 -0.2682  0.0167  0.4414
   16MOL   H61910549   4.999   2.187   0.140  0.3147  0.8825 -1.2417
   16MOL   H62010550   4.819   2.253   0.026  1.4760  0.7056  2.1796
   16MOL   H62110551   4.839   2.141   7.592 -0.3841  0.3146  0.9426
   16MOL   H62210552   5.076   2.295   7.638  0.4003  1.9824 -0.3176
   16MOL   H62310553   5.000   2.239   7.496 -1.9599 -1.7534  0.4954
   16MOL   H62410554   4.877   2.483   7.650  1.5645  0.4807  0.1964
   16MOL   H62510555   4.827   2.419   7.499  0.0290 -1.2594  0.4009
   16MOL   H62610556   4.967   2.610   7.447 -0.9898  0.2367  2.3464
   16MOL   H62710557   5.096   2.575   7.541 -1.2466  0.4985  1.6560
   16MOL   H62810558   5.070   2.473   7.398 -0.6640  2.2895 -1.2122
   16MOL   C62910559   4.808   1.568   0.518 -0.2674 -0.0057  0.1897
   16MOL   C63010560   4.718   1.513   0.401 -0.3486 -0.3107 -0.4541
   16MOL   C63110561   4.575   1.471   0.441  0.9355 -0.0178 -0.1798
   16MOL   C63210562   4.511   1.405   0.323 -0.6127 -0.2492 -0.3491
   16MOL   C63310563   4.359   1.364   0.337  0.2283 -0.0772 -0.0309
   16MOL   C63410564   4.266   1.472   0.389 -0.2357  0.0984  0.0358
   16MOL   C63510565   4.247   1.590   0.291 -0.1390  0.2808  0.7333
   16MOL   C63610566   4.119   1.673   0.318  0.0428 -0.8373 -0.0642
   16MOL   C63710567   4.133   1.831   0.284 -0.5384 -0.0183 -0.4129
   16MOL   C63810568   4.180   1.861   0.141  0.3709 -0.4013  0.2367
   16MOL   C63910569   4.153   2.005   0.096 -0.0550  0.0628 -0.2120
   16MOL   H64010570   4.911   1.539   0.496 -0.4365 -0.3517 -0.1405
   16MOL   H64110571   4.786   1.512   0.609 -0.2280  2.2231  1.6163
   16MOL   H64210572   4.710   1.589   0.324 -2.3471 -0.9216 -0.8768
   16MOL   H64310573   4.571   1.397   0.521  1.5484  0.7833  0.6014
   16MOL   H64410574   4.527   1.555   0.491  1.2287 -1.3662  2.4116
   16MOL   H64510575   4.564   1.315   0.294  0.7214  0.4599 -0.1774
   16MOL   H64610576   4.509   1.467   0.233  0.6845 -0.4921 -0.5471
   16MOL   H64710577   4.348   1.289   0.416  3.4487 -0.6297 -0.0360
   16MOL   H64810578   4.319   1.326   0.243  0.4366  3.1901 -1.5041
   16MOL   H64910579   4.290   1.511   0.488  1.3481  0.3280 -0.4379
   16MOL   H65010580   4.167   1.426   0.398 -0.9627  1.7248  0.4042
   16MOL   H65110581   4.250   1.551   0.189  3.6747 -0.9685  1.2205
   16MOL   H65210582   4.333   1.656   0.291  0.2579 -0.2270  1.3343
   16MOL   H65310583   4.102   1.662   0.425 -0.3545  1.1859  0.1075
   16MOL   H65410584   4.032   1.636   0.262  1.1583 -1.4463 -1.4270
   16MOL   H65510585   4.209   1.872   0.350 -1.3951  1.2294 -0.1629
   16MOL   H65610586   4.049   1.897   0.310 -0.6901  0.6980 -2.6014
   16MOL   H65710587   4.137   1.782   0.078 -0.2005 -0.9821  1.3498
   16MOL   H65810588   4.288   1.848   0.141  0.3247 -0.8111 -0.3396
   16MOL   H65910589   4.220   2.070   0.154  0.4028  1.1058 -1.8727
   16MOL   H66010590   4.051   2.036   0.116  0.0645  0.5078 -0.2811
   16MOL   H66110591   4.172   2.025   7.694 -0.3783  0.9794 -0.1015
   16MOL   H66210592   4.781   1.435   0.357 -0.9137 -1.4585  0.7149
   17MOL     C110593   6.655   0.401   1.130 -0.7739  0.0675 -0.2695
   17MOL     C210594   6.650   0.344   0.990 -0.0517 -0.5647  0.6822
   17MOL     C310595   6.794   0.314   0.944  0.1449 -0.1534  0.2419
   17MOL     C410596   6.811   0.315   0.798  0.4392  0.6532  0.2576
   17MOL     C510597   6.959   0.318   0.755 -0.3507  0.5232 -0.0942
   17MOL     C610598   7.038   0.188   0.767 -0.1791 -0.1703 -0.0597
   17MOL     C710599   6.965   0.059   0.715 -0.4748 -0.2455 -0.4716
   17MOL     C810600   7.066   7.654   0.680  0.6392  0.3907 -0.1234
   17MOL     C910601   7.127   7.679   0.544 -0.3790 -0.0598  0.9560
   17MOL    C1010602   7.050   7.678   0.412 -0.3835  0.5534  0.9811
   17MOL    C1110603   6.969   7.551   0.397  0.1412 -0.4705  0.2372
   17MOL    H1210604   6.720   0.489   1.133 -0.3635 -0.2606  0.8171
   17MOL    H1310605   6.690   0.330   1.205 -1.5812 -0.3146 -0.2536
   17MOL    H1410606   6.622   0.431   0.930  0.4042 -1.1888 -0.4448
   17MOL    H1510607   6.805   0.215   0.988  0.6974 -1.0622 -1.8940
   17MOL    H1610608   6.878   0.365   0.992  0.0829 -0.0737  0.2638
   17MOL    H1710609   6.756   0.396   0.751  0.5809  0.5830 -0.0276
   17MOL    H1810610   6.760   0.231   0.751  3.3947 -1.2448  0.3138
   17MOL    H1910611   6.962   0.346   0.650 -1.0160 -1.9436 -0.8034
   17MOL    H2010612   7.008   0.399   0.810  1.2162  0.7000 -1.6803
   17MOL    H2110613   7.044   0.172   0.875 -3.9128 -3.1037 -0.1508
   17MOL    H2210614   7.138   0.205   0.728 -0.5603 -0.6259 -1.2710
   17MOL    H2310615   6.891   0.023   0.786  1.2572 -0.5248  1.2267
   17MOL    H2410616   6.915   0.100   0.627 -0.8585  0.7892  0.2285
   17MOL    H2510617   7.024   7.554   0.671  1.7280 -0.0074 -0.7982
   17MOL    H2610618   7.140   7.642   0.759  0.7531  0.8303 -0.1638
   17MOL    H2710619   7.203   7.605   0.519 -1.2359 -0.9433  0.9619
   17MOL    H2810620   7.182   0.070   0.547 -0.0411 -0.1862 -0.6975
   17MOL    H2910621   7.124   7.678   0.332 -1.4409  1.0127 -0.0208
   17MOL    H3010622   6.991   0.067   0.406 -0.3111  0.4840 -1.0153
   17MOL    H3110623   6.931   7.556   0.295 -0.2855 -0.6085  0.3863
   17MOL    H3210624   7.028   7.460   0.401  1.4152  0.2654 -1.4316
   17MOL    H3310625   6.882   7.535   0.462 -0.4065  0.5225 -0.2266
   17MOL    H3410626   6.560   0.441   1.165 -1.2480  0.7292 -2.2386
   17MOL    C3510627   6.555   0.231   0.969  0.5626  0.3641 -0.0448
   17MOL    C3610628   6.403   0.270   0.966 -0.8020  0.2628 -0.3716
   17MOL    C3710629   6.359   0.340   0.839 -0.2999  0.2384  0.3835
   17MOL    C3810630   6.385   0.264   0.711  0.0050 -0.2115 -0.0414
   17MOL    C3910631   6.277   0.288   0.612 -0.2300 -0.4196 -0.5027
   17MOL    C4010632   6.305   0.205   0.489 -0.2260  0.2778  0.3254
   17MOL    C4110633   6.193   0.222   0.385  0.0404  0.3663  0.2821
   17MOL    C4210634   6.217   0.164   0.245  0.3414  0.5655  0.2187
   17MOL    C4310635   6.102   0.178   0.149 -0.5427 -0.4456  0.3058
   17MOL    C4410636   6.130   0.103   0.019 -0.5487  0.5203  0.4033
   17MOL    C4510637   6.149   7.651   0.036  0.2223  1.3147  0.3300
   17MOL    H4610638   6.573   0.164   1.054  1.3168 -1.2063 -1.4139
   17MOL    H4710639   6.577   0.172   0.880  0.9319 -1.7710  1.4009
   17MOL    H4810640   6.386   0.341   1.048 -0.7618  1.5900 -1.4913
   17MOL    H4910641   6.257   0.379   0.848 -0.3183 -0.1292  1.8299
   17MOL    H5010642   6.405   0.438   0.829  1.6410 -0.6465  0.3842
   17MOL    H5110643   6.382   0.157   0.733  1.8944 -0.6656 -1.7804
   17MOL    H5210644   6.488   0.293   0.690 -0.3229  0.2353 -1.0509
   17MOL    H5310645   6.280   0.395   0.591  2.8568 -0.5807 -1.1801
   17MOL    H5410646   6.182   0.260   0.656 -0.2747  3.1749  1.9485
   17MOL    H5510647   6.297   0.102   0.522  1.4049  0.2884  0.7881
   17MOL    H5610648   6.402   0.224   0.443 -0.2440 -1.9225 -0.6891
   17MOL    H5710649   6.100   0.175   0.417  0.0356  0.1050 -0.1189
   17MOL    H5810650   6.164   0.326   0.375 -0.1803  0.2267 -0.5265
   17MOL    H5910651   6.241   0.058   0.254  0.1011  0.2427 -2.5102
   17MOL    H6010652   6.311   0.198   0.203  0.9755  0.6933  1.7125
   17MOL    H6110653   6.059   0.277   0.135 -1.2813 -0.7561  0.3447
   17MOL    H6210654   6.020   0.127   0.199 -1.3815  1.0474  0.4607
   17MOL    H6310655   6.050   0.117   7.649 -0.4383  1.0882  0.3957
   17MOL    H6410656   6.218   0.142   7.672 -1.6343  0.3731 -1.6941
   17MOL    H6510657   6.252   7.638   0.070  0.3025 -0.7735 -0.6363
   17MOL    H6610658   6.074   7.592   0.088 -0.2078 -0.1611 -1.8787
   17MOL    H6710659   6.147   7.612   7.637 -0.0851 -0.0909  0.8673
   17MOL    C6810660   6.302   0.153   0.996  0.0244  0.0200 -0.3591
   17MOL    C6910661   6.262   0.121   1.142  0.4565  0.1476 -0.1179
   17MOL    C7010662   6.186   0.237   1.213  0.1732 -0.3459  0.5378
   17MOL    C7110663   6.041   0.254   1.169 -0.5546 -0.1591  1.0146
   17MOL    C7210664   5.986   0.373   1.243 -0.3695 -0.1574 -0.5611
   17MOL    C7310665   5.852   0.401   1.185  0.0956 -0.4451  0.3242
   17MOL    C7410666   5.786   0.526   1.238 -0.3756  0.2062 -0.3315
   17MOL    C7510667   5.651   0.553   1.172 -0.5155 -1.0324 -0.3833
   17MOL    C7610668   5.588   0.680   1.219  0.1549  0.3493 -0.1860
   17MOL    C7710669   5.453   0.720   1.150 -0.1590 -0.6950  0.9226
   17MOL    C7810670   5.472   0.831   1.053  0.1501 -0.1951 -0.0103
   17MOL    H7910671   6.364   0.069   0.964 -1.3347 -1.7841  1.6101
   17MOL    H8010672   6.216   0.157   0.929  0.3235 -0.0667 -0.7527
   17MOL    H8110673   6.359   0.112   1.191  1.3246  0.6573 -1.7063
   17MOL    H8210674   6.247   0.327   1.204 -0.6878 -0.0399 -2.6819
   17MOL    H8310675   6.175   0.216   1.319 -1.5686 -2.2201  0.0308
   17MOL    H8410676   6.027   0.280   1.064 -0.0771 -1.1226  0.7062
   17MOL    H8510677   5.984   0.165   1.192  1.3318 -1.4564  0.8019
   17MOL    H8610678   6.038   0.467   1.227 -1.4399  0.3130 -1.3780
   17MOL    H8710679   5.982   0.347   1.349  1.5869 -0.0881 -0.4638
   17MOL    H8810680   5.859   0.420   1.078 -1.9001  0.5801  0.3567
   17MOL    H8910681   5.782   0.319   1.202  0.9468 -1.1543  0.4195
   17MOL    H9010682   5.851   0.611   1.218  0.7698 -0.5244  0.1931
   17MOL    H9110683   5.773   0.525   1.346  0.9509  1.3680 -0.1407
   17MOL    H9210684   5.666   0.547   1.064  1.3549 -2.3742 -0.0927
   17MOL    H9310685   5.570   0.484   1.193 -0.5669 -0.8880 -0.1138
   17MOL    H9410686   5.576   0.685   1.328 -1.1882  1.3217 -0.3644
   17MOL    H9510687   5.659   0.755   1.187  0.5918 -0.4927 -1.2045
   17MOL    H9610688   5.389   0.647   1.100  0.8052 -0.8545 -0.0911
   17MOL    H9710689   5.394   0.765   1.230  1.1319 -0.8450  1.9773
   17MOL    H9810690   5.554   0.812   0.984  2.6629  3.7218  1.7244
   17MOL    H9910691   5.498   0.932   1.087 -0.0413 -0.2016  0.1566
   17MOL   H10010692   5.377   0.842   0.999 -1.1292 -1.8793  1.8689
   17MOL   C10110693   6.184   7.695   1.163  0.0843 -0.4781 -0.0054
   17MOL   C10210694   6.248   7.561   1.119  0.1130 -0.8115 -0.2883
   17MOL   C10310695   6.130   7.462   1.094  0.1586 -0.4461  0.1265
   17MOL   C10410696   6.161   7.317   1.054 -0.4207  0.0533 -0.2551
   17MOL   C10510697   6.201   7.283   0.908  0.2547  0.5744 -0.3526
   17MOL   C10610698   6.121   7.343   0.804  0.6232 -0.4657  0.5769
   17MOL   C10710699   6.155   7.277   0.668  0.2437 -0.4020  0.8928
   17MOL   C10810700   6.066   7.348   0.558 -0.0501 -0.1340  0.3601
   17MOL   C10910701   6.025   7.264   0.438  0.1299  0.0357  0.4923
   17MOL   C11010702   5.942   7.342   0.330  0.4245  0.8631  0.5147
   17MOL   C11110703   5.928   7.260   0.202 -0.9549  0.3146  0.0332
   17MOL   H11210704   6.149   0.001   1.266  0.0946  0.8877 -0.1182
   17MOL   H11310705   6.092   0.002   1.105  0.6726  0.9539 -0.6952
   17MOL   H11410706   6.305   7.571   1.027 -0.2858  0.2260 -0.4220
   17MOL   H11510707   6.085   7.448   1.192 -1.8247  0.7994 -0.5763
   17MOL   H11610708   6.050   7.507   1.035 -0.8911 -1.9723  0.3425
   17MOL   H11710709   6.230   7.275   1.128 -0.0440  0.3193 -0.4574
   17MOL   H11810710   6.067   7.264   1.074 -0.9536  1.3110  0.6993
   17MOL   H11910711   6.302   7.323   0.898  0.7010  0.1025  1.8899
   17MOL   H12010712   6.200   7.175   0.896 -2.8010  0.6653 -1.2286
   17MOL   H12110713   6.013   7.332   0.819  1.0620 -2.1762  2.8426
   17MOL   H12210714   6.143   7.450   0.800  2.9866 -0.9503 -0.2593
   17MOL   H12310715   6.151   7.168   0.668  0.5540 -0.4631 -2.6402
   17MOL   H12410716   6.261   7.297   0.653  0.3658  0.2465  2.5067
   17MOL   H12510717   5.974   7.388   0.601  0.5124  2.9526 -1.1499
   17MOL   H12610718   6.118   7.439   0.528 -0.3460  0.5375  1.8376
   17MOL   H12710719   6.120   7.234   0.394  2.1438  1.8494  3.4339
   17MOL   H12810720   5.969   7.173   0.460 -0.8891  0.3610 -0.7129
   17MOL   H12910721   5.984   7.436   0.295  1.0988  1.0694  1.8665
   17MOL   H13010722   5.842   7.368   0.365 -0.7388 -3.8318  1.0726
   17MOL   H13110723   5.876   7.324   0.132 -0.6402 -1.4838 -1.9136
   17MOL   H13210724   6.024   7.222   0.166 -0.0358  0.0183  2.6706
   17MOL   H13310725   5.874   7.166   0.217 -1.2177  0.5274  0.4415
   17MOL   C13410726   6.349   7.510   1.223 -0.2009 -0.5044 -0.1958
   17MOL   C13510727   6.468   7.436   1.165  0.1072  0.2112  0.5734
   17MOL   C13610728   6.508   7.313   1.251 -0.2734  0.2982 -0.0302
   17MOL   C13710729   6.563   7.347   1.393 -0.6735 -1.0397  0.6526
   17MOL   C13810730   6.561   7.231   1.495  0.9757  0.3719  0.5114
   17MOL   C13910731   6.652   7.116   1.456  0.2914 -0.3656  0.3981
   17MOL   C14010732   6.636   6.984   1.529 -0.8461 -0.4522  0.0761
   17MOL   C14110733   6.644   6.994   1.682 -0.7346 -0.3545 -0.3815
   17MOL   C14210734   6.603   6.877   1.763  0.2942  0.5278 -0.8688
   17MOL   C14310735   6.676   6.746   1.723  0.2189 -0.2975  1.0785
   17MOL   C14410736   6.635   6.621   1.806  0.2575 -0.6600  0.0481
   17MOL   H14510737   6.382   7.594   1.284  0.8897 -1.1424  0.1064
   17MOL   H14610738   6.294   7.446   1.292 -1.4901  0.3582 -0.4037
   17MOL   H14710739   6.429   7.401   1.069 -0.1152  4.3007 -0.9505
   17MOL   H14810740   6.571   7.250   1.188 -2.9381 -2.1573 -0.3498
   17MOL   H14910741   6.414   7.258   1.257 -0.5373  0.5526 -1.6259
   17MOL   H15010742   6.668   7.370   1.377 -0.3154 -1.6766  2.0207
   17MOL   H15110743   6.513   7.438   1.427 -1.6479 -0.8658 -1.1598
   17MOL   H15210744   6.599   7.269   1.590  0.9987 -1.9424  1.4486
   17MOL   H15310745   6.458   7.197   1.492  1.3773 -1.0083  1.6360
   17MOL   H15410746   6.621   7.092   1.354  1.8035  0.4284 -0.2754
   17MOL   H15510747   6.759   7.138   1.463  0.5507 -1.7411  0.9729
   17MOL   H15610748   6.549   6.925   1.499 -0.5380 -1.1727  0.5793
   17MOL   H15710749   6.719   6.922   1.495 -0.8433 -0.2883 -0.2141
   17MOL   H15810750   6.743   7.031   1.710 -1.5372  1.0654  0.6729
   17MOL   H15910751   6.582   7.082   1.702 -0.1293 -0.0277  0.1146
   17MOL   H16010752   6.621   6.903   1.867  0.2294 -1.6090 -0.2994
   17MOL   H16110753   6.496   6.880   1.743 -0.1205  0.6125  1.3234
   17MOL   H16210754   6.670   6.716   1.618  2.0710  0.8114  0.6278
   17MOL   H16310755   6.783   6.770   1.722 -0.3501  2.4037 -0.1144
   17MOL   H16410756   6.637   6.652   1.910  2.1712  3.7870 -1.1926
   17MOL   H16510757   6.695   6.531   1.792  2.3513  0.3148  2.5313
   17MOL   H16610758   6.535   6.597   1.768  1.1250 -1.2230 -1.9596
   17MOL   C16710759   6.592   7.523   1.134 -0.3136  0.5518  0.1640
   17MOL   C16810760   6.697   7.474   1.025 -0.6970 -0.4813  0.6790
   17MOL   C16910761   6.646   7.433   0.886 -0.0617  0.2542 -0.2553
   17MOL   C17010762   6.587   7.553   0.810 -0.7959  0.0917  0.1588
   17MOL   C17110763   6.568   7.505   0.659 -0.6358 -0.4264 -0.1361
   17MOL   C17210764   6.521   7.610   0.562  0.3059  0.0262  0.5683
   17MOL   C17310765   6.518   7.568   0.409  0.4412  0.0244 -0.0957
   17MOL   C17410766   6.399   7.470   0.372  0.2835  0.0946 -0.4453
   17MOL   C17510767   6.418   7.404   0.237 -0.4660  0.4117 -0.3510
   17MOL   C17610768   6.288   7.330   0.196  0.6821  0.4186 -0.7447
   17MOL   C17710769   6.271   7.322   0.050  0.1390  0.1097 -1.5801
   17MOL   H17810770   6.556   7.618   1.095  0.2244  0.8935  0.5079
   17MOL   H17910771   6.633   7.539   1.233 -0.1563 -1.4175  0.4483
   17MOL   H18010772   6.753   7.567   1.016 -2.3572  0.8060  3.0452
   17MOL   H18110773   6.577   7.349   0.886  1.8571 -1.3637 -1.7862
   17MOL   H18210774   6.731   7.400   0.827  0.0216 -1.5763  0.8384
   17MOL   H18310775   6.504   7.592   0.868  1.2814  0.4508  2.9754
   17MOL   H18410776   6.663   7.630   0.798 -1.4719  0.5473 -1.3620
   17MOL   H18510777   6.494   7.428   0.641 -1.4955  0.0787  1.1822
   17MOL   H18610778   6.664   7.463   0.629 -1.1964 -0.7750 -1.4722
   17MOL   H18710779   6.427   7.657   0.593  0.4152  0.2843  0.5140
   17MOL   H18810780   6.591   7.694   0.570 -0.5962  0.9005 -0.4887
   17MOL   H18910781   6.615   7.523   0.388  0.9125  1.7146 -1.6939
   17MOL   H19010782   6.509   7.654   0.342 -0.3940  0.6178  0.7740
   17MOL   H19110783   6.397   7.391   0.447 -1.3860 -0.2269 -0.8130
   17MOL   H19210784   6.313   7.537   0.373  0.4307  0.3290 -1.9892
   17MOL   H19310785   6.506   7.339   0.241  0.5123  1.7419  0.2005
   17MOL   H19410786   6.431   7.482   0.161 -1.8228  1.8362  0.8295
   17MOL   H19510787   6.202   7.378   0.243  1.3045 -1.4322  2.4678
   17MOL   H19610788   6.282   7.226   0.230 -2.1560  0.7976  0.0742
   17MOL   H19710789   6.191   7.262   0.006 -2.9640  2.9417 -0.0390
   17MOL   H19810790   6.360   7.277   0.005 -0.5967 -1.5535 -1.4322
   17MOL   H19910791   6.257   7.417   7.703 -1.5833  0.5691 -0.2888
   17MOL   C20010792   6.799   7.374   1.081  0.3710  0.2556 -0.1808
   17MOL   C20110793   6.945   7.364   1.031 -0.5346  0.4987 -0.4810
   17MOL   C20210794   7.029   7.502   1.040  0.2316  0.3888 -0.0405
   17MOL   C20310795   7.028   7.546   1.185  0.2195 -0.1254  0.5768
   17MOL   C20410796   7.121   7.667   1.210  0.2394 -0.7808 -0.1709
   17MOL   C20510797   7.136   7.701   1.360 -0.9890 -0.8405 -0.4839
   17MOL   C20610798   7.207   0.125   1.381 -0.4827 -0.7737  0.0367
   17MOL   C20710799   7.203   0.171   1.531 -0.3709 -0.1742  0.1688
   17MOL   C20810800   7.286   0.291   1.564  0.1649  1.1107 -0.3832
   17MOL   C20910801   7.289   0.325   1.711  0.3037 -0.4168 -0.0363
   17MOL   C21010802   7.404   0.269   1.795  0.2850  1.0511 -0.1492
   17MOL   H21110803   6.793   7.377   1.190 -2.5393 -0.0164 -0.3042
   17MOL   H21210804   6.743   7.283   1.061 -0.8101  0.9007  0.1331
   17MOL   H21310805   6.984   7.292   1.103 -0.0478 -0.1494 -1.3855
   17MOL   H21410806   6.992   7.583   0.977  0.2630  1.2726  1.0578
   17MOL   H21510807   7.131   7.491   1.004  1.3943  1.0865  2.8744
   17MOL   H21610808   7.036   7.466   1.258 -0.0284 -0.0580  0.6764
   17MOL   H21710809   6.929   7.574   1.220  0.1031  0.6581 -0.3859
   17MOL   H21810810   7.079   0.046   1.153  0.1731 -1.9056 -1.7809
   17MOL   H21910811   7.220   7.641   1.170  1.3053  0.8973  1.3073
   17MOL   H22010812   7.050   7.697   1.427  0.2829  0.9022  1.3189
   17MOL   H22110813   7.209   7.628   1.396  1.3445  1.3354 -0.6877
   17MOL   H22210814   7.171   0.206   1.317  0.0183 -1.3256 -0.9684
   17MOL   H22310815   7.310   0.120   1.346 -0.4021  1.0721 -0.0242
   17MOL   H22410816   7.253   0.099   1.595  0.9012  1.2552  0.8241
   17MOL   H22510817   7.098   0.190   1.556 -0.2975  1.8340 -0.9524
   17MOL   H22610818   7.245   0.368   1.498  2.0317  0.5644 -2.2672
   17MOL   H22710819   7.391   0.284   1.534  0.2024 -0.7937  0.1638
   17MOL   H22810820   7.294   0.433   1.724  1.3138 -0.4713  0.0280
   17MOL   H22910821   7.197   0.294   1.762  0.5926 -2.6860 -0.8446
   17MOL   H23010822   7.502   0.304   1.762 -0.2897  1.6393 -1.2454
   17MOL   H23110823   7.392   0.162   1.806 -2.3414  1.2839 -0.5776
   17MOL   H23210824   7.391   0.303   1.898 -0.0353  0.0148  0.1526
   17MOL   C23310825   6.965   7.297   0.893  0.7085  0.4339  0.1370
   17MOL   C23410826   7.054   7.174   0.889  0.6187  0.4151  0.1144
   17MOL   C23510827   7.200   7.207   0.915 -0.3376  0.1165  0.3093
   17MOL   C23610828   7.295   7.107   0.980  0.3523 -0.5126 -0.1447
   17MOL   C23710829   7.437   7.162   0.998 -0.5658  0.3289 -0.0145
   17MOL   C23810830   7.525   7.067   1.076 -0.1405 -0.3382 -0.3080
   17MOL   C23910831   7.513   7.076   1.234  0.5326 -0.0140 -0.1775
   17MOL   C24010832   7.633   7.002   1.292 -0.4573  0.2716  0.3160
   17MOL   C24110833   7.667   7.021   1.439  0.7191  0.6504 -0.2067
   17MOL   C24210834   0.034   7.154   1.478 -0.6311  0.2643 -0.3825
   17MOL   C24310835   7.697   7.194   1.619 -0.2643  0.4267 -0.4105
   17MOL   H24410836   6.989   7.371   0.817 -0.5599  0.7847  0.0628
   17MOL   H24510837   6.868   7.257   0.865  1.1356 -0.1268 -0.5474
   17MOL   H24610838   7.020   7.118   0.976  0.6559  0.7730  0.3609
   17MOL   H24710839   7.246   7.229   0.819 -1.2902  1.1121  0.0747
   17MOL   H24810840   7.211   7.301   0.969  3.0818  0.2990 -0.5754
   17MOL   H24910841   7.293   7.007   0.936  3.1074  0.9312 -3.7951
   17MOL   H25010842   7.251   7.079   1.075 -2.2540  2.2146 -0.4579
   17MOL   H25110843   7.433   7.257   1.051  0.1973  1.4379 -1.8652
   17MOL   H25210844   7.475   7.182   0.897  1.4418 -1.1423  0.4251
   17MOL   H25310845   7.625   7.107   1.057 -0.6367  0.1028 -2.0398
   17MOL   H25410846   7.527   6.964   1.039 -0.6753 -2.5457  5.3561
   17MOL   H25510847   7.510   7.179   1.271  0.4715 -0.7627  1.9535
   17MOL   H25610848   7.420   7.033   1.271 -0.0554 -0.8633 -2.5330
   17MOL   H25710849   7.602   6.898   1.294 -0.6194  0.3408  1.6854
   17MOL   H25810850   0.020   7.017   1.233 -1.5570 -0.5335 -1.6186
   17MOL   H25910851   7.573   7.016   1.494  0.5391 -2.1112 -0.7266
   17MOL   H26010852   0.026   6.934   1.461  1.0153  1.0851  0.7273
   17MOL   H26110853   7.701   7.230   1.408 -2.1458 -1.1185 -1.1228
   17MOL   H26210854   0.142   7.144   1.469 -0.8139 -0.0802 -2.4857
   17MOL   H26310855   7.588   7.191   1.616 -0.2591  0.8141 -1.1800
   17MOL   H26410856   0.037   7.287   1.656  0.5443  0.1210 -0.5852
   17MOL   H26510857   0.019   7.124   1.698 -1.6714  0.7670  0.3592
   17MOL   C26610858   7.056   7.085   0.766 -0.3181 -0.2039 -0.2043
   17MOL   C26710859   6.922   7.032   0.720 -0.2704  1.0390  0.2396
   17MOL   C26810860   6.940   6.886   0.679  0.1520  0.6125  0.2842
   17MOL   C26910861   6.955   6.792   0.799  0.5273 -0.0554 -0.3601
   17MOL   C27010862   7.005   6.650   0.774  0.1932  0.3822 -0.5108
   17MOL   C27110863   6.990   6.558   0.897 -0.2873  0.9218 -0.0509
   17MOL   C27210864   7.018   6.410   0.868  0.2040  0.8743 -0.4571
   17MOL   C27310865   6.991   6.307   0.979  0.0365  1.1747  0.2500
   17MOL   C27410866   7.012   6.164   0.935 -0.3506  0.3056  0.2272
   17MOL   C27510867   7.018   6.071   1.059 -0.4566 -0.1095 -0.3708
   17MOL   C27610868   7.050   5.928   1.013 -0.4689 -0.0809 -0.1555
   17MOL   H27710869   7.132   7.008   0.778  0.1074 -0.2518 -2.8032
   17MOL   H27810870   7.094   7.140   0.680  1.0471 -3.4038 -1.6919
   17MOL   H27910871   6.847   7.044   0.797 -2.2774 -0.7128 -1.3476
   17MOL   H28010872   6.866   6.855   0.605 -0.8782  3.3679  0.0831
   17MOL   H28110873   7.036   6.869   0.631  0.2892 -1.1282  1.1414
   17MOL   H28210874   6.855   6.787   0.843  0.4501 -2.5285 -0.7708
   17MOL   H28310875   7.028   6.830   0.871 -1.5394 -1.1467  2.4001
   17MOL   H28410876   7.105   6.651   0.732 -0.5344  1.2149 -2.2846
   17MOL   H28510877   6.947   6.604   0.694 -0.5466 -0.0543  0.2656
   17MOL   H28610878   6.890   6.564   0.940  0.2405  0.3358  1.2985
   17MOL   H28710879   7.056   6.592   0.976 -0.5297  0.1126  0.5139
   17MOL   H28810880   6.975   6.378   0.773  1.3701 -2.0956 -0.0254
   17MOL   H28910881   7.123   6.396   0.841  0.9168 -1.0600  3.0247
   17MOL   H29010882   6.894   6.314   1.028  0.5110 -0.0731  1.3934
   17MOL   H29110883   7.059   6.349   1.052  1.3753 -0.3162 -0.1013
   17MOL   H29210884   6.929   6.130   0.873  1.1415 -2.2745 -0.4277
   17MOL   H29310885   7.103   6.142   0.880 -0.8372 -1.9151  0.2674
   17MOL   H29410886   6.918   6.074   1.102 -1.1322  0.3164 -1.9623
   17MOL   H29510887   7.093   6.104   1.132 -0.6794 -3.1338  1.3053
   17MOL   H29610888   7.153   5.932   0.979 -0.0175  0.7532  1.2706
   17MOL   H29710889   6.981   5.864   0.958 -1.8484 -0.5195  2.0328
   17MOL   H29810890   7.057   5.874   1.107 -0.8169  0.1241 -0.0107
   17MOL   C29910891   6.861   7.105   0.596  0.6325 -0.0492  0.4138
   17MOL   C30010892   6.712   7.085   0.550  0.7235 -0.1834  0.2938
   17MOL   C30110893   6.685   7.164   0.422  0.1219 -0.6542 -0.0707
   17MOL   C30210894   6.771   7.124   0.310 -0.5977  0.2276  0.2413
   17MOL   C30310895   6.725   7.180   0.180  0.4932  0.2287  0.4042
   17MOL   C30410896   6.768   7.322   0.157  0.0945 -0.6729 -0.0808
   17MOL   C30510897   6.708   7.382   0.023 -0.3731 -0.7966 -0.4438
   17MOL   C30610898   6.717   7.542   0.023  0.0485  0.1065  0.4368
   17MOL   C30710899   6.677   7.605   7.595 -0.5429 -0.1990  0.6723
   17MOL   C30810900   6.639   0.049   7.603 -0.3506 -0.7074 -0.0380
   17MOL   C30910901   6.510   0.074   7.667 -1.0200 -0.1258 -0.4076
   17MOL   H31010902   6.921   7.076   0.510 -0.0437  1.5308 -0.6221
   17MOL   H31110903   6.868   7.213   0.606 -2.2991  0.3522 -1.2671
   17MOL   H31210904   6.686   6.982   0.526 -1.7060  0.2173  1.0872
   17MOL   H31310905   6.580   7.142   0.400 -0.1527 -0.7926  1.3027
   17MOL   H31410906   6.708   7.269   0.439 -2.1603 -0.1827  0.3427
   17MOL   H31510907   6.876   7.146   0.329 -0.9758 -0.1041  3.0008
   17MOL   H31610908   6.757   7.017   0.298  1.7985 -0.0763 -0.1409
   17MOL   H31710909   6.774   7.119   0.104 -2.7707  0.4880 -1.9605
   17MOL   H31810910   6.620   7.158   0.161  0.7335 -2.7093  2.0776
   17MOL   H31910911   6.873   7.349   0.145 -0.4496  1.3936 -0.2925
   17MOL   H32010912   6.734   7.368   0.249  1.3260 -3.2183  1.6885
   17MOL   H32110913   6.771   7.355   7.641  2.1999 -1.2641  1.5156
   17MOL   H32210914   6.606   7.347   0.011 -0.7790 -0.1818  1.0497
   17MOL   H32310915   6.814   7.580   0.055  1.7990 -1.9072 -2.2645
   17MOL   H32410916   6.653   7.571   0.107  0.8315  1.8873  0.4283
   17MOL   H32510917   6.597   7.550   7.545  0.4689 -1.1317  0.0477
   17MOL   H32610918   6.757   7.601   7.522 -1.0739  2.1816 -0.0755
   17MOL   H32710919   6.629   0.083   7.500  1.6968 -0.1029 -0.0684
   17MOL   H32810920   6.714   0.107   7.657 -0.0041 -0.2174 -1.0249
   17MOL   H32910921   6.500   0.182   7.674 -2.8646 -0.3517  0.8559
   17MOL   H33010922   6.430   0.032   7.607 -0.7144  1.1722 -1.7449
   17MOL   H33110923   6.488   0.038   0.064 -0.0918 -0.2894 -0.2551
   17MOL   C33210924   6.616   7.134   0.666  0.3930 -0.0229 -0.3059
   17MOL   C33310925   6.537   7.014   0.728 -0.3840  0.2385  0.1243
   17MOL   C33410926   6.423   6.966   0.632  0.2702  0.1602  0.8275
   17MOL   C33510927   6.420   6.816   0.626  0.6376  0.0397 -0.4888
   17MOL   C33610928   6.324   6.764   0.519 -0.1992  0.4887  0.0086
   17MOL   C33710929   6.176   6.756   0.567  0.0178 -0.1960  0.2720
   17MOL   C33810930   6.144   6.659   0.690  0.1524 -0.1595  0.3802
   17MOL   C33910931   5.991   6.626   0.694 -0.5383  0.6554 -0.2786
   17MOL   C34010932   5.954   6.532   0.581 -0.0800  0.2695  0.9722
   17MOL   C34110933   5.798   6.516   0.568  0.7237 -0.0426 -0.0917
   17MOL   C34210934   5.767   6.429   0.443  0.1706  0.4466  0.2458
   17MOL   H34310935   6.671   7.184   0.746 -1.1872  2.7658 -0.9436
   17MOL   H34410936   6.551   7.213   0.631  1.4504  1.1425  0.3239
   17MOL   H34510937   6.612   6.934   0.730  0.0365  0.6274 -0.0352
   17MOL   H34610938   6.444   6.998   0.530  1.7121  1.1635  1.4111
   17MOL   H34710939   6.323   7.008   0.646  0.3400  2.3285 -3.9650
   17MOL   H34810940   6.517   6.773   0.602  1.4955  3.5465 -3.6982
   17MOL   H34910941   6.389   6.763   0.717  3.7709  0.6694  1.0115
   17MOL   H35010942   6.337   6.825   0.429  0.5388 -0.3057 -0.4333
   17MOL   H35110943   6.363   6.669   0.482  1.2213  0.9070  0.3867
   17MOL   H35210944   6.119   6.738   0.476  1.1395  1.8590 -0.8603
   17MOL   H35310945   6.158   6.861   0.593 -0.7948 -0.7679  2.1265
   17MOL   H35410946   6.166   6.706   0.785  2.7455 -0.1769 -0.1745
   17MOL   H35510947   6.205   6.569   0.680 -0.3972 -0.4152 -0.9057
   17MOL   H35610948   5.965   6.573   0.785 -1.3133 -1.2961 -1.5989
   17MOL   H35710949   5.934   6.719   0.686 -1.3289  0.0541 -1.8370
   17MOL   H35810950   6.003   6.435   0.593  1.7656  0.8583 -1.4953
   17MOL   H35910951   5.991   6.563   0.483  1.2269  0.4928  1.5252
   17MOL   H36010952   5.762   6.615   0.540 -1.1222 -1.0490 -1.3107
   17MOL   H36110953   5.749   6.477   0.658  2.3972  0.2121  0.9649
   17MOL   H36210954   5.810   6.329   0.453 -0.4507 -0.1154 -2.3191
   17MOL   H36310955   5.659   6.418   0.437  0.4359 -1.8421 -0.8872
   17MOL   H36410956   5.808   6.466   0.349  3.0414 -2.7802  0.0956
   17MOL   C36510957   6.499   7.047   0.868  0.3530  0.7706 -0.1515
   17MOL   C36610958   6.457   6.932   0.959  0.4221 -0.7039  0.6647
   17MOL   C36710959   6.575   6.833   0.998  0.7915  0.6809  0.2419
   17MOL   C36810960   6.689   6.894   1.071  0.2262 -0.0122  0.7649
   17MOL   C36910961   6.766   6.793   1.167  0.6423 -1.0205  0.0582
   17MOL   C37010962   6.877   6.856   1.251 -0.4258 -0.0451  0.0629
   17MOL   C37110963   6.934   6.752   1.346 -0.3500 -0.6307 -0.2772
   17MOL   C37210964   7.071   6.796   1.413 -0.0296  0.4573  0.3474
   17MOL   C37310965   7.112   6.699   1.524 -0.1041 -0.6861 -0.7047
   17MOL   C37410966   7.219   6.765   1.616  0.2194 -0.5183 -0.2275
   17MOL   C37510967   7.273   6.670   1.725 -0.2034  0.3955  0.0836
   17MOL   H37610968   6.582   7.089   0.924  0.9840 -1.2781  0.4908
   17MOL   H37710969   6.422   7.123   0.856  1.1474  1.6288  0.1798
   17MOL   H37810970   6.383   6.878   0.898  0.3683  0.3679 -0.2312
   17MOL   H37910971   6.605   6.783   0.906 -0.7815  2.0932 -1.0678
   17MOL   H38010972   6.531   6.747   1.050  2.3226  0.8998  1.9289
   17MOL   H38110973   6.670   6.987   1.124  2.9425  0.3789  1.1319
   17MOL   H38210974   6.761   6.921   0.994  0.2220  0.3742  0.8987
   17MOL   H38310975   6.799   6.717   1.097 -0.5913 -1.5783  0.0660
   17MOL   H38410976   6.698   6.733   1.226  0.2260  1.2463  1.9480
   17MOL   H38510977   6.840   6.936   1.315 -1.0581 -0.0172 -0.3376
   17MOL   H38610978   6.953   6.900   1.187  0.3604 -0.5219  0.6528
   17MOL   H38710979   6.865   6.723   1.425 -0.8765 -1.4032 -1.0103
   17MOL   H38810980   6.947   6.661   1.288 -0.1451 -0.0933 -1.0779
   17MOL   H38910981   7.051   6.891   1.463 -0.1922  1.3407 -1.3493
   17MOL   H39010982   7.151   6.822   1.343  1.2140  0.9574  1.9065
   17MOL   H39110983   7.027   6.681   1.589  0.8563  1.6076  1.3027
   17MOL   H39210984   7.158   6.609   1.484 -0.8979 -1.0038 -0.9052
   17MOL   H39310985   7.303   6.819   1.572  0.9883 -0.3376  1.4118
   17MOL   H39410986   7.150   6.839   1.655 -0.9106 -1.6617 -0.0053
   17MOL   H39510987   7.194   6.633   1.790  0.5608  0.6815  1.1863
   17MOL   H39610988   7.344   6.718   1.792 -0.5467  1.3449 -0.2185
   17MOL   H39710989   7.318   6.580   1.683  1.4302  0.9560  0.6011
   17MOL   C39810990   6.383   6.978   1.087 -0.4080 -0.5246 -0.3563
   17MOL   C39910991   6.297   6.871   1.179  0.5734 -0.1789  0.1350
   17MOL   C40010992   6.163   6.814   1.121 -0.3398 -0.0687 -0.3170
   17MOL   C40110993   6.068   6.924   1.063 -0.5513  0.3669 -0.1712
   17MOL   C40210994   5.937   6.866   1.003 -0.0529  0.4314  0.0197
   17MOL   C40310995   5.863   6.965   0.918 -0.4013 -0.2579  0.0919
   17MOL   C40410996   5.762   7.045   1.001 -0.4121 -0.1505 -0.8498
   17MOL   C40510997   5.662   7.123   0.905  0.9711  0.2523  0.7777
   17MOL   C40610998   5.716   7.250   0.833  0.0613  0.5853 -0.1437
   17MOL   C40710999   5.599   7.324   0.767 -0.2099 -0.2143  0.1059
   17MOL   C40811000   5.645   7.447   0.687  0.9768  0.6177 -0.2611
   17MOL   H40911001   6.314   7.059   1.064 -1.4870 -1.5304 -0.7271
   17MOL   H41011002   6.455   7.019   1.158  0.6026 -0.1956 -1.5567
   17MOL   H41111003   6.369   6.791   1.197  0.9608  0.2660  0.6110
   17MOL   H41211004   6.114   6.758   1.201 -0.7156  0.0610 -0.4577
   17MOL   H41311005   6.186   6.740   1.044  1.4456 -0.7620  0.8499
   17MOL   H41411006   6.034   6.987   1.146 -2.2030  0.5920 -0.9921
   17MOL   H41511007   6.124   6.983   0.992 -0.8096 -0.2154 -0.8662
   17MOL   H41611008   5.964   6.791   0.929 -1.0892 -3.0225  2.9995
   17MOL   H41711009   5.881   6.820   1.085 -1.0251  1.1438 -0.2385
   17MOL   H41811010   5.803   6.926   0.835  0.8452 -0.5479 -0.6826
   17MOL   H41911011   5.926   7.042   0.874  0.2581 -1.1170 -0.4792
   17MOL   H42011012   5.711   6.984   1.075  0.0388  0.4029 -0.0708
   17MOL   H42111013   5.818   7.112   1.066 -1.0210 -0.4192 -0.0414
   17MOL   H42211014   5.579   7.156   0.967  0.7270 -0.3563  0.7825
   17MOL   H42311015   5.605   7.051   0.846  0.1937  1.6155 -0.1299
   17MOL   H42411016   5.766   7.325   0.896 -0.2871  1.6027 -1.0613
   17MOL   H42511017   5.796   7.233   0.761 -0.7196 -0.0169 -0.8777
   17MOL   H42611018   5.526   7.357   0.840 -1.3390  0.1252 -1.1705
   17MOL   H42711019   5.550   7.247   0.708 -2.6906  1.4022  0.0088
   17MOL   H42811020   5.568   7.467   0.612  0.9204  1.8682  0.1079
   17MOL   H42911021   5.737   7.429   0.631  1.4894  2.1208  0.0746
   17MOL   H43011022   5.661   7.527   0.760  0.6417  0.7563 -0.3381
   17MOL   C43111023   6.287   6.928   1.325  0.2802 -0.1007  0.5920
   17MOL   C43211024   6.268   6.823   1.442  0.0699 -0.5797  0.2702
   17MOL   C43311025   6.255   6.906   1.572  0.0009  0.2386 -0.6846
   17MOL   C43411026   6.200   6.819   1.691 -0.6868  0.0367 -0.1409
   17MOL   C43511027   6.169   6.895   1.819 -0.4719 -0.3695  0.7493
   17MOL   C43611028   6.094   6.824   1.925  0.8321 -0.1185  0.1275
   17MOL   C43711029   5.946   6.788   1.901  0.3598 -0.5075  0.3804
   17MOL   C43811030   5.882   6.714   2.017 -0.3345  0.3552  0.1000
   17MOL   C43911031   5.726   6.698   2.017  0.1223 -0.7417  0.8060
   17MOL   C44011032   5.660   6.661   2.148 -0.1617 -0.5171 -0.3674
   17MOL   C44111033   5.683   6.521   2.200 -0.1791 -0.3210 -0.2732
   17MOL   H44211034   6.204   6.999   1.323 -3.1026 -3.8993 -0.4864
   17MOL   H44311035   6.384   6.975   1.337  1.3744 -2.1882  0.1191
   17MOL   H44411036   6.168   6.780   1.439  0.2282 -0.8384 -1.8991
   17MOL   H44511037   6.355   6.945   1.591  0.5312 -0.4875 -1.8974
   17MOL   H44611038   6.187   6.990   1.563 -0.0718  0.1067 -1.4586
   17MOL   H44711039   6.268   6.736   1.710 -3.5253 -2.6678 -1.3891
   17MOL   H44811040   6.109   6.775   1.650  0.9269 -3.9008  0.2863
   17MOL   H44911041   6.107   6.979   1.788 -0.2465 -1.7876 -3.8235
   17MOL   H45011042   6.265   6.932   1.855  0.8424 -0.0122 -2.9843
   17MOL   H45111043   6.101   6.886   2.015  1.0350 -1.4133  1.0216
   17MOL   H45211044   6.152   6.738   1.956  1.5064 -0.2707 -1.5333
   17MOL   H45311045   5.935   6.729   1.810 -1.3869 -0.6822  0.6898
   17MOL   H45411046   5.887   6.879   1.886 -0.2130 -0.9457 -0.0454
   17MOL   H45511047   5.929   6.615   2.018  2.8950  1.7985 -1.4099
   17MOL   H45611048   5.915   6.774   2.102 -1.7467  1.1634  0.0860
   17MOL   H45711049   5.703   6.623   1.942  3.8785 -1.8576  0.7042
   17MOL   H45811050   5.690   6.797   1.987  0.8564 -0.6262  0.3047
   17MOL   H45911051   5.553   6.674   2.136 -0.8656 -3.9191  1.4737
   17MOL   H46011052   5.693   6.734   2.223  1.8487  0.2770 -1.9693
   17MOL   H46111053   5.768   6.501   2.265 -1.4176 -1.9044  0.8994
   17MOL   H46211054   5.600   6.492   2.264 -0.0645  0.0076  0.0283
   17MOL   H46311055   5.686   6.453   2.115 -1.4608 -1.7030  0.7574
   17MOL   C46411056   6.371   6.705   1.444 -0.0965  0.1082  0.3436
   17MOL   C46511057   6.330   6.560   1.396  0.1919 -0.1842 -0.4371
   17MOL   C46611058   6.430   6.455   1.458  0.1251  0.0529  0.2238
   17MOL   C46711059   6.578   6.482   1.428  0.2611  0.2546 -0.7094
   17MOL   C46811060   6.674   6.363   1.469 -0.5571  0.3877  0.3778
   17MOL   C46911061   6.819   6.389   1.431 -0.1752  0.3473 -0.0318
   17MOL   C47011062   6.900   6.270   1.458 -0.5166  0.3806  0.4140
   17MOL   C47111063   7.039   6.272   1.394 -1.2813  0.2377 -0.1705
   17MOL   C47211064   7.126   6.155   1.443 -0.5340  0.3159 -1.0277
   17MOL   C47311065   7.263   6.163   1.380  0.5837 -0.0360  0.5019
   17MOL   C47411066   7.345   6.280   1.431 -0.4936  0.7306  0.6569
   17MOL   H47511067   6.413   6.711   1.544 -1.5124 -0.1842  0.9815
   17MOL   H47611068   6.463   6.734   1.394  0.9214  2.4930  3.4434
   17MOL   H47711069   6.339   6.555   1.288  0.6642  2.2697 -0.5415
   17MOL   H47811070   6.408   6.357   1.416  1.3566 -0.4026  0.6261
   17MOL   H47911071   6.401   6.458   1.563 -3.1666 -3.0435 -0.4932
   17MOL   H48011072   6.596   6.498   1.322  1.4519  0.6551 -0.4529
   17MOL   H48111073   6.621   6.570   1.476 -0.1295 -0.5968  1.2620
   17MOL   H48211074   6.643   6.270   1.422  2.2725 -0.0079 -0.7535
   17MOL   H48311075   6.661   6.347   1.576 -2.7240 -0.5867  0.0016
   17MOL   H48411076   6.830   6.404   1.323 -0.8291 -2.4282 -0.5351
   17MOL   H48511077   6.856   6.479   1.479 -2.6628  0.6635  1.3709
   17MOL   H48611078   6.903   6.249   1.565 -0.5908  1.3515  0.6123
   17MOL   H48711079   6.848   6.184   1.415 -0.1203 -0.1060  0.8926
   17MOL   H48811080   7.026   6.267   1.286 -1.1193 -0.7940 -0.1480
   17MOL   H48911081   7.092   6.366   1.410  1.1497 -0.9318 -0.9475
   17MOL   H49011082   7.132   6.159   1.552  0.3121 -0.9524 -1.0175
   17MOL   H49111083   7.081   6.061   1.409  1.2668  0.0510 -2.7437
   17MOL   H49211084   7.305   6.062   1.385 -0.1355 -0.2425  2.7566
   17MOL   H49311085   7.254   6.185   1.273 -1.5756  0.8190  0.8386
   17MOL   H49411086   7.323   6.319   1.530 -4.0586  1.5979 -0.3873
   17MOL   H49511087   7.319   6.370   1.374 -1.9785 -0.0481  0.0620
   17MOL   H49611088   7.451   6.267   1.410 -0.9144 -0.7631 -0.7391
   17MOL   C49711089   6.180   6.519   1.432  0.1093 -0.3208  0.0486
   17MOL   C49811090   6.140   6.375   1.397  0.3526  0.2951  0.0210
   17MOL   C49911091   6.160   6.337   1.251 -0.2549 -0.1095 -0.1584
   17MOL   C50011092   6.079   6.423   1.144 -0.2651  0.1954 -0.2568
   17MOL   C50111093   6.107   6.397   0.990 -0.7810  0.2693 -0.4711
   17MOL   C50211094   6.160   6.247   0.965 -0.1265  0.3818 -0.1020
   17MOL   C50311095   6.167   6.219   0.811 -0.0820 -0.0761 -0.2616
   17MOL   C50411096   6.251   6.092   0.794  0.1010  0.2234 -0.1548
   17MOL   C50511097   6.265   6.052   0.644  0.2004  0.5070  0.1268
   17MOL   C50611098   6.304   5.901   0.637  0.2139  0.6278 -0.0498
   17MOL   C50711099   6.445   5.867   0.688 -0.0835 -0.0980  0.8380
   17MOL   H50811100   6.181   6.527   1.541 -0.9291 -2.7525  0.2769
   17MOL   H50911101   6.099   6.581   1.392 -1.5112 -2.3734  0.0409
   17MOL   H51011102   6.199   6.310   1.462 -2.5643 -0.6286  1.8326
   17MOL   H51111103   6.133   6.232   1.236  1.2347 -0.5074 -0.1515
   17MOL   H51211104   6.268   6.323   1.240  0.1285  1.6411  1.1506
   17MOL   H51311105   6.078   6.530   1.164 -0.7655  0.5480 -2.0999
   17MOL   H51411106   5.973   6.398   1.156  0.2270 -0.6998  2.8217
   17MOL   H51511107   6.017   6.403   0.929 -0.0259 -1.1592 -1.7859
   17MOL   H51611108   6.177   6.466   0.944 -2.3131  1.2852 -1.2966
   17MOL   H51711109   6.263   6.241   0.999  0.3354  0.4990 -1.4425
   17MOL   H51811110   6.090   6.179   1.014  1.5361  0.1400  2.0250
   17MOL   H51911111   6.067   6.196   0.772 -0.5747  1.7613 -0.0963
   17MOL   H52011112   6.200   6.299   0.745  0.1675  0.1195  0.1054
   17MOL   H52111113   6.199   6.004   0.832 -1.0344  0.7622 -0.4359
   17MOL   H52211114   6.355   6.104   0.824  0.1903 -0.7432 -0.0607
   17MOL   H52311115   6.339   6.117   0.598 -0.4785  1.2554  0.0935
   17MOL   H52411116   6.171   6.072   0.594  0.3421  0.1624 -0.2829
   17MOL   H52511117   6.291   5.878   0.532 -3.7450 -1.4240  0.7864
   17MOL   H52611118   6.228   5.841   0.688  0.9496  0.9210  1.4291
   17MOL   H52711119   6.463   5.878   0.795 -0.4231  1.7268  0.7291
   17MOL   H52811120   6.523   5.918   0.632 -1.4430  1.4684  0.2938
   17MOL   H52911121   6.458   5.764   0.656 -1.7682 -0.0901  0.0081
   17MOL   C53011122   5.993   6.350   1.436  0.5965 -0.6766  0.1117
   17MOL   C53111123   5.947   6.366   1.592  0.2830  0.4346 -0.0573
   17MOL   C53211124   6.035   6.287   1.693  0.0881 -0.3411  0.2352
   17MOL   C53311125   6.056   6.358   1.832 -0.3004  0.3992  0.2020
   17MOL   C53411126   6.005   6.275   1.953  0.2319 -0.2111  0.3863
   17MOL   C53511127   6.031   6.333   2.095 -0.4130 -0.4364  0.0324
   17MOL   C53611128   5.988   6.230   2.199  0.7292 -0.6027 -0.2498
   17MOL   C53711129   6.008   6.288   2.343  0.5897 -0.4147 -0.3549
   17MOL   C53811130   5.955   6.196   2.449  0.5581  0.5983 -0.6941
   17MOL   C53911131   5.802   6.201   2.456 -0.2751 -0.5247  0.0599
   17MOL   C54011132   5.749   6.117   2.572  0.2450 -0.2811 -0.1338
   17MOL   H54111133   5.937   6.429   1.387 -1.5958 -1.6814  0.8978
   17MOL   H54211134   5.952   6.261   1.389 -0.7147  0.9190 -1.7955
   17MOL   H54311135   5.967   6.471   1.616  0.6754  0.4760 -0.5497
   17MOL   H54411136   6.132   6.258   1.652 -0.6390 -2.3675 -0.1185
   17MOL   H54511137   6.000   6.185   1.709 -0.3706  0.2169  2.9099
   17MOL   H54611138   5.999   6.450   1.823 -1.1842 -0.1867 -0.2444
   17MOL   H54711139   6.162   6.383   1.840  0.5421 -2.8614  0.2206
   17MOL   H54811140   6.052   6.177   1.948  0.3958 -0.1480  0.7008
   17MOL   H54911141   5.897   6.262   1.942  0.2383 -0.8519  1.0262
   17MOL   H55011142   5.980   6.427   2.110 -1.3803 -0.8910 -0.3512
   17MOL   H55111143   6.135   6.360   2.112 -0.6087  1.6879 -1.9313
   17MOL   H55211144   6.055   6.144   2.200  0.8616 -0.5183  1.9921
   17MOL   H55311145   5.891   6.186   2.174  0.2454  0.4758 -0.2802
   17MOL   H55411146   5.963   6.387   2.351 -0.3837 -0.9775  1.3506
   17MOL   H55511147   6.116   6.297   2.360  0.4344  2.7362 -0.7153
   17MOL   H55611148   6.002   6.225   2.543  0.1176 -0.1041 -0.2575
   17MOL   H55711149   5.983   6.091   2.443  0.2995  0.5162 -0.4389
   17MOL   H55811150   5.757   6.166   2.363  2.1899  1.7110 -2.0283
   17MOL   H55911151   5.776   6.307   2.457 -0.5534 -0.5735 -1.1760
   17MOL   H56011152   5.640   6.118   2.577  0.2968 -2.4551  2.7222
   17MOL   H56111153   5.782   6.014   2.560  2.2591  0.3922 -0.6872
   17MOL   H56211154   5.793   6.149   2.666  2.4030  0.8669 -1.4861
   17MOL   C56311155   5.798   6.348   1.628  0.5355  0.0942  0.2893
   17MOL   C56411156   5.708   6.471   1.627  0.0984 -0.7130 -0.0177
   17MOL   C56511157   5.586   6.454   1.721  0.4998  0.8576  0.1716
   17MOL   C56611158   5.491   6.577   1.721  0.6612  0.4750  0.2666
   17MOL   C56711159   5.365   6.556   1.805 -0.2160 -0.1618 -0.0079
   17MOL   C56811160   5.288   6.686   1.850 -0.3628  0.5208  0.0066
   17MOL   C56911161   5.149   6.667   1.927 -0.9238  0.0156  0.3649
   17MOL   C57011162   5.181   6.629   2.067 -0.3658  0.4490 -0.9155
   17MOL   C57111163   5.049   6.594   2.146  0.5739  0.4356  0.0349
   17MOL   C57211164   5.082   6.508   2.273  0.3578 -0.1607  0.3240
   17MOL   C57311165   4.953   6.489   2.360  0.2792 -0.5020 -0.6747
   17MOL   H57411166   5.788   6.328   1.735 -0.1830  1.2630  0.4564
   17MOL   H57511167   5.757   6.255   1.590  0.8575 -0.2619  0.8083
   17MOL   H57611168   5.766   6.549   1.676 -0.3418 -0.5051  0.1771
   17MOL   H57711169   5.605   6.418   1.822  1.5425  1.3389  0.1551
   17MOL   H57811170   5.533   6.364   1.689 -1.0728  1.5715  0.7408
   17MOL   H57911171   5.450   6.599   1.623 -0.2756 -1.0359  0.3080
   17MOL   H58011172   5.549   6.664   1.753  1.3106 -1.2523  4.1571
   17MOL   H58111173   5.398   6.513   1.900 -1.3204  0.7608  0.8002
   17MOL   H58211174   5.306   6.476   1.760  0.7793 -1.7786  1.4499
   17MOL   H58311175   5.354   6.759   1.899 -1.5538  0.5413  1.6272
   17MOL   H58411176   5.253   6.743   1.764  0.3652  0.6668 -0.1958
   17MOL   H58511177   5.106   6.767   1.926 -0.1548  0.3374 -1.1888
   17MOL   H58611178   5.083   6.595   1.880 -1.8400  1.9708 -1.4140
   17MOL   H58711179   5.242   6.707   2.112  0.1546 -0.2043 -0.4732
   17MOL   H58811180   5.248   6.543   2.068 -0.8694  0.0571 -0.5178
   17MOL   H58911181   4.984   6.534   2.083 -0.1983  0.3223  0.9319
   17MOL   H59011182   5.000   6.688   2.172 -0.3523 -0.0431  0.0262
   17MOL   H59111183   5.143   6.571   2.338  1.1580 -2.0519  1.4291
   17MOL   H59211184   5.143   6.419   2.262  0.0354 -0.4224  0.6396
   17MOL   H59311185   4.939   6.575   2.425  0.2681 -1.6566  0.9086
   17MOL   H59411186   4.867   6.462   2.298  0.2675 -1.0272 -0.4366
   17MOL   H59511187   4.967   6.399   2.421 -0.6226  1.4085  2.4341
   17MOL   C59611188   5.664   6.510   1.487  0.2413  0.4923  0.2924
   17MOL   C59711189   5.692   6.653   1.432  0.5803  0.0291 -0.5635
   17MOL   C59811190   5.639   6.662   1.285 -0.2350 -0.0235  0.1054
   17MOL   C59911191   5.703   6.573   1.173 -0.4938 -0.7419  0.2190
   17MOL   C60011192   5.612   6.561   1.048  0.1614 -0.0443 -0.0404
   17MOL   C60111193   5.669   6.473   0.932 -0.5217  0.7698  0.3379
   17MOL   C60211194   5.706   6.327   0.974  0.3791  0.3677 -0.4887
   17MOL   C60311195   5.708   6.220   0.863  0.6239 -0.2408  0.1600
   17MOL   C60411196   5.754   6.085   0.907 -0.9457 -0.7498  0.0594
   17MOL   C60511197   5.648   5.986   0.966 -0.2371  0.4009 -0.2083
   17MOL   C60611198   5.706   5.852   0.992  0.3982  0.6744  0.1880
   17MOL   H60711199   5.716   6.439   1.423  1.2560 -0.7544  2.4707
   17MOL   H60811200   5.562   6.476   1.471  0.3681 -0.9376  2.3227
   17MOL   H60911201   5.626   6.719   1.489  1.1158 -0.6572  0.8864
   17MOL   H61011202   5.651   6.763   1.247  1.1773  0.0122  0.6283
   17MOL   H61111203   5.532   6.641   1.281 -0.3929  0.8822 -0.7963
   17MOL   H61211204   5.741   6.480   1.215  0.4547 -0.5199 -0.1333
   17MOL   H61311205   5.797   6.621   1.147 -0.6455  0.2313  1.4229
   17MOL   H61411206   5.591   6.660   1.008 -1.4343  0.2533  1.4404
   17MOL   H61511207   5.514   6.520   1.076  1.0082 -1.5293  0.8192
   17MOL   H61611208   5.601   6.457   0.849  1.3882  1.0923 -1.3334
   17MOL   H61711209   5.748   6.531   0.884 -1.7248  2.9452  0.9087
   17MOL   H61811210   5.626   6.297   1.042 -1.8949  0.3752 -3.0685
   17MOL   H61911211   5.797   6.322   1.033 -0.2021 -0.3078  0.3735
   17MOL   H62011212   5.776   6.253   0.785 -0.7758  2.4356  0.0183
   17MOL   H62111213   5.612   6.209   0.813 -1.3762 -0.0450  3.7796
   17MOL   H62211214   5.803   6.040   0.820 -1.3196 -2.1171  0.5520
   17MOL   H62311215   5.834   6.096   0.980 -1.1328  2.2909 -0.1218
   17MOL   H62411216   5.569   5.997   0.892  0.9761 -0.1198 -1.6053
   17MOL   H62511217   5.614   6.024   1.063  0.5438  2.1082 -0.5917
   17MOL   H62611218   5.633   5.778   1.024  0.9853 -1.7074 -3.7584
   17MOL   H62711219   5.757   5.817   0.902 -1.4546 -0.6433 -0.3776
   17MOL   H62811220   5.784   5.861   1.068  0.2447  1.1451  0.2904
   17MOL   C62911221   5.834   6.712   1.451 -0.4135  1.1533  0.4181
   17MOL   C63011222   5.842   6.863   1.420 -0.2324 -0.2627 -0.0835
   17MOL   C63111223   5.854   6.962   1.535 -0.5582  0.5013  0.2696
   17MOL   C63211224   5.725   6.970   1.614 -0.4015  0.6744  0.2410
   17MOL   C63311225   5.731   7.093   1.705  0.0803  1.1782  0.8323
   17MOL   C63411226   5.620   7.091   1.807  0.2546 -0.8045  0.2330
   17MOL   C63511227   5.476   7.069   1.765  0.3863 -1.1306 -0.5395
   17MOL   C63611228   5.419   7.183   1.677  0.3051  0.2699 -0.4523
   17MOL   C63711229   5.425   7.313   1.756  1.3858 -1.0171  0.1010
   17MOL   C63811230   5.362   7.438   1.680 -0.2724  0.2029  0.4970
   17MOL   C63911231   5.429   7.472   1.546 -0.0281 -0.2562 -0.1125
   17MOL   H64011232   5.868   6.691   1.552 -0.6054 -2.0738 -0.1272
   17MOL   H64111233   5.898   6.659   1.381  0.5899  1.1801  1.3066
   17MOL   H64211234   5.943   6.875   1.380 -1.0310  1.0105 -1.7670
   17MOL   H64311235   5.933   6.925   1.601  1.4647  2.5175 -0.9589
   17MOL   H64411236   5.868   7.066   1.506  0.0135  0.9272  2.0172
   17MOL   H64511237   5.707   6.876   1.666  0.2214  0.7083  0.5284
   17MOL   H64611238   5.646   6.980   1.540  0.6770  2.1081 -0.7552
   17MOL   H64711239   5.726   7.184   1.644 -1.1646 -1.0810 -2.5842
   17MOL   H64811240   5.828   7.107   1.752  1.4944  0.0284 -1.6197
   17MOL   H64911241   5.622   7.179   1.871  1.6667 -1.8120  1.6154
   17MOL   H65011242   5.659   7.008   1.866  1.5884 -0.6594 -0.4251
   17MOL   H65111243   5.409   7.070   1.851  1.4025  0.6672  0.2458
   17MOL   H65211244   5.454   6.973   1.716  1.9160 -1.3897 -0.7438
   17MOL   H65311245   5.316   7.159   1.651  0.2976 -1.3590  1.0101
   17MOL   H65411246   5.473   7.198   1.583  1.6707  0.1548  0.3063
   17MOL   H65511247   5.526   7.341   1.785  0.4721 -0.2316  2.6063
   17MOL   H65611248   5.381   7.313   1.855  1.9589  1.7271  0.4040
   17MOL   H65711249   5.371   7.528   1.740 -1.2241 -0.8081  2.1886
   17MOL   H65811250   5.255   7.425   1.666 -0.2382  0.5655 -0.1545
   17MOL   H65911251   5.382   7.557   1.494  3.0733  1.3603 -0.3850
   17MOL   H66011252   5.439   7.383   1.484  1.5720  0.4370 -0.8864
   17MOL   H66111253   5.534   7.496   1.562  0.5879 -1.3101 -2.3828
   17MOL   H66211254   5.781   6.898   1.337  0.1504  0.7840  0.0603
   18MOL     C111255   5.768   7.318   2.820 -0.3829 -0.4163 -0.1805
   18MOL     C211256   5.780   7.177   2.864  0.0480  0.6880 -0.5371
   18MOL     C311257   5.648   7.099   2.849  0.0206  0.4526 -0.5250
   18MOL     C411258   5.535   7.144   2.945 -0.1337  1.0682 -0.4044
   18MOL     C511259   5.414   7.051   2.935  0.3764  0.1848  0.3207
   18MOL     C611260   5.294   7.103   3.028 -0.0316 -0.7739  0.2135
   18MOL     C711261   5.321   7.109   3.178  0.6191 -0.1675  0.1140
   18MOL     C811262   5.209   7.141   3.275 -0.0886  0.6329 -0.1188
   18MOL     C911263   5.185   7.300   3.299 -0.3087  0.0433 -0.9293
   18MOL    C1011264   5.295   7.367   3.391 -0.2558 -0.4089  0.7083
   18MOL    C1111265   5.242   7.509   3.419  0.3758 -0.1104  0.0144
   18MOL    H1211266   5.687   7.364   2.877  0.8813  0.3432  1.0355
   18MOL    H1311267   5.750   7.322   2.713 -1.4504  1.5742  0.0573
   18MOL    H1411268   5.817   7.175   2.967 -1.6522  1.7109  0.1266
   18MOL    H1511269   5.673   6.994   2.842  1.4909  0.8399 -1.2035
   18MOL    H1611270   5.611   7.115   2.747 -0.4217 -0.1010 -0.4551
   18MOL    H1711271   5.502   7.248   2.941 -0.1014  1.1154  0.4876
   18MOL    H1811272   5.585   7.135   3.042 -1.0908  0.9710  0.0902
   18MOL    H1911273   5.374   7.054   2.834  0.2268  0.7300  0.3923
   18MOL    H2011274   5.433   6.946   2.957  1.7052  0.0568 -1.3810
   18MOL    H2111275   5.196   7.058   3.013  0.6277 -2.1475  0.0164
   18MOL    H2211276   5.285   7.206   2.993 -1.6332 -0.9328  0.1310
   18MOL    H2311277   5.356   7.006   3.195 -0.1877 -0.2457  1.3521
   18MOL    H2411278   5.408   7.170   3.205  0.4340 -0.3932  1.2619
   18MOL    H2511279   5.216   7.078   3.363 -0.3922  0.7027 -0.0446
   18MOL    H2611280   5.115   7.112   3.228 -1.0895  0.2348  2.0591
   18MOL    H2711281   5.085   7.308   3.341  0.3789  0.9772  0.5784
   18MOL    H2811282   5.184   7.351   3.203 -0.8137 -0.5242 -1.2289
   18MOL    H2911283   5.393   7.371   3.344 -1.0226 -0.6360 -0.9550
   18MOL    H3011284   5.298   7.311   3.485  3.2048  2.3185  2.3482
   18MOL    H3111285   5.261   7.583   3.341  1.1684  0.6706  0.9412
   18MOL    H3211286   5.133   7.506   3.428  0.3650 -1.1522 -0.2990
   18MOL    H3311287   5.281   7.550   3.512  0.2675  2.7594 -1.1585
   18MOL    H3411288   5.859   7.377   2.831 -0.6782 -0.1965  1.1737
   18MOL    C3511289   5.884   7.111   2.774 -0.1864  0.3220 -0.1607
   18MOL    C3611290   6.033   7.128   2.805  0.3933  0.2659  0.1101
   18MOL    C3711291   6.067   7.045   2.930 -0.1891 -0.0069  0.1797
   18MOL    C3811292   6.063   6.894   2.914  0.5065  0.5106 -0.7176
   18MOL    C3911293   6.092   6.814   3.050 -0.2535  0.0610  0.1760
   18MOL    C4011294   6.066   6.663   3.039  0.1286 -0.3161  0.0580
   18MOL    C4111295   6.143   6.601   3.154  0.4032 -0.0279  0.3707
   18MOL    C4211296   6.148   6.453   3.137 -0.0253 -0.0126 -0.2138
   18MOL    C4311297   6.212   6.378   3.251 -0.0407  0.2341 -0.2064
   18MOL    C4411298   6.183   6.225   3.264 -0.1472 -0.4040 -0.8244
   18MOL    C4511299   6.278   6.138   3.182 -0.4836 -0.2055  0.7276
   18MOL    H4611300   5.864   7.159   2.678  0.3860 -1.5328 -1.2339
   18MOL    H4711301   5.862   7.004   2.771  0.9954  0.0322  0.9886
   18MOL    H4811302   6.055   7.233   2.824  2.1543 -0.4043  2.0952
   18MOL    H4911303   6.167   7.074   2.962 -1.1613  1.3334  2.1612
   18MOL    H5011304   6.000   7.077   3.010  1.2149  0.7787  1.0731
   18MOL    H5111305   6.135   6.861   2.839  2.6357 -1.8971  2.2654
   18MOL    H5211306   5.967   6.860   2.876  0.8343 -1.0118 -0.2215
   18MOL    H5311307   6.044   6.865   3.135 -0.1383  1.1444 -0.3960
   18MOL    H5411308   6.192   6.825   3.090  0.1548 -1.2732 -0.4789
   18MOL    H5511309   6.100   6.630   2.941  1.6784  1.3917  0.0139
   18MOL    H5611310   5.960   6.635   3.045  0.2297 -0.7352 -0.1279
   18MOL    H5711311   6.247   6.632   3.147  0.5277 -0.8535 -1.9824
   18MOL    H5811312   6.098   6.639   3.246  1.3861  2.2921 -0.0953
   18MOL    H5911313   6.205   6.421   3.049 -0.0155  1.7993 -0.8869
   18MOL    H6011314   6.048   6.415   3.117 -0.0307  1.1813 -2.7213
   18MOL    H6111315   6.177   6.433   3.339 -1.5360  1.8021 -1.7307
   18MOL    H6211316   6.320   6.394   3.249 -0.3099  2.1272 -1.2374
   18MOL    H6311317   6.188   6.201   3.370 -1.8055 -0.7177 -0.8035
   18MOL    H6411318   6.079   6.199   3.241 -0.2856 -1.5017  0.9390
   18MOL    H6511319   6.259   6.038   3.222 -0.0824 -0.7558 -0.4342
   18MOL    H6611320   6.265   6.146   3.074  1.2220 -1.4689  0.4089
   18MOL    H6711321   6.386   6.150   3.178 -0.3973 -1.2372 -0.3805
   18MOL    C6811322   6.115   7.083   2.677  0.6717  0.1600 -0.2487
   18MOL    C6911323   6.120   7.192   2.562 -0.3338  0.2627  0.0872
   18MOL    C7011324   6.206   7.311   2.606 -0.2284 -0.2746 -0.0238
   18MOL    C7111325   6.349   7.287   2.670  0.4015 -0.0799 -0.3535
   18MOL    C7211326   6.417   7.415   2.722  0.3822 -0.5444 -0.3540
   18MOL    C7311327   6.561   7.396   2.781  0.1033 -0.0902 -0.6228
   18MOL    C7411328   6.655   7.509   2.769  1.0351 -0.6676 -0.1289
   18MOL    C7511329   6.632   7.615   2.877  0.0953 -0.4449  0.5731
   18MOL    C7611330   6.690   0.050   2.847 -0.0825  0.5846  0.3942
   18MOL    C7711331   6.838   0.055   2.820  0.3435  0.1334  0.0651
   18MOL    C7811332   6.875   0.196   2.786 -0.2742  0.9746 -0.5186
   18MOL    H7911333   6.056   6.995   2.650  3.7642 -1.9786 -0.2482
   18MOL    H8011334   6.214   7.051   2.709  0.0706  0.5550  2.0972
   18MOL    H8111335   6.026   7.242   2.540  1.1140  3.7556  1.3852
   18MOL    H8211336   6.145   7.369   2.676  0.3368  0.3772 -0.0570
   18MOL    H8311337   6.220   7.380   2.523 -1.4451 -1.5417 -1.2978
   18MOL    H8411338   6.323   7.222   2.754  2.4954  0.0130  0.3898
   18MOL    H8511339   6.411   7.227   2.602  1.6685  1.1721 -0.3264
   18MOL    H8611340   6.356   7.456   2.803 -1.2568 -0.6345 -1.5164
   18MOL    H8711341   6.413   7.489   2.642  1.8128  0.4679  0.4969
   18MOL    H8811342   6.555   7.363   2.884  1.0307 -1.2869 -0.9470
   18MOL    H8911343   6.604   7.311   2.728 -0.3058 -1.2286  0.8431
   18MOL    H9011344   6.636   7.560   2.674  0.7044 -1.0662 -0.2767
   18MOL    H9111345   6.759   7.477   2.765  1.8664  2.0190 -1.8127
   18MOL    H9211346   6.529   7.625   2.911 -0.2695  0.6260 -0.8117
   18MOL    H9311347   6.671   7.580   2.973  0.5086 -0.3559  0.4344
   18MOL    H9411348   6.634   0.089   2.762 -1.5266 -2.0432  0.1118
   18MOL    H9511349   6.659   0.118   2.927 -1.4145  0.0170  0.3641
   18MOL    H9611350   6.880   0.025   2.916 -2.0485  1.5851  1.6226
   18MOL    H9711351   6.866   7.694   2.736 -0.5171 -0.6770  0.3923
   18MOL    H9811352   6.808   0.234   2.709 -0.5884  0.3539 -0.5525
   18MOL    H9911353   6.975   0.197   2.742  0.0304 -1.4690  0.0178
   18MOL   H10011354   6.881   0.269   2.866 -1.2087  0.7601 -0.2518
   18MOL   C10111355   6.183   7.131   2.439 -0.6246 -0.5070  0.7405
   18MOL   C10211356   6.083   7.042   2.360 -0.0916  0.4810 -0.0690
   18MOL   C10311357   6.137   6.902   2.313  0.6434 -0.1403 -0.8567
   18MOL   C10411358   6.176   6.802   2.432 -0.0842 -0.0238 -0.4934
   18MOL   C10511359   6.216   6.660   2.388  0.1894 -0.0644  0.5747
   18MOL   C10611360   6.219   6.549   2.498  0.6287  0.2821 -0.3383
   18MOL   C10711361   6.328   6.554   2.605 -0.4430  0.4312 -0.1126
   18MOL   C10811362   6.297   6.447   2.711 -0.3339 -0.2356  0.5771
   18MOL   C10911363   6.402   6.423   2.820 -0.1025  0.6936 -0.0332
   18MOL   C11011364   6.422   6.558   2.896  0.0878  0.4192 -0.0307
   18MOL   C11111365   6.512   6.537   3.014 -0.1488  0.0087 -0.1898
   18MOL   H11211366   6.229   7.208   2.377 -3.1168  0.0549 -0.4443
   18MOL   H11311367   6.267   7.070   2.475 -1.0393 -0.6711  1.4440
   18MOL   H11411368   6.005   7.023   2.433  1.7045  0.3922  1.8749
   18MOL   H11511369   6.069   6.856   2.242 -2.1887  0.3712  1.4171
   18MOL   H11611370   6.228   6.925   2.258  1.4980  0.7708  0.8959
   18MOL   H11711371   6.257   6.833   2.498 -1.2439  0.3194  0.7976
   18MOL   H11811372   6.087   6.788   2.494  0.5012 -0.7479  0.2057
   18MOL   H11911373   6.149   6.634   2.307  1.4891  1.4344 -1.0326
   18MOL   H12011374   6.315   6.664   2.341 -0.0912  0.8015  0.0434
   18MOL   H12111375   6.126   6.548   2.555  0.8188 -1.8908 -0.0020
   18MOL   H12211376   6.236   6.456   2.443  3.2913  1.5151 -1.7235
   18MOL   H12311377   6.331   6.651   2.656  0.6094 -0.3928  1.4378
   18MOL   H12411378   6.426   6.550   2.557 -0.2776 -0.2708  0.2823
   18MOL   H12511379   6.208   6.477   2.767 -1.0177  0.9788 -1.1229
   18MOL   H12611380   6.277   6.352   2.663  1.9626 -1.0681  1.1841
   18MOL   H12711381   6.369   6.342   2.885  0.0708  0.0506 -0.7388
   18MOL   H12811382   6.496   6.391   2.775  0.0279  0.1400  0.6339
   18MOL   H12911383   6.325   6.602   2.922 -2.0428 -0.8810 -5.1997
   18MOL   H13011384   6.468   6.642   2.845  1.3836  1.7698  3.2042
   18MOL   H13111385   6.613   6.512   2.981  1.3025  1.0572  3.2294
   18MOL   H13211386   6.518   6.627   3.075 -0.9546 -0.5938  0.7941
   18MOL   H13311387   6.464   6.463   3.078 -0.2689  1.3759  1.3142
   18MOL   C13411388   6.032   7.118   2.233  0.4632 -0.1339 -0.1544
   18MOL   C13511389   5.948   7.246   2.264  0.5782 -0.1263  0.5936
   18MOL   C13611390   5.824   7.223   2.342 -0.2759 -0.2510  0.2366
   18MOL   C13711391   5.706   7.142   2.279  0.3691  0.2989  0.1825
   18MOL   C13811392   5.603   7.103   2.389  0.0816 -0.2238  0.2323
   18MOL   C13911393   5.481   7.022   2.340 -0.8036 -0.1472 -0.4102
   18MOL   C14011394   5.389   6.982   2.457  0.2454  0.1808  0.2851
   18MOL   C14111395   5.270   6.893   2.423 -0.7084  0.0468 -0.0857
   18MOL   C14211396   5.178   6.870   2.547 -0.3651 -0.7814 -1.2454
   18MOL   C14311397   5.250   6.775   2.642  0.1968 -0.5435  0.2664
   18MOL   C14411398   5.170   6.749   2.766 -0.2185 -1.0582 -0.2144
   18MOL   H14511399   6.114   7.134   2.164 -0.6794 -0.6981 -1.6758
   18MOL   H14611400   5.966   7.053   2.175  0.9017 -2.0904  1.4637
   18MOL   H14711401   6.006   7.314   2.327 -0.6728  0.8779  0.6658
   18MOL   H14811402   5.779   7.320   2.365 -0.7112  0.3526 -2.9533
   18MOL   H14911403   5.857   7.177   2.436 -0.7348 -0.5703  0.2406
   18MOL   H15011404   5.661   7.190   2.193  1.0760 -0.9058 -0.8681
   18MOL   H15111405   5.754   7.052   2.241  0.6603  0.6071 -0.1786
   18MOL   H15211406   5.652   7.039   2.462  0.0966  1.0753  1.3977
   18MOL   H15311407   5.586   7.199   2.438 -0.4182 -0.5800  0.7542
   18MOL   H15411408   5.427   7.077   2.263 -0.1203 -1.1458 -1.6338
   18MOL   H15511409   5.518   6.934   2.286 -1.5752 -0.7931  0.0967
   18MOL   H15611410   5.446   6.956   2.546  0.2585 -0.8735 -0.0186
   18MOL   H15711411   5.350   7.078   2.491  1.1808  0.3491  0.8827
   18MOL   H15811412   5.209   6.932   2.342  0.3035  0.6343 -0.5850
   18MOL   H15911413   5.305   6.797   2.385 -2.1037 -0.5121  0.0382
   18MOL   H16011414   5.164   6.974   2.578  0.4065 -0.3776 -2.1926
   18MOL   H16111415   5.082   6.827   2.520 -0.8288  0.9039 -2.3689
   18MOL   H16211416   5.275   6.679   2.595 -0.5741 -0.5968 -0.0352
   18MOL   H16311417   5.346   6.819   2.670  0.7840 -2.9522  2.1697
   18MOL   H16411418   5.184   6.838   2.828  0.1248 -0.5692 -0.9795
   18MOL   H16511419   5.204   6.664   2.825  2.1463 -0.9507 -1.3446
   18MOL   H16611420   5.066   6.743   2.735  0.0305 -0.4090 -1.1900
   18MOL   C16711421   5.911   7.318   2.137 -0.7710  0.6444 -0.0797
   18MOL   C16811422   5.893   7.471   2.150 -0.0194  0.1569  0.0693
   18MOL   C16911423   5.820   7.534   2.033  0.3170 -0.0421 -0.5149
   18MOL   C17011424   5.675   7.479   2.020  0.3462 -0.3532 -0.2344
   18MOL   C17111425   5.569   7.520   2.130 -0.6676 -0.5545 -0.2780
   18MOL   C17211426   5.431   7.449   2.110 -0.0622 -0.2924 -0.1496
   18MOL   C17311427   5.323   7.482   2.212 -0.0140  0.2919 -0.5434
   18MOL   C17411428   5.251   7.620   2.202  0.7328 -0.6301  0.2715
   18MOL   C17511429   5.124   7.625   2.281  0.1296  0.4944 -0.5438
   18MOL   C17611430   5.049   0.057   2.279 -0.0205  0.0151 -0.1022
   18MOL   C17711431   4.904   0.039   2.315  0.8377 -0.4866 -1.3641
   18MOL   H17811432   5.988   7.309   2.060 -1.3962 -0.7587 -0.5469
   18MOL   H17911433   5.833   7.265   2.083 -0.0642  2.0609 -2.5253
   18MOL   H18011434   5.833   7.489   2.239 -0.7222 -0.6006 -0.2490
   18MOL   H18111435   5.865   7.513   1.936  0.8001 -1.4806  0.0057
   18MOL   H18211436   5.810   7.642   2.045  0.2125 -0.3248  2.4475
   18MOL   H18311437   5.643   7.517   1.923  3.6159 -0.0155 -1.2230
   18MOL   H18411438   5.668   7.371   2.008  0.9349 -0.3070 -1.0855
   18MOL   H18511439   5.565   7.629   2.121 -0.3270 -0.6156 -1.3308
   18MOL   H18611440   5.594   7.507   2.235 -1.9947 -1.8383 -0.1112
   18MOL   H18711441   5.400   7.490   2.014  0.1731 -0.5463 -0.3367
   18MOL   H18811442   5.462   7.344   2.103 -0.4538 -0.5865  2.2446
   18MOL   H18911443   5.368   7.466   2.310 -0.5297 -3.7758 -0.8666
   18MOL   H19011444   5.251   7.403   2.190  0.3978 -0.4183  0.5948
   18MOL   H19111445   5.320   7.697   2.236  0.2328 -0.4222  0.8230
   18MOL   H19211446   5.239   7.649   2.097  1.8494  2.9572  1.0625
   18MOL   H19311447   5.159   7.589   2.378 -1.5989 -1.4806 -0.6184
   18MOL   H19411448   5.062   7.547   2.237  0.2554 -0.7874  1.4671
   18MOL   H19511449   5.058   0.111   2.184  2.0638  0.8663  0.5362
   18MOL   H19611450   5.102   0.123   2.347  1.9104 -3.4792  1.9368
   18MOL   H19711451   4.904   7.677   2.403 -0.2351  0.5248 -0.6019
   18MOL   H19811452   4.842   7.694   2.240  1.0353 -0.9898 -1.2041
   18MOL   H19911453   4.848   0.129   2.337 -0.0793 -1.3045 -0.3135
   18MOL   C20011454   6.036   7.527   2.168  0.1820 -0.2598 -0.3902
   18MOL   C20111455   6.038   7.677   2.214 -0.4170 -0.3630  0.1147
   18MOL   C20211456   6.140   0.048   2.123  0.8368  0.1881  0.2308
   18MOL   C20311457   6.109   0.080   1.971  0.2726  0.0150 -0.6728
   18MOL   C20411458   6.236   0.114   1.892 -0.4437 -0.6032 -0.2581
   18MOL   C20511459   6.203   0.138   1.748 -0.1519 -0.1377  0.3842
   18MOL   C20611460   6.314   0.202   1.658  0.0796  0.6831  0.1917
   18MOL   C20711461   6.430   0.105   1.626  0.2838 -0.2814  0.7768
   18MOL   C20811462   6.516   0.146   1.502  0.2424 -0.0990  0.0513
   18MOL   C20911463   6.632   0.049   1.475 -0.1420 -0.2479  0.2880
   18MOL   C21011464   6.727   0.083   1.357  0.6308 -0.1717  0.0153
   18MOL   H21111465   6.098   7.471   2.239 -1.2427 -1.4005 -0.0302
   18MOL   H21211466   6.095   7.516   2.077  1.9561 -1.2137  0.8280
   18MOL   H21311467   5.938   0.014   2.202  0.0736  0.0908 -2.8329
   18MOL   H21411468   6.235   7.700   2.134 -0.4498 -2.3726 -0.1942
   18MOL   H21511469   6.162   0.145   2.167  0.9736  0.5451 -0.6136
   18MOL   H21611470   6.046   0.168   1.982  0.4082 -0.1655  1.9743
   18MOL   H21711471   6.052   0.002   1.921 -0.2800  0.8743 -1.4014
   18MOL   H21811472   6.314   0.040   1.909  0.5578  0.5810  0.3690
   18MOL   H21911473   6.283   0.203   1.934 -0.3798  0.1466 -1.8475
   18MOL   H22011474   6.159   0.050   1.702 -0.7545 -0.4793  1.6014
   18MOL   H22111475   6.124   0.213   1.750 -1.0321 -1.0071 -0.7648
   18MOL   H22211476   6.362   0.284   1.711 -1.3029  1.4716  0.2473
   18MOL   H22311477   6.263   0.235   1.567 -1.2958  1.0968  1.1033
   18MOL   H22411478   6.391   0.005   1.607 -1.3288  0.4649  0.0552
   18MOL   H22511479   6.494   0.095   1.714  1.1935  1.9393  0.4095
   18MOL   H22611480   6.566   0.242   1.517 -0.6527  0.0451  2.3140
   18MOL   H22711481   6.450   0.155   1.416  1.0132  0.0848 -0.5301
   18MOL   H22811482   6.694   0.038   1.563 -1.6838  0.5092  1.4863
   18MOL   H22911483   6.585   7.656   1.454 -2.2401  0.4312  1.7406
   18MOL   H23011484   6.784   7.696   1.336  2.6797  1.0653  0.0977
   18MOL   H23111485   6.787   0.173   1.370  0.5381 -0.1555  0.3500
   18MOL   H23211486   6.661   0.112   1.276  0.3664  0.5933  0.4984
   18MOL   C23311487   6.072   7.692   2.368 -0.4505  0.6258 -0.6738
   18MOL   C23411488   5.979   7.626   2.471  0.0924  0.0034 -0.7109
   18MOL   C23511489   5.838   7.677   2.463 -0.6730 -0.0925 -0.4712
   18MOL   C23611490   5.736   7.591   2.546 -1.1416  0.5990  0.1527
   18MOL   C23711491   5.589   7.625   2.533  0.4003 -0.4698  0.2551
   18MOL   C23811492   5.510   7.557   2.647  0.4481  0.3510 -0.1033
   18MOL   C23911493   5.368   7.608   2.668 -0.1916  0.4794  0.6717
   18MOL   C24011494   5.304   7.543   2.789  0.0610  0.0960 -0.2924
   18MOL   C24111495   5.148   7.557   2.806 -0.0228 -0.0258  0.0315
   18MOL   C24211496   5.093   7.495   2.929 -0.3250 -0.1799  0.6739
   18MOL   C24311497   5.112   7.581   3.061 -0.4167 -0.0532  0.2384
   18MOL   H24411498   6.080   0.096   2.380 -1.4376  0.6104  0.1604
   18MOL   H24511499   6.173   7.653   2.376 -0.0247  1.6035 -1.2620
   18MOL   H24611500   5.968   7.519   2.454 -0.2170 -0.6958  3.4869
   18MOL   H24711501   5.824   0.079   2.486  0.0670 -0.0687 -0.1067
   18MOL   H24811502   5.802   7.684   2.361 -0.3590  2.8250 -0.4081
   18MOL   H24911503   5.782   7.585   2.644  1.1986  1.0631 -0.8785
   18MOL   H25011504   5.746   7.488   2.511  2.1886  0.4989  1.2239
   18MOL   H25111505   5.553   7.605   2.432 -0.2669 -0.0608  0.4067
   18MOL   H25211506   5.577   0.027   2.558 -1.5380 -1.2578  2.9087
   18MOL   H25311507   5.570   7.582   2.734 -0.1299  0.1769  0.3444
   18MOL   H25411508   5.515   7.448   2.639 -0.5098  0.3887 -1.2616
   18MOL   H25511509   5.384   0.011   2.685  1.6159  0.3469 -0.0578
   18MOL   H25611510   5.302   7.604   2.581  0.5060  3.4684 -0.0704
   18MOL   H25711511   5.330   7.437   2.795 -2.1041 -0.5201 -1.3433
   18MOL   H25811512   5.352   7.587   2.877  1.2127 -0.4413 -0.6411
   18MOL   H25911513   5.128   7.664   2.808  1.5578  0.2787 -0.0143
   18MOL   H26011514   5.094   7.510   2.724  1.3568 -0.5554 -0.5954
   18MOL   H26111515   5.115   7.389   2.947  1.6054  0.4449  2.2259
   18MOL   H26211516   4.988   7.474   2.910 -0.4977  0.8069  0.5208
   18MOL   H26311517   5.218   7.583   3.090 -0.7725  0.4334  1.5353
   18MOL   H26411518   5.059   7.543   3.148  0.0369 -1.3829 -0.0411
   18MOL   H26511519   5.088   7.687   3.057  1.4068  0.3810  0.1853
   18MOL   C26611520   6.052   7.631   2.604  0.6757  0.7720 -0.0084
   18MOL   C26711521   6.083   0.073   2.660 -0.4455 -0.6019  0.6457
   18MOL   C26811522   6.239   0.102   2.639 -0.0678 -0.7829 -0.7085
   18MOL   C26911523   6.272   0.252   2.658 -0.0148  0.0498  0.1479
   18MOL   C27011524   6.209   0.341   2.553 -0.3522  0.4355 -0.3616
   18MOL   C27111525   6.299   0.468   2.510  0.0251 -1.2670  0.3378
   18MOL   C27211526   6.251   0.556   2.396  0.4426  0.0389  0.0466
   18MOL   C27311527   6.265   0.482   2.260  0.7523 -0.5022 -0.1551
   18MOL   C27411528   6.204   0.557   2.135 -0.8344  0.3908 -0.1087
   18MOL   C27511529   6.191   0.473   2.014  0.5996 -0.5808 -0.3281
   18MOL   C27611530   6.140   0.530   1.876  0.0054  0.3149  0.0022
   18MOL   H27711531   6.152   7.589   2.597  0.5495  0.4624  0.0489
   18MOL   H27811532   5.996   7.566   2.671  1.7986 -0.7180 -0.4838
   18MOL   H27911533   6.028   0.144   2.598  1.7218  0.0976 -0.5078
   18MOL   H28011534   6.302   0.044   2.707  0.0423  0.1232 -0.0320
   18MOL   H28111535   6.286   0.064   2.548 -2.2686 -2.6730 -1.1070
   18MOL   H28211536   6.380   0.264   2.655  0.2142 -1.7508  0.2775
   18MOL   H28311537   6.242   0.292   2.755  1.3551  0.1861  0.5252
   18MOL   H28411538   6.117   0.386   2.589  0.6615  1.2787  1.2148
   18MOL   H28511539   6.173   0.283   2.468 -1.3133 -1.8247  1.5468
   18MOL   H28611540   6.404   0.441   2.502  0.7407  0.2325  3.6803
   18MOL   H28711541   6.305   0.531   2.599 -0.3605 -0.6903 -0.0402
   18MOL   H28811542   6.153   0.595   2.422  0.9699 -0.4387  2.9477
   18MOL   H28911543   6.327   0.634   2.398  0.0232  0.5333 -2.0269
   18MOL   H29011544   6.226   0.381   2.265  0.0158 -0.2004  0.3046
   18MOL   H29111545   6.370   0.464   2.240  0.3520 -1.0494 -1.8834
   18MOL   H29211546   6.106   0.605   2.144 -1.6476 -1.0818 -0.8948
   18MOL   H29311547   6.271   0.640   2.114 -0.2152  0.3387  1.5610
   18MOL   H29411548   6.126   0.391   2.045 -0.1935  0.6349  1.3016
   18MOL   H29511549   6.284   0.422   1.990 -0.2858 -1.5051 -1.9425
   18MOL   H29611550   6.043   0.573   1.898 -0.8121 -1.9138  0.9061
   18MOL   H29711551   6.134   0.452   1.799 -0.8292  0.3409  0.0418
   18MOL   H29811552   6.206   0.609   1.838  1.6997 -0.5140  1.1555
   18MOL   C29911553   6.042   0.112   2.799 -0.3760 -0.4040  0.3174
   18MOL   C30011554   6.113   0.038   2.919  0.1621  0.6546 -0.1617
   18MOL   C30111555   6.120   7.588   2.935  0.1934 -0.0359  0.1377
   18MOL   C30211556   6.221   7.538   3.032  0.0384 -0.7956 -0.3646
   18MOL   C30311557   6.210   7.391   3.075  0.0291 -0.0041  0.6935
   18MOL   C30411558   6.080   7.361   3.154  0.0742  0.1438  0.2791
   18MOL   C30511559   6.087   7.436   3.294  0.4996  0.4987 -0.2811
   18MOL   C30611560   5.988   7.385   3.398 -0.4349 -0.5015 -0.0976
   18MOL   C30711561   6.008   7.475   3.519  0.0009 -0.0008 -0.7812
   18MOL   C30811562   5.953   7.616   3.512 -0.2364 -1.0207 -0.0812
   18MOL   C30911563   5.916   7.681   3.638 -0.5411 -0.0327  0.3352
   18MOL   H31011564   5.934   0.096   2.802 -0.2246 -1.9580 -1.4049
   18MOL   H31111565   6.064   0.218   2.809 -0.7353 -0.1816 -1.0838
   18MOL   H31211566   6.215   0.077   2.915  1.1925 -2.0152 -0.7726
   18MOL   H31311567   6.026   7.544   2.965  0.3330 -1.0370 -0.8320
   18MOL   H31411568   6.134   7.555   2.831 -1.3294  0.5407 -0.2530
   18MOL   H31511569   6.318   7.559   2.986 -0.4354  1.3856 -0.4089
   18MOL   H31611570   6.227   7.595   3.125 -1.7590 -0.2871 -0.5413
   18MOL   H31711571   6.204   7.325   2.988 -1.3027  0.3324  0.5095
   18MOL   H31811572   6.297   7.363   3.134 -0.7072 -0.4194  1.6113
   18MOL   H31911573   6.070   7.257   3.185  0.0526  0.9511  3.0545
   18MOL   H32011574   5.990   7.375   3.095 -0.2169 -0.9399  0.4606
   18MOL   H32111575   6.184   7.399   3.328 -0.0126  0.4515  1.1592
   18MOL   H32211576   6.087   7.544   3.280 -0.4456  0.2738 -2.1320
   18MOL   H32311577   6.030   7.289   3.427  1.6942  0.6908  0.9022
   18MOL   H32411578   5.889   7.372   3.353 -1.0283 -0.5862  1.1984
   18MOL   H32511579   6.115   7.471   3.541 -0.4031 -1.1831  1.0042
   18MOL   H32611580   5.971   7.425   3.608 -0.8072  0.2993 -0.9466
   18MOL   H32711581   5.859   7.601   3.460 -0.9812  2.1501  0.2866
   18MOL   H32811582   6.007   7.675   3.439 -1.5069 -2.5473 -2.2935
   18MOL   H32911583   5.891   7.614   3.720  1.1580  0.3463  1.1826
   18MOL   H33011584   6.003   0.037   3.663  1.0650 -1.5042 -1.5609
   18MOL   H33111585   5.829   0.041   3.620 -0.6508  0.0768  1.2293
   18MOL   C33211586   6.044   0.083   3.052 -0.7308 -0.5157  0.5278
   18MOL   C33311587   6.051   0.227   3.099  0.7089 -0.0104  0.5271
   18MOL   C33411588   6.197   0.281   3.130 -0.7572  0.4709  0.3183
   18MOL   C33511589   6.263   0.225   3.258 -0.3082 -0.0785 -0.1815
   18MOL   C33611590   6.412   0.269   3.267 -0.2125  0.2029 -0.1252
   18MOL   C33711591   6.492   0.188   3.363 -0.8950  0.2669 -0.4812
   18MOL   C33811592   6.644   0.211   3.366  0.1388 -0.1969 -0.4881
   18MOL   C33911593   6.709   0.160   3.498 -0.1213  0.6740 -0.1889
   18MOL   C34011594   6.737   0.005   3.494 -0.0690  0.4539 -0.3872
   18MOL   C34111595   6.779   7.656   3.621  0.4431  0.3681  0.2463
   18MOL   C34211596   6.811   7.498   3.619  0.6146  0.5348 -0.2284
   18MOL   H34311597   5.941   0.049   3.041  0.5857 -3.6792 -3.4037
   18MOL   H34411598   6.089   0.029   3.135 -0.6841 -1.6399 -0.2122
   18MOL   H34511599   6.021   0.286   3.012  3.1883  0.2809 -0.1519
   18MOL   H34611600   6.204   0.390   3.129  0.4646  0.4580  2.8825
   18MOL   H34711601   6.253   0.265   3.038  2.4370  1.2273  2.0378
   18MOL   H34811602   6.215   0.265   3.347 -0.1129 -0.7693  0.2345
   18MOL   H34911603   6.265   0.116   3.265  0.1403 -0.0623 -0.0322
   18MOL   H35011604   6.458   0.239   3.173  1.7560  0.2927  0.7697
   18MOL   H35111605   6.439   0.374   3.280  1.3140 -0.3060  1.1137
   18MOL   H35211606   6.488   0.080   3.349 -0.1680  0.6163 -3.6743
   18MOL   H35311607   6.448   0.199   3.462 -0.4282  0.0032 -0.2406
   18MOL   H35411608   6.668   0.317   3.375  0.9443 -0.4936  1.1299
   18MOL   H35511609   6.698   0.171   3.280  2.3997  1.7016 -0.0111
   18MOL   H35611610   6.802   0.213   3.521  0.0467  1.2038 -1.9766
   18MOL   H35711611   6.640   0.189   3.577  0.3273 -0.1029  0.4940
   18MOL   H35811612   6.809   7.677   3.418 -2.2770  0.4708 -2.5784
   18MOL   H35911613   6.644   7.656   3.472 -0.9724  1.7161  0.3864
   18MOL   H36011614   6.715   7.682   3.706  0.6837 -0.3353  0.6407
   18MOL   H36111615   6.880   7.691   3.640  0.6533  0.5359 -1.1197
   18MOL   H36211616   6.757   7.439   3.545  0.3621  0.2657  0.1683
   18MOL   H36311617   6.918   7.483   3.603  0.4695 -1.0866  0.2784
   18MOL   H36411618   6.797   7.456   3.718 -0.2833 -1.2096 -1.0751
   18MOL   C36511619   5.950   0.252   3.216  0.4692  0.1889 -1.0732
   18MOL   C36611620   5.913   0.400   3.238 -0.4706 -0.7392  0.4106
   18MOL   C36711621   5.847   0.476   3.121  0.3890 -0.1056  0.2034
   18MOL   C36811622   5.731   0.414   3.044 -0.0686  0.3218  0.4873
   18MOL   C36911623   5.657   0.497   2.945  0.0643 -1.1820 -0.0470
   18MOL   C37011624   5.617   0.430   2.818  0.5818 -0.0918 -0.4196
   18MOL   C37111625   5.520   0.520   2.726 -0.3099 -0.0760 -0.2248
   18MOL   C37211626   5.481   0.460   2.592  0.0335  0.1333 -0.3665
   18MOL   C37311627   5.392   0.558   2.515 -0.3153 -0.5900  0.1764
   18MOL   C37411628   5.353   0.499   2.379  0.1697 -0.4960 -0.9249
   18MOL   C37511629   5.273   0.371   2.408 -0.2094 -0.0933  0.1493
   18MOL   H37611630   5.862   0.188   3.205  0.2818  0.5585 -1.7093
   18MOL   H37711631   5.995   0.204   3.303  3.6583  0.8802 -2.2681
   18MOL   H37811632   6.009   0.447   3.256 -1.4520  1.3557  0.3440
   18MOL   H37911633   5.936   0.490   3.059 -0.7529 -0.4090 -1.5369
   18MOL   H38011634   5.819   0.575   3.157  1.0385  0.1054  0.1304
   18MOL   H38111635   5.661   0.362   3.110  1.0126 -1.9416 -0.0933
   18MOL   H38211636   5.770   0.327   2.991  1.1629 -0.7610  3.0900
   18MOL   H38311637   5.724   0.580   2.922 -2.1836  0.9163  0.7458
   18MOL   H38411638   5.577   0.546   3.001  0.2346 -3.3748  2.1668
   18MOL   H38511639   5.569   0.337   2.849 -0.7781  0.2812 -1.3340
   18MOL   H38611640   5.706   0.408   2.759 -0.2133 -2.1922 -0.8872
   18MOL   H38711641   5.431   0.541   2.785  1.2213  0.4605  1.9995
   18MOL   H38811642   5.572   0.615   2.710  0.1888 -0.2878  0.0968
   18MOL   H38911643   5.434   0.364   2.616  0.8148 -0.0848  0.3036
   18MOL   H39011644   5.570   0.426   2.540 -1.6527 -1.1921 -2.4921
   18MOL   H39111645   5.305   0.591   2.571  1.1561  0.8897  1.6590
   18MOL   H39211646   5.458   0.641   2.491  1.6673 -1.8973  0.9655
   18MOL   H39311647   5.298   0.573   2.321  0.1956  1.1285  1.0839
   18MOL   H39411648   5.447   0.478   2.328  1.9588 -0.1781  2.0892
   18MOL   H39511649   5.192   0.352   2.337 -1.0576 -1.0387  1.3483
   18MOL   H39611650   5.209   0.378   2.496 -0.2430  1.2217  0.0201
   18MOL   H39711651   5.339   0.284   2.413 -0.3299 -0.2965 -1.5605
   18MOL   C39811652   5.822   0.423   3.368  0.2904 -0.3165 -0.4697
   18MOL   C39911653   5.873   0.545   3.454 -0.1430  0.0672  0.1561
   18MOL   C40011654   6.012   0.518   3.513  0.5863 -0.2592 -0.5264
   18MOL   C40111655   6.024   0.387   3.603  0.2266 -0.3676 -0.2839
   18MOL   C40211656   6.167   0.381   3.661 -0.1550 -0.1507  0.9658
   18MOL   C40311657   6.211   0.260   3.738 -0.0543 -0.1038 -0.5795
   18MOL   C40411658   6.347   0.281   3.804  0.2231 -0.4515 -0.5247
   18MOL   C40511659   6.409   0.149   3.857 -0.1374  1.4020  0.0991
   18MOL   C40611660   6.543   0.177   3.924 -0.3441 -0.2501 -0.2004
   18MOL   C40711661   6.534   0.261   4.058 -0.4979  0.0845 -0.4028
   18MOL   C40811662   6.454   0.191   4.166  0.0971  0.4471  0.2132
   18MOL   H40911663   5.811   0.329   3.422 -1.6812 -0.3097 -0.8197
   18MOL   H41011664   5.721   0.443   3.334 -0.5811 -0.8122  1.7138
   18MOL   H41111665   5.885   0.632   3.390  1.4888  0.2807  0.7201
   18MOL   H41211666   6.047   0.592   3.586  2.1713 -0.7415 -0.7953
   18MOL   H41311667   6.083   0.515   3.430  3.7218 -0.1368  2.0375
   18MOL   H41411668   5.957   0.379   3.689 -0.7597 -2.9921 -1.2511
   18MOL   H41511669   6.009   0.297   3.545 -2.5855  0.2244 -0.5323
   18MOL   H41611670   6.239   0.400   3.581 -0.8398  3.0430  1.0425
   18MOL   H41711671   6.185   0.471   3.721  2.6468  0.2220 -0.3259
   18MOL   H41811672   6.226   0.177   3.668  2.5970 -1.4008  1.4279
   18MOL   H41911673   6.138   0.234   3.814  3.1778  0.3013  2.8356
   18MOL   H42011674   6.424   0.331   3.745  0.7597 -0.6873 -0.0305
   18MOL   H42111675   6.337   0.349   3.888 -1.7368 -1.9086  0.4636
   18MOL   H42211676   6.419   0.085   3.769  0.4821  2.2324 -0.4456
   18MOL   H42311677   6.342   0.096   3.924 -1.3730  1.3300 -1.1567
   18MOL   H42411678   6.573   0.074   3.943 -1.7137 -0.2745  2.0914
   18MOL   H42511679   6.617   0.220   3.857  0.7417 -1.3962  0.2547
   18MOL   H42611680   6.485   0.356   4.036 -1.6921 -1.3105 -4.1182
   18MOL   H42711681   6.631   0.290   4.099 -1.4186  3.6402 -0.5296
   18MOL   H42811682   6.452   0.244   4.261  2.7035  0.7477  0.1506
   18MOL   H42911683   6.513   0.101   4.180 -2.5686 -1.2464  0.7849
   18MOL   H43011684   6.357   0.156   4.132  0.5851  1.1456 -1.9959
   18MOL   C43111685   5.771   0.575   3.566  0.1667 -0.3157  0.3098
   18MOL   C43211686   5.683   0.703   3.555 -0.4252 -0.2083  0.3972
   18MOL   C43311687   5.642   0.743   3.695  0.6875  0.9162 -0.1316
   18MOL   C43411688   5.756   0.806   3.779 -0.0080  0.1349 -0.0153
   18MOL   C43511689   5.715   0.858   3.922 -0.2872  0.9640 -0.0665
   18MOL   C43611690   5.833   0.914   3.999 -0.3849  0.3046  0.0582
   18MOL   C43711691   5.784   0.955   4.135  0.1002  0.1460 -0.6093
   18MOL   C43811692   5.889   1.017   4.218  0.1723 -0.0789 -0.3583
   18MOL   C43911693   5.827   1.077   4.345  0.1274 -0.4193  0.8321
   18MOL   C44011694   5.933   1.150   4.435 -0.2754  1.0199  0.7431
   18MOL   C44111695   5.983   1.287   4.390  0.0618  0.2110 -0.7690
   18MOL   H44211696   5.830   0.584   3.658 -1.1600 -1.6582  1.3185
   18MOL   H44311697   5.714   0.485   3.587 -1.8933  0.4471 -1.8473
   18MOL   H44411698   5.740   0.787   3.514 -0.3479  0.4787  1.8744
   18MOL   H44511699   5.564   0.818   3.680  0.0547  0.0202 -1.4169
   18MOL   H44611700   5.582   0.665   3.742 -2.1188  2.3648 -1.1955
   18MOL   H44711701   5.812   0.880   3.722 -1.1295  1.1588  0.1737
   18MOL   H44811702   5.833   0.734   3.803  1.2555  1.4613 -0.0109
   18MOL   H44911703   5.668   0.770   3.966  1.8349 -1.5279 -2.5722
   18MOL   H45011704   5.644   0.938   3.900 -0.8175  0.6316  0.4097
   18MOL   H45111705   5.872   1.005   3.955 -1.4646  0.7761  0.0723
   18MOL   H45211706   5.916   0.844   4.011 -0.5776 -0.1349 -1.1291
   18MOL   H45311707   5.757   0.861   4.183 -0.0288  0.1959 -0.5864
   18MOL   H45411708   5.697   1.020   4.128  0.7792  1.3172  1.4539
   18MOL   H45511709   5.946   0.937   4.265  0.5782  1.4128  1.7839
   18MOL   H45611710   5.960   1.085   4.173 -0.9405  0.8012 -0.8069
   18MOL   H45711711   5.785   0.997   4.406  0.9610 -0.7439  0.9938
   18MOL   H45811712   5.750   1.149   4.317 -0.6193 -0.3786  2.9573
   18MOL   H45911713   6.017   1.083   4.456 -0.8383  0.5759  1.5702
   18MOL   H46011714   5.891   1.163   4.534 -0.3049 -1.5473  1.0922
   18MOL   H46111715   6.062   1.274   4.316  0.5003  0.2440 -0.3114
   18MOL   H46211716   5.910   1.355   4.347  1.0706  0.2300 -2.4724
   18MOL   H46311717   6.040   1.342   4.465 -3.7460  1.7357  1.1679
   18MOL   C46411718   5.563   0.679   3.463 -0.2762  0.4163  0.2470
   18MOL   C46511719   5.498   0.815   3.413  0.7359  0.2995 -0.0832
   18MOL   C46611720   5.507   0.819   3.263 -0.5943 -0.2518  0.3372
   18MOL   C46711721   5.643   0.819   3.190 -0.3146 -0.7089 -0.4398
   18MOL   C46811722   5.642   0.870   3.038  0.4181  0.3473  0.2129
   18MOL   C46911723   5.787   0.887   2.993 -0.0431 -0.0163  0.6096
   18MOL   C47011724   5.813   0.915   2.847  0.5783 -0.1005 -0.0975
   18MOL   C47111725   5.963   0.950   2.824 -0.2138 -0.1954 -0.0004
   18MOL   C47211726   6.061   0.841   2.861 -0.1036  0.9753  0.3583
   18MOL   C47311727   6.049   0.702   2.793  0.0139  0.1374 -0.2356
   18MOL   C47411728   6.153   0.617   2.855 -0.4504  0.3425  0.3882
   18MOL   H47511729   5.486   0.624   3.516  1.4520 -1.8344  0.5113
   18MOL   H47611730   5.580   0.608   3.382  0.9823 -0.4249  1.2180
   18MOL   H47711731   5.551   0.904   3.446  0.2237  0.8274 -0.6519
   18MOL   H47811732   5.466   0.909   3.217  0.7142 -0.3154 -0.9789
   18MOL   H47911733   5.448   0.741   3.215 -0.5471 -0.3735  0.4803
   18MOL   H48011734   5.718   0.872   3.250 -0.1885  0.5325 -1.6842
   18MOL   H48111735   5.689   0.720   3.188  0.9420 -0.1731  0.7801
   18MOL   H48211736   5.596   0.967   3.026  1.4138  0.7461 -0.4040
   18MOL   H48311737   5.590   0.805   2.968 -1.7625  0.9665  1.2344
   18MOL   H48411738   5.838   0.967   3.047 -2.0259  0.7992  1.3300
   18MOL   H48511739   5.830   0.794   3.030  1.0985  1.9336  4.4412
   18MOL   H48611740   5.772   0.827   2.797  0.6829 -0.8695  1.1582
   18MOL   H48711741   5.743   0.990   2.808 -0.1736 -1.2300 -0.9554
   18MOL   H48811742   5.984   0.967   2.718  3.8719 -2.0414  0.4308
   18MOL   H48911743   5.994   1.044   2.869  3.3016 -0.9911 -0.5825
   18MOL   H49011744   6.161   0.883   2.862  0.1431  0.3667  1.3959
   18MOL   H49111745   6.045   0.814   2.965  0.7697  1.9663  0.7566
   18MOL   H49211746   5.956   0.647   2.804 -0.4035  1.1004  1.3485
   18MOL   H49311747   6.074   0.716   2.688  1.6821  2.0848  0.3791
   18MOL   H49411748   6.137   0.601   2.961 -0.5268  0.7779  0.4423
   18MOL   H49511749   6.252   0.658   2.835 -0.0397 -0.0984  1.4599
   18MOL   H49611750   6.145   0.517   2.813  0.1391 -0.5777  2.4081
   18MOL   C49711751   5.344   0.835   3.446 -0.0775 -0.0595  0.2903
   18MOL   C49811752   5.286   0.982   3.425 -0.3105  0.0112 -0.8905
   18MOL   C49911753   5.346   1.084   3.521 -0.3531  0.5241  0.2641
   18MOL   C50011754   5.348   1.055   3.665 -0.1421  0.1667  0.0579
   18MOL   C50111755   5.426   1.168   3.742 -0.2693 -0.0251 -0.2492
   18MOL   C50211756   5.427   1.151   3.897 -0.5531 -0.1802 -0.0030
   18MOL   C50311757   5.490   1.271   3.968  0.3392 -0.3027 -0.1615
   18MOL   C50411758   5.395   1.398   3.986 -0.6384  0.5598  0.4316
   18MOL   C50511759   5.452   1.506   4.083  0.3571  0.2521 -0.0537
   18MOL   C50611760   5.353   1.617   4.112  0.1561 -0.8161  0.1204
   18MOL   C50711761   5.325   1.708   3.994  0.5392 -0.2344  0.0423
   18MOL   H50811762   5.290   0.768   3.380 -0.4141  1.2354 -0.7619
   18MOL   H50911763   5.334   0.808   3.551  2.7835 -2.6122 -0.0110
   18MOL   H51011764   5.303   1.021   3.324  1.7999  0.6255 -0.3298
   18MOL   H51111765   5.307   1.185   3.507 -2.5482 -0.1757  1.1444
   18MOL   H51211766   5.449   1.094   3.485 -0.2865 -0.0613  0.2853
   18MOL   H51311767   5.396   0.962   3.696 -1.1591  0.5036  2.7993
   18MOL   H51411768   5.243   1.050   3.694 -0.4921 -0.7788 -1.3059
   18MOL   H51511769   5.528   1.167   3.702 -0.0358  2.8835  0.1097
   18MOL   H51611770   5.373   1.260   3.715  1.4394  0.6165 -1.5155
   18MOL   H51711771   5.331   1.126   3.943 -1.5393  1.5146 -1.1111
   18MOL   H51811772   5.492   1.070   3.932  0.4249  0.7784  0.4188
   18MOL   H51911773   5.517   1.227   4.064  2.5685 -2.0618 -1.5375
   18MOL   H52011774   5.583   1.298   3.918  2.1600 -2.6508  1.7992
   18MOL   H52111775   5.297   1.375   4.027 -0.1083  0.3214  1.6061
   18MOL   H52211776   5.383   1.436   3.885 -0.9236  1.8015  0.9281
   18MOL   H52311777   5.552   1.536   4.052 -0.0206  1.7801  0.1660
   18MOL   H52411778   5.469   1.446   4.173 -1.4823  0.4363  0.4498
   18MOL   H52511779   5.392   1.684   4.188 -0.9561 -1.3772  1.2010
   18MOL   H52611780   5.252   1.589   4.144 -1.3461  0.2381 -3.4324
   18MOL   H52711781   5.237   1.765   4.024  0.8547  0.9261 -1.1499
   18MOL   H52811782   5.304   1.649   3.905  2.1668 -2.0161  0.8252
   18MOL   H52911783   5.413   1.767   3.969 -0.5110  0.7980 -1.4035
   18MOL   C53011784   5.134   0.972   3.449  0.3005  0.7057  0.3707
   18MOL   C53111785   5.059   1.097   3.397  0.3714  0.3454 -0.3086
   18MOL   C53211786   4.904   1.070   3.429 -0.1639  0.4304  0.1338
   18MOL   C53311787   4.866   1.130   3.563 -0.7409  0.4493 -0.2548
   18MOL   C53411788   4.714   1.109   3.599 -0.0422 -0.3464  0.3464
   18MOL   C53511789   4.658   1.204   3.706 -0.3128  1.1350 -0.2123
   18MOL   C53611790   4.514   1.176   3.740 -0.6671 -0.1364 -0.0829
   18MOL   C53711791   4.452   1.291   3.822 -0.0254  0.1787  0.1547
   18MOL   C53811792   4.303   1.262   3.849  0.3341  0.2792 -0.4660
   18MOL   C53911793   4.230   1.382   3.898  0.6791  0.0846  0.4759
   18MOL   C54011794   4.275   1.435   4.033 -0.3611  0.1258  0.6436
   18MOL   H54111795   5.103   0.889   3.386  2.0193 -1.2703  2.0813
   18MOL   H54211796   5.110   0.963   3.555 -0.1442 -0.8083  0.1563
   18MOL   H54311797   5.090   1.180   3.461  0.1506  1.6422 -1.8617
   18MOL   H54411798   4.883   0.964   3.424  1.4879 -0.0264  2.0042
   18MOL   H54511799   4.846   1.124   3.354  0.2169 -0.5046 -0.8416
   18MOL   H54611800   4.904   1.232   3.569 -1.3289  0.7630 -1.5524
   18MOL   H54711801   4.932   1.078   3.633  1.1264  1.9596 -0.8458
   18MOL   H54811802   4.704   1.005   3.630  0.3503 -0.3199  0.5633
   18MOL   H54911803   4.658   1.102   3.506  1.3198 -2.2512 -0.3727
   18MOL   H55011804   4.660   1.307   3.668 -1.0055  1.0070 -0.6060
   18MOL   H55111805   4.721   1.211   3.795 -1.3863 -2.7424  0.9471
   18MOL   H55211806   4.503   1.081   3.792  1.0159  0.6062  1.6871
   18MOL   H55311807   4.457   1.170   3.647  1.8329 -2.4295 -1.5463
   18MOL   H55411808   4.462   1.385   3.767  0.1228  0.8845  1.3671
   18MOL   H55511809   4.497   1.300   3.921 -0.3377  3.1067  0.0701
   18MOL   H55611810   4.296   1.186   3.928  0.5665 -1.7261 -2.3124
   18MOL   H55711811   4.254   1.219   3.762 -0.7430  2.2081 -0.8227
   18MOL   H55811812   4.125   1.353   3.907  0.1610  1.1026 -1.9092
   18MOL   H55911813   4.226   1.463   3.825  1.2189 -0.1424  0.1926
   18MOL   H56011814   4.195   1.485   4.088 -0.4219  0.9900 -0.2324
   18MOL   H56111815   4.305   1.345   4.088  0.1825 -0.3621 -0.4297
   18MOL   H56211816   4.366   1.495   4.034  0.0365 -0.3720 -1.8753
   18MOL   C56311817   5.076   1.115   3.245  0.1579 -0.0955  0.4497
   18MOL   C56411818   5.166   1.228   3.194 -0.0101  0.3193 -0.9834
   18MOL   C56511819   5.105   1.369   3.221 -0.0365  0.5098  0.0747
   18MOL   C56611820   4.966   1.393   3.162  0.2127  0.2549  0.9404
   18MOL   C56711821   4.897   1.508   3.227 -0.1064  0.1890  0.2179
   18MOL   C56811822   4.835   1.484   3.360 -0.0277 -0.0773 -0.5663
   18MOL   C56911823   4.745   1.599   3.401 -0.3046 -0.8727  0.5565
   18MOL   C57011824   4.690   1.590   3.545 -0.4675  0.5921 -0.3048
   18MOL   C57111825   4.587   1.705   3.575 -0.0564 -0.0877  0.6667
   18MOL   C57211826   4.547   1.717   3.728  0.1202 -0.8035  0.7396
   18MOL   C57311827   4.653   1.803   3.792 -0.9809  0.4664 -0.1608
   18MOL   H57411828   4.985   1.100   3.187  1.0960 -0.3877 -1.0024
   18MOL   H57511829   5.119   1.022   3.207  0.2071  0.2107 -0.2505
   18MOL   H57611830   5.257   1.227   3.254 -1.8729 -0.6240  1.8595
   18MOL   H57711831   5.175   1.451   3.203  1.7327 -1.1489 -0.6957
   18MOL   H57811832   5.088   1.375   3.329 -0.0471 -0.2263  0.1144
   18MOL   H57911833   4.898   1.307   3.157 -0.0299  0.4662  0.5274
   18MOL   H58011834   4.980   1.421   3.057  0.4078  1.2350  1.2294
   18MOL   H58111835   4.824   1.533   3.150 -0.9109 -2.2345  0.1744
   18MOL   H58211836   4.957   1.599   3.235 -1.2826  0.8812  1.4601
   18MOL   H58311837   4.774   1.394   3.362  0.8587 -0.6968 -1.3379
   18MOL   H58411838   4.905   1.461   3.440 -0.2725  0.1526 -0.2874
   18MOL   H58511839   4.799   1.687   3.367  2.1124 -2.6212 -0.2725
   18MOL   H58611840   4.666   1.593   3.326  0.6456  0.8903 -0.6131
   18MOL   H58711841   4.776   1.593   3.610 -0.4956 -0.2699 -0.2274
   18MOL   H58811842   4.630   1.500   3.557  2.2785 -1.2529 -0.2242
   18MOL   H58911843   4.499   1.680   3.516 -0.0292 -1.0897  1.0290
   18MOL   H59011844   4.637   1.794   3.537  0.0536  0.3962  1.9284
   18MOL   H59111845   4.523   1.623   3.779 -1.6769 -0.9042 -0.2642
   18MOL   H59211846   4.458   1.779   3.737  0.1823 -0.4726 -0.8423
   18MOL   H59311847   4.637   1.830   3.896 -1.9354 -1.2872  0.1682
   18MOL   H59411848   4.744   1.743   3.798 -1.7381 -0.7079 -0.2152
   18MOL   H59511849   4.674   1.895   3.737  0.5121  3.0971  4.5142
   18MOL   C59611850   5.208   1.206   3.051  0.2315 -0.7693  0.3936
   18MOL   C59711851   5.332   1.291   3.012 -0.0456 -0.3652  0.9601
   18MOL   C59811852   5.334   1.297   2.860 -0.7717  0.7342  0.3283
   18MOL   C59911853   5.449   1.397   2.813  0.3512  0.2541  0.0552
   18MOL   C60011854   5.441   1.429   2.663  0.2924 -0.3456  0.5238
   18MOL   C60111855   5.565   1.495   2.602  0.5938 -0.1663 -0.5823
   18MOL   C60211856   5.604   1.642   2.633 -0.2608  0.2197  0.9274
   18MOL   C60311857   5.493   1.735   2.609 -0.1029  0.0006  0.2057
   18MOL   C60411858   5.448   1.762   2.460 -0.2893  0.6107 -0.4171
   18MOL   C60511859   5.538   1.852   2.380  0.2178 -0.0240  0.5887
   18MOL   C60611860   5.479   1.888   2.239  0.5158 -0.5098  0.0440
   18MOL   H60711861   5.226   1.101   3.028  1.0045 -0.6274  0.3565
   18MOL   H60811862   5.131   1.229   2.977 -0.0424  0.4246  1.0373
   18MOL   H60911863   5.316   1.391   3.052 -1.0045 -1.5071  3.5720
   18MOL   H61011864   5.237   1.328   2.821  0.1397  1.8341 -1.1274
   18MOL   H61111865   5.345   1.193   2.828 -0.3389  0.3449  1.7153
   18MOL   H61211866   5.550   1.356   2.827  0.3990  0.2696 -0.2442
   18MOL   H61311867   5.443   1.493   2.864 -0.1942  0.4863 -0.4410
   18MOL   H61411868   5.348   1.484   2.655  0.4219 -0.0889  0.7763
   18MOL   H61511869   5.435   1.338   2.604  0.6689  0.1073 -0.2194
   18MOL   H61611870   5.648   1.430   2.628  1.5133  0.6696 -1.3872
   18MOL   H61711871   5.549   1.490   2.494  0.4775 -0.2823 -0.5587
   18MOL   H61811872   5.685   1.670   2.566 -1.0644 -2.9131 -1.5338
   18MOL   H61911873   5.632   1.654   2.738  1.0342 -3.0535  1.0238
   18MOL   H62011874   5.535   1.826   2.652  0.2773  0.4227 -1.0437
   18MOL   H62111875   5.405   1.721   2.672 -0.9651  0.5299 -0.8570
   18MOL   H62211876   5.443   1.672   2.399 -0.2752 -0.4478  1.1197
   18MOL   H62311877   5.347   1.804   2.454 -0.6223 -0.2660 -0.9613
   18MOL   H62411878   5.635   1.808   2.357  0.3115  0.4658  0.0486
   18MOL   H62511879   5.557   1.944   2.435 -3.1238  1.2375 -0.2609
   18MOL   H62611880   5.393   1.953   2.255 -0.5835 -2.4113  2.1351
   18MOL   H62711881   5.553   1.942   2.179 -1.8942  4.0132  0.9425
   18MOL   H62811882   5.434   1.806   2.184  1.6479 -1.0007 -0.1826
   18MOL   C62911883   5.468   1.224   3.069 -0.9394  0.2772  0.0598
   18MOL   C63011884   5.547   1.328   3.151  0.1934  0.1826  0.5749
   18MOL   C63111885   5.683   1.290   3.195 -0.2751 -1.1123 -0.0093
   18MOL   C63211886   5.691   1.209   3.328 -0.1776  0.0466  0.3902
   18MOL   C63311887   5.835   1.190   3.375 -0.2417 -0.5277  0.4278
   18MOL   C63411888   5.857   1.075   3.478  0.3345  0.2812 -0.8415
   18MOL   C63511889   5.997   1.034   3.472 -0.7416  0.8315  0.2673
   18MOL   C63611890   6.015   0.927   3.366  0.3027  0.4106 -0.3386
   18MOL   C63711891   6.154   0.863   3.355 -0.3595 -0.7499  0.9109
   18MOL   C63811892   6.177   0.771   3.236 -0.1138  0.2995  0.6003
   18MOL   C63911893   6.309   0.689   3.231 -0.5405 -0.3817  0.2231
   18MOL   H64011894   5.442   1.138   3.131 -0.2464  0.2709  0.3432
   18MOL   H64111895   5.526   1.177   2.989 -0.6676  1.7029 -0.6017
   18MOL   H64211896   5.556   1.415   3.086 -2.4888  0.3704  0.3784
   18MOL   H64311897   5.729   1.234   3.113  2.7777 -0.6477  1.3245
   18MOL   H64411898   5.750   1.376   3.204  0.0297 -1.3247 -0.2081
   18MOL   H64511899   5.640   1.114   3.311 -0.0055  0.4299 -2.6909
   18MOL   H64611900   5.631   1.255   3.406  2.5825  0.7499  2.1650
   18MOL   H64711901   5.878   1.282   3.414  0.9590 -0.5179 -0.9301
   18MOL   H64811902   5.901   1.173   3.291 -1.9024 -1.0767 -0.7869
   18MOL   H64911903   5.788   0.998   3.444 -0.3437  0.3760  0.3021
   18MOL   H65011904   5.829   1.100   3.580  0.5386  0.4772 -0.8334
   18MOL   H65111905   6.021   0.986   3.567  1.5297  0.0535 -0.6574
   18MOL   H65211906   6.062   1.116   3.443  1.9057 -1.2896 -0.0023
   18MOL   H65311907   5.988   0.953   3.263  1.6165 -1.9404 -1.3164
   18MOL   H65411908   5.961   0.835   3.390  0.2469  0.8186  1.1109
   18MOL   H65511909   6.166   0.803   3.445  1.9895  0.5568  1.5157
   18MOL   H65611910   6.237   0.935   3.358 -0.0534 -1.0529 -0.2519
   18MOL   H65711911   6.172   0.830   3.145 -0.3181  1.6619  1.4934
   18MOL   H65811912   6.093   0.701   3.237  0.0827  0.0063 -1.0913
   18MOL   H65911913   6.399   0.748   3.242 -0.8504  0.0716  0.3200
   18MOL   H66011914   6.315   0.631   3.139  2.1743 -1.1562  0.8477
   18MOL   H66111915   6.312   0.616   3.312 -0.6818  0.7448  1.2463
   18MOL   H66211916   5.494   1.358   3.242  1.4429  3.6790  0.2208
   19MOL     C111917   5.920   6.209   6.981  0.4088 -0.0109 -0.2422
   19MOL     C211918   5.825   6.234   6.863 -0.0449  0.3401  0.3629
   19MOL     C311919   5.741   6.107   6.844  0.2699  0.4414  0.8563
   19MOL     C411920   5.639   6.068   6.949  0.2094 -0.1241  0.2759
   19MOL     C511921   5.571   5.931   6.922 -0.1393  0.2574  0.4494
   19MOL     C611922   5.507   5.902   6.783 -0.1026  0.0860 -0.2212
   19MOL     C711923   5.389   6.003   6.751 -0.8537 -0.5702  0.3613
   19MOL     C811924   5.259   5.998   6.832 -0.3256  0.1910  0.9356
   19MOL     C911925   5.154   6.106   6.800 -0.2505 -0.0198  0.3154
   19MOL    C1011926   5.105   6.097   6.656 -0.1479 -0.8436  0.2506
   19MOL    C1111927   4.986   6.174   6.634 -0.2435 -0.0768  0.6017
   19MOL    H1211928   5.851   6.192   7.064  0.7230  0.9571  0.2162
   19MOL    H1311929   5.992   6.286   7.006 -0.4700  0.7039  0.1227
   19MOL    H1411930   5.893   6.240   6.778 -0.2119 -2.4643 -0.0293
   19MOL    H1511931   5.808   6.022   6.831 -1.2329 -0.6408  0.1320
   19MOL    H1611932   5.696   6.106   6.745  1.0363 -0.4402  0.5042
   19MOL    H1711933   5.565   6.146   6.968  0.4698 -0.6448  3.7436
   19MOL    H1811934   5.687   6.063   7.047 -1.8775  0.3243  1.3397
   19MOL    H1911935   5.649   5.857   6.941 -0.5648 -0.4568 -0.5100
   19MOL    H2011936   5.499   5.912   7.002 -4.2385  2.3290 -2.6179
   19MOL    H2111937   5.467   5.800   6.780  3.5931 -1.4378  0.0705
   19MOL    H2211938   5.588   5.911   6.710  0.3182 -0.6595  0.1528
   19MOL    H2311939   5.421   6.105   6.769  0.9378 -1.3125  1.5196
   19MOL    H2411940   5.364   5.995   6.645  1.9114  0.1556 -0.3786
   19MOL    H2511941   5.278   6.008   6.938  0.5524 -2.2427  1.0514
   19MOL    H2611942   5.210   5.900   6.824  0.2584  0.0215 -0.8542
   19MOL    H2711943   5.197   6.201   6.833  0.6401 -0.8051  1.4792
   19MOL    H2811944   5.068   6.091   6.865  0.0575  1.3963  1.0736
   19MOL    H2911945   5.067   5.997   6.635 -0.3468 -1.4952  3.4167
   19MOL    H3011946   5.179   6.114   6.577 -2.4822 -0.1591 -1.8445
   19MOL    H3111947   4.942   6.148   6.538  2.7947 -0.2564 -0.8007
   19MOL    H3211948   4.912   6.149   6.710 -0.1194  1.1729  1.1496
   19MOL    H3311949   4.992   6.283   6.629 -1.8282  0.0258  0.7316
   19MOL    H3411950   5.972   6.114   6.970  0.4043  0.0158 -0.5156
   19MOL    C3511951   5.744   6.363   6.879  1.1343 -0.0508 -0.1574
   19MOL    C3611952   5.818   6.491   6.838  0.1467  1.0608  0.7068
   19MOL    C3711953   5.830   6.490   6.684 -0.6578 -0.0252  0.5260
   19MOL    C3811954   5.918   6.600   6.621 -0.0876 -0.0900  0.3950
   19MOL    C3911955   6.075   6.578   6.637  0.5878  0.4483 -0.5244
   19MOL    C4011956   6.159   6.688   6.574 -0.0293 -0.0445  0.4122
   19MOL    C4111957   6.147   6.828   6.632 -0.2785 -0.3503 -0.3944
   19MOL    C4211958   6.232   6.926   6.541 -0.1709 -0.9662 -0.1512
   19MOL    C4311959   6.376   6.886   6.515 -0.1682 -0.5695 -0.1762
   19MOL    C4411960   6.479   7.001   6.492  0.1397 -0.0815  0.2827
   19MOL    C4511961   6.429   7.119   6.399  0.3859 -0.8905 -0.4243
   19MOL    H4611962   5.715   6.364   6.984 -0.5298 -3.0756 -0.5112
   19MOL    H4711963   5.651   6.352   6.823  1.3227  1.2628 -0.7496
   19MOL    H4811964   5.921   6.474   6.873  0.4138 -2.1686 -1.4283
   19MOL    H4911965   5.868   6.390   6.663 -1.7474 -0.3452  0.0460
   19MOL    H5011966   5.739   6.510   6.628 -0.1722  0.9855  0.0709
   19MOL    H5111967   5.876   6.696   6.652  0.7722  0.0380  1.1854
   19MOL    H5211968   5.912   6.603   6.512 -1.1050 -0.9137  0.4310
   19MOL    H5311969   6.101   6.484   6.589  1.1033  0.8548 -1.0431
   19MOL    H5411970   6.095   6.559   6.742 -0.3034 -1.2921 -0.6462
   19MOL    H5511971   6.135   6.692   6.468 -1.5521 -1.8446  0.6686
   19MOL    H5611972   6.262   6.654   6.579  0.2904  0.5765 -1.3417
   19MOL    H5711973   6.044   6.862   6.632 -1.2372 -3.1639  0.8087
   19MOL    H5811974   6.190   6.844   6.731 -1.5682  2.8186 -0.3017
   19MOL    H5911975   6.217   7.032   6.563  2.2204 -0.9286  1.4382
   19MOL    H6011976   6.186   6.923   6.442  0.7862 -0.1343 -0.6274
   19MOL    H6111977   6.373   6.824   6.425  0.9963 -2.1973  0.8896
   19MOL    H6211978   6.410   6.822   6.596 -1.0431  0.1085  0.7416
   19MOL    H6311979   6.500   7.048   6.588 -1.2863 -2.4019  1.7950
   19MOL    H6411980   6.576   6.961   6.462 -1.2839 -0.6339 -4.0047
   19MOL    H6511981   6.336   7.157   6.441 -0.7699 -3.8016 -0.1783
   19MOL    H6611982   6.502   7.199   6.392  0.7432 -1.1215  0.6430
   19MOL    H6711983   6.406   7.081   6.299  0.2558 -0.1218 -0.6851
   19MOL    C6811984   5.755   6.623   6.895  0.4693  0.5332  0.2351
   19MOL    C6911985   5.724   6.621   7.053  0.3800 -0.1458 -0.3769
   19MOL    C7011986   5.841   6.569   7.129 -0.4933 -0.3838 -0.2706
   19MOL    C7111987   5.838   6.583   7.281  0.3247 -0.3789  0.1327
   19MOL    C7211988   5.975   6.529   7.335 -0.1306  0.0970  0.7033
   19MOL    C7311989   5.977   6.538   7.485 -0.0147  0.1098  0.1525
   19MOL    C7411990   6.086   6.456   7.545  0.1921  0.1952 -0.1349
   19MOL    C7511991   6.069   6.447   7.697 -0.5342  0.1807  0.5517
   19MOL    C7611992   6.180   6.369   0.057 -0.2964 -0.1376 -0.5335
   19MOL    C7711993   6.184   6.371   0.210 -0.5046  0.6504  0.4009
   19MOL    C7811994   6.304   6.299   0.272 -0.2368  0.0049 -0.1055
   19MOL    H7911995   5.665   6.642   6.837  1.9570  1.1489 -1.9539
   19MOL    H8011996   5.826   6.702   6.872 -0.0022  0.7986 -0.3267
   19MOL    H8111997   5.644   6.549   7.068  1.4872 -1.2960  0.0613
   19MOL    H8211998   5.934   6.614   7.094  0.7576 -2.8225 -0.1960
   19MOL    H8311999   5.851   6.464   7.101  0.3322  0.2865 -2.6402
   19MOL    H8412000   5.819   6.678   7.330 -0.9540 -1.0928  1.0579
   19MOL    H8512001   5.752   6.524   7.314 -1.3113  1.0858 -1.3858
   19MOL    H8612002   6.057   6.592   7.300 -0.9472  1.6192  1.4864
   19MOL    H8712003   5.989   6.424   7.306  0.8180  0.5838 -0.6742
   19MOL    H8812004   5.997   6.641   7.515 -3.4260  0.9249 -0.1622
   19MOL    H8912005   5.878   6.513   7.522  0.8713 -1.7576  1.3263
   19MOL    H9012006   6.183   6.498   7.519  0.6650 -0.9963 -0.3426
   19MOL    H9112007   6.081   6.356   7.502 -1.3330  0.9201 -1.7261
   19MOL    H9212008   6.070   6.546   0.041  0.6382 -0.3324  1.6447
   19MOL    H9312009   5.975   6.393   7.702  0.0111 -0.9375 -0.9143
   19MOL    H9412010   6.185   6.269   0.014 -2.5646  0.1640 -1.6250
   19MOL    H9512011   6.273   6.412   0.021 -1.0571  0.6274 -1.6371
   19MOL    H9612012   6.192   6.476   0.237  0.7286  0.3051  1.4911
   19MOL    H9712013   6.092   6.338   0.258 -0.0599  0.2070  0.9687
   19MOL    H9812014   6.297   6.278   0.379  2.1227 -0.8246 -0.0842
   19MOL    H9912015   6.390   6.364   0.256 -1.4294  1.5205 -0.4446
   19MOL   H10012016   6.318   6.202   0.223 -0.0667 -1.4883  2.7734
   19MOL   C10112017   5.677   6.762   7.100  0.1385 -0.0530  0.0955
   19MOL   C10212018   5.557   6.828   7.015 -0.5027  0.6398 -0.2027
   19MOL   C10312019   5.562   6.980   7.028 -0.3329  0.2826 -0.2297
   19MOL   C10412020   5.689   7.045   6.965  0.6827 -0.1494 -0.4095
   19MOL   C10512021   5.683   7.195   6.930 -0.3902 -0.6991 -0.3590
   19MOL   C10612022   5.822   7.252   6.912  0.0243  0.1112 -0.6079
   19MOL   C10712023   5.827   7.404   6.889 -0.0727  0.4489 -0.2347
   19MOL   C10812024   5.958   7.479   6.911  0.5313 -0.2660  0.5248
   19MOL   C10912025   6.068   7.430   6.810  0.3519 -0.1917  0.1219
   19MOL   C11012026   6.182   7.535   6.815 -0.7226  0.3958 -0.0163
   19MOL   C11112027   6.288   7.518   6.711  0.4709 -0.0103 -0.4932
   19MOL   H11212028   5.652   6.763   7.206 -0.1878  0.0333  0.0170
   19MOL   H11312029   5.769   6.820   7.103  0.5229 -0.3897 -3.2118
   19MOL   H11412030   5.558   6.800   6.910  2.0915  3.6154 -1.0684
   19MOL   H11512031   5.477   7.023   6.975 -0.7104  0.4475  0.4913
   19MOL   H11612032   5.555   7.009   7.133 -2.3617  1.9176 -0.7718
   19MOL   H11712033   5.771   7.023   7.034  0.7823  0.1558 -0.4306
   19MOL   H11812034   5.710   6.999   6.868  0.3762  1.6185 -1.3373
   19MOL   H11912035   5.615   7.230   6.852  0.7151  0.8017 -0.6655
   19MOL   H12012036   5.639   7.238   7.020  1.6526  1.9838 -0.5835
   19MOL   H12112037   5.868   7.226   7.008 -1.4804  0.4796  0.2354
   19MOL   H12212038   5.866   7.191   6.834 -3.5723 -2.3266 -0.8572
   19MOL   H12312039   5.751   7.446   6.955 -0.0771 -1.5180  1.0570
   19MOL   H12412040   5.795   7.416   6.786 -0.8283 -3.4555 -0.5338
   19MOL   H12512041   5.934   7.584   6.892  2.2005  0.1573  0.7309
   19MOL   H12612042   5.992   7.465   7.014 -0.4745 -1.5711  0.6986
   19MOL   H12712043   6.109   7.330   6.828  1.3525 -0.2785 -2.4383
   19MOL   H12812044   6.035   7.424   6.706  2.1996  1.1506 -0.5614
   19MOL   H12912045   6.235   7.526   6.909  1.3628  1.8160 -1.0178
   19MOL   H13012046   6.149   7.638   6.806  2.3092  1.4509  0.5986
   19MOL   H13112047   6.332   7.419   6.727  1.1834  0.7758  2.7670
   19MOL   H13212048   6.241   7.530   6.614 -0.7853 -0.6715  0.0297
   19MOL   H13312049   6.367   7.591   6.726  0.7613 -0.4013 -0.0872
   19MOL   C13412050   5.426   6.773   7.073 -0.0906 -0.2925 -0.3898
   19MOL   C13512051   5.367   6.643   7.023  0.7614 -0.5294  0.4722
   19MOL   C13612052   5.291   6.666   6.890 -0.1029  0.4575  0.2878
   19MOL   C13712053   5.288   6.548   6.787 -0.7394 -0.4034 -0.2694
   19MOL   C13812054   5.386   6.566   6.681 -0.1840  0.2637 -0.1717
   19MOL   C13912055   5.398   6.446   6.584  0.0247  0.7182  0.0984
   19MOL   C14012056   5.271   6.398   6.524  0.1784  0.1507 -0.6846
   19MOL   C14112057   5.219   6.490   6.412 -0.0803 -0.7939  0.2238
   19MOL   C14212058   5.077   6.453   6.376 -0.5493 -0.3668 -0.2438
   19MOL   C14312059   5.052   6.313   6.323  0.2903  0.6370  0.1856
   19MOL   C14412060   4.909   6.288   6.282  0.3959  0.2851  0.0185
   19MOL   H14512061   5.445   6.757   7.179 -0.6243 -0.4369 -0.3125
   19MOL   H14612062   5.350   6.851   7.068 -0.2568 -0.4774 -0.7360
   19MOL   H14712063   5.450   6.572   7.016  1.2670 -0.0176  1.2614
   19MOL   H14812064   5.337   6.752   6.842  0.9489 -1.0436 -1.4540
   19MOL   H14912065   5.187   6.691   6.910 -1.6327 -3.6687 -1.9441
   19MOL   H15012066   5.296   6.449   6.832  2.5895 -1.7289 -3.5122
   19MOL   H15112067   5.186   6.556   6.749 -0.7341  0.2452 -0.1537
   19MOL   H15212068   5.367   6.659   6.627  1.0867  1.2706  1.0604
   19MOL   H15312069   5.487   6.579   6.721  0.0073 -1.2995 -0.1113
   19MOL   H15412070   5.458   6.475   6.497  0.6038 -0.9236 -0.0537
   19MOL   H15512071   5.448   6.370   6.643 -1.3449  0.3713  0.8290
   19MOL   H15612072   5.289   6.292   6.507  0.4499 -1.0935  5.7847
   19MOL   H15712073   5.190   6.391   6.597 -1.5605  0.3826 -2.5693
   19MOL   H15812074   5.220   6.591   6.453  1.2920 -0.9928  0.6953
   19MOL   H15912075   5.288   6.485   6.328 -0.5214  0.7541 -0.2424
   19MOL   H16012076   5.015   6.450   6.466 -1.9135 -0.3144 -1.1642
   19MOL   H16112077   5.042   6.529   6.306 -1.1583 -0.1091  0.3441
   19MOL   H16212078   5.117   6.285   6.239  1.0683 -0.2992  1.0827
   19MOL   H16312079   5.090   6.251   6.404 -0.3871  0.9163  0.7189
   19MOL   H16412080   4.907   6.192   6.230  1.6693  0.1110  0.2630
   19MOL   H16512081   4.898   6.367   6.208 -2.2082 -2.0940 -2.2515
   19MOL   H16612082   4.844   6.293   6.368  1.4301 -0.8671  0.8920
   19MOL   C16712083   5.267   6.588   7.120  0.3331 -0.1757  0.4701
   19MOL   C16812084   5.324   6.478   7.221 -0.4828 -0.5205  0.7664
   19MOL   C16912085   5.337   6.334   7.155 -0.0470 -0.0304 -0.0268
   19MOL   C17012086   5.409   6.218   7.223  0.1804 -0.1071  0.1842
   19MOL   C17112087   5.552   6.252   7.247 -0.4729  0.2102 -0.2422
   19MOL   C17212088   5.620   6.139   7.315  1.2800 -0.0790 -0.3806
   19MOL   C17312089   5.754   6.175   7.377  0.1958 -0.3672 -0.1259
   19MOL   C17412090   5.848   6.053   7.392  0.6474 -0.2588 -0.5122
   19MOL   C17512091   5.992   6.088   7.433  0.6659  0.5996  0.1991
   19MOL   C17612092   6.087   5.970   7.415 -0.3856 -0.4040  0.4162
   19MOL   C17712093   6.128   5.938   7.271  0.4729 -0.1929 -0.0426
   19MOL   H17812094   5.226   6.672   7.177 -0.1549 -1.7261  2.4934
   19MOL   H17912095   5.181   6.550   7.064  0.5981 -1.0660  0.6579
   19MOL   H18012096   5.419   6.519   7.254 -1.2325  0.9656  1.1166
   19MOL   H18112097   5.374   6.343   7.053  0.0474 -1.6228 -0.1450
   19MOL   H18212098   5.237   6.304   7.125 -1.0803  3.1762 -0.0470
   19MOL   H18312099   5.357   6.189   7.314 -1.4400  2.5990  0.1616
   19MOL   H18412100   5.393   6.132   7.158 -2.5072  1.5119 -1.3817
   19MOL   H18512101   5.549   6.343   7.307  1.9284 -2.1070  3.6660
   19MOL   H18612102   5.605   6.292   7.161 -0.1952  0.4199  0.0238
   19MOL   H18712103   5.558   6.123   7.404  0.6097 -0.0663 -0.8446
   19MOL   H18812104   5.605   6.046   7.260 -1.8971  0.8491 -1.1516
   19MOL   H18912105   5.752   6.223   7.475  0.1102 -0.6088 -0.0090
   19MOL   H19012106   5.794   6.251   7.310 -1.0485  0.5743  0.1974
   19MOL   H19112107   5.814   5.989   7.473  0.2285  1.1754  0.4669
   19MOL   H19212108   5.840   6.002   7.296  0.8889  0.0694 -0.7098
   19MOL   H19312109   5.994   6.122   7.537 -0.1679  0.5113  0.2446
   19MOL   H19412110   6.012   6.169   7.363 -0.4328  0.5884 -0.1400
   19MOL   H19512111   6.034   5.883   7.454  1.0685 -1.5774 -0.1924
   19MOL   H19612112   6.171   5.995   7.479 -1.1332 -0.1834  1.3185
   19MOL   H19712113   6.035   5.948   7.214  1.2459 -0.2991 -1.3468
   19MOL   H19812114   6.182   5.843   7.268  0.5063 -0.2136  0.9862
   19MOL   H19912115   6.188   6.024   7.242 -0.1548 -0.0263 -0.8695
   19MOL   C20012116   5.236   6.466   7.345 -0.1287 -0.2701 -0.5698
   19MOL   C20112117   5.259   6.566   7.466  0.0941  0.1645 -0.2093
   19MOL   C20212118   5.397   6.549   7.533  0.3186  0.3213  0.8928
   19MOL   C20312119   5.426   6.422   7.612 -0.6982  0.1258  0.7842
   19MOL   C20412120   5.572   6.405   7.648 -0.1397 -0.0766 -0.2181
   19MOL   C20512121   5.586   6.273   0.035 -0.1413  0.0480  0.1891
   19MOL   C20612122   5.732   6.245   0.085  0.6444  1.0331  0.0722
   19MOL   C20712123   5.727   6.112   0.159 -1.4393  0.4232  0.1053
   19MOL   C20812124   5.861   6.068   0.229  0.3300  0.0647 -0.0342
   19MOL   C20912125   5.965   6.004   0.143  0.0842  0.2043 -0.2385
   19MOL   C21012126   5.939   5.859   0.115 -0.6259  1.1762 -0.1624
   19MOL   H21112127   5.132   6.482   7.317 -0.2880 -0.2374  0.0406
   19MOL   H21212128   5.250   6.367   7.390 -1.2610 -0.1550  0.0393
   19MOL   H21312129   5.266   6.655   7.404  0.6139  0.3776  0.1561
   19MOL   H21412130   5.417   6.629   7.604 -1.4273  1.0664  0.5752
   19MOL   H21512131   5.474   6.553   7.456 -1.8878 -0.2459 -1.4286
   19MOL   H21612132   5.398   6.332   7.557  0.7326  0.3469 -0.3392
   19MOL   H21712133   5.359   6.414   7.697 -2.7292 -0.5996 -0.8273
   19MOL   H21812134   5.610   6.493   7.701  2.0987  0.1613 -2.1420
   19MOL   H21912135   5.642   6.403   7.564 -2.2996 -1.1928 -2.0448
   19MOL   H22012136   5.512   6.272   0.115 -1.5564  1.0489 -1.0917
   19MOL   H22112137   5.559   6.182   7.685  1.3013 -2.2443  3.2247
   19MOL   H22212138   5.758   6.331   0.147 -0.3888 -0.4434  2.6323
   19MOL   H22312139   5.801   6.243   0.001  2.3778  0.1366  1.4838
   19MOL   H22412140   5.700   6.036   0.085  4.3671 -1.0622 -0.7384
   19MOL   H22512141   5.650   6.124   0.235 -1.8496  1.4486 -0.4675
   19MOL   H22612142   5.830   6.003   0.311  1.0661  1.0711  1.0716
   19MOL   H22712143   5.904   6.156   0.278 -0.1925  1.0794 -1.3638
   19MOL   H22812144   5.991   6.063   0.056 -1.0741  0.6740 -0.2756
   19MOL   H22912145   6.059   6.010   0.198  0.1253  1.5381 -0.4447
   19MOL   H23012146   5.922   5.806   0.208  1.6147 -0.2834 -0.5428
   19MOL   H23112147   6.023   5.812   0.064  0.3813  2.5843  0.1564
   19MOL   H23212148   5.859   5.842   0.043 -0.7345 -1.0969  0.4558
   19MOL   C23312149   5.149   6.566   7.571  0.7851  0.0190 -0.3378
   19MOL   C23412150   5.002   6.587   7.539 -0.3324 -0.2206  0.6315
   19MOL   C23512151   4.983   6.725   7.483  0.1246 -0.1763 -0.2039
   19MOL   C23612152   4.844   6.746   7.419 -0.3878 -0.5155 -0.2274
   19MOL   C23712153   4.814   6.702   7.270 -0.1812  0.0268 -0.4070
   19MOL   C23812154   4.676   6.754   7.220  0.4253  0.8423  0.1674
   19MOL   C23912155   4.681   6.745   7.063  0.0835  0.1364 -1.0811
   19MOL   C24012156   4.545   6.778   6.988 -0.5942 -0.1845  0.7466
   19MOL   C24112157   4.442   6.670   6.996 -0.4063  0.0768  0.5609
   19MOL   C24212158   4.311   6.702   6.916  0.1617  0.0821  0.0330
   19MOL   C24312159   4.226   6.576   6.908 -0.0632  0.7378 -0.6308
   19MOL   H24412160   5.186   6.647   7.634  1.8575 -1.4066  0.9036
   19MOL   H24512161   5.160   6.484   7.642 -2.4754  0.8069  1.1388
   19MOL   H24612162   4.958   6.512   7.473  2.0107  0.2722 -1.5568
   19MOL   H24712163   4.996   6.792   7.568  0.0835 -1.2246  0.6408
   19MOL   H24812164   5.059   6.756   7.412 -0.8106  2.4977 -0.0924
   19MOL   H24912165   4.842   6.855   7.418 -2.1353 -0.5047 -3.5773
   19MOL   H25012166   4.755   6.713   7.473 -1.1413 -2.3382 -2.4782
   19MOL   H25112167   4.811   6.594   7.264  2.8215 -0.0882 -0.4981
   19MOL   H25212168   4.894   6.743   7.208  1.3897 -0.3291  1.3837
   19MOL   H25312169   4.668   6.863   7.229  1.3058  1.1326 -2.3378
   19MOL   H25412170   4.589   6.708   7.268  0.2487 -1.3968 -2.2339
   19MOL   H25512171   4.762   6.807   7.026 -0.9512  2.1759 -0.0287
   19MOL   H25612172   4.716   6.646   7.035  4.4928  1.2499  0.1395
   19MOL   H25712173   4.499   6.872   7.019 -0.6061  0.0876 -0.0854
   19MOL   H25812174   4.585   6.779   6.887 -0.9765 -0.7782  0.5870
   19MOL   H25912175   4.479   6.571   6.970  1.8860  1.3311 -1.1446
   19MOL   H26012176   4.413   6.655   7.100 -0.9137  0.4686  0.4745
   19MOL   H26112177   4.339   6.727   6.814  0.2795  0.8927  0.2639
   19MOL   H26212178   4.253   6.784   6.959 -1.1168 -1.0887  0.5905
   19MOL   H26312179   4.134   6.588   6.851 -1.9820 -2.1396  1.6635
   19MOL   H26412180   4.199   6.548   7.010  2.3845 -1.0649 -0.4368
   19MOL   H26512181   4.270   6.486   6.865 -1.8345  0.4616 -1.9294
   19MOL   C26612182   4.917   6.557   7.662 -1.0135 -0.1776 -0.6287
   19MOL   C26712183   4.902   6.406   7.702 -0.4025  0.4104 -0.5940
   19MOL   C26812184   4.830   6.317   7.590 -1.2007 -0.2591 -0.3214
   19MOL   C26912185   4.813   6.166   7.618  0.0042 -0.3171 -0.2348
   19MOL   C27012186   4.765   6.094   7.499 -0.1209 -0.1016  0.3812
   19MOL   C27112187   4.620   6.137   7.453 -0.4895 -0.1117 -0.3959
   19MOL   C27212188   4.545   6.034   7.370  0.8545 -0.1701 -0.3147
   19MOL   C27312189   4.422   6.090   7.296 -0.4049 -0.3370 -0.6989
   19MOL   C27412190   4.461   6.196   7.197  0.3771  0.5573  0.3609
   19MOL   C27512191   4.444   6.348   7.221  0.4906  0.3726 -0.1465
   19MOL   C27612192   4.303   6.384   7.243 -0.0101 -0.7109 -0.2092
   19MOL   H27712193   4.817   6.597   7.645 -2.5497 -3.8091 -0.6505
   19MOL   H27812194   4.955   6.616   0.042 -0.8317 -1.9316  0.5640
   19MOL   H27912195   5.004   6.368   0.001 -1.0962 -1.5766 -1.6416
   19MOL   H28012196   4.729   6.353   7.572 -0.8200  1.2577  0.5116
   19MOL   H28112197   4.870   6.333   7.490  0.2611 -1.6881  0.0019
   19MOL   H28212198   4.751   6.136   7.702 -0.0736  0.2366 -0.0913
   19MOL   H28312199   4.916   6.141   7.642 -0.2899 -1.1150  0.2274
   19MOL   H28412200   4.762   5.988   7.522  0.6763 -0.4067 -0.8790
   19MOL   H28512201   4.823   6.118   7.410 -1.6219  1.0692 -0.3129
   19MOL   H28612202   4.629   6.228   7.393 -1.0806  0.4471  0.3548
   19MOL   H28712203   4.550   6.165   7.532  1.3373  1.0457  0.8395
   19MOL   H28812204   4.609   5.982   7.298 -1.3215 -0.0653 -2.3761
   19MOL   H28912205   4.519   5.956   7.442  0.1676 -0.5947 -1.0174
   19MOL   H29012206   4.348   6.124   7.369  1.6642 -0.2323  1.4222
   19MOL   H29112207   4.368   6.008   7.247 -0.8337 -1.3555  1.4183
   19MOL   H29212208   4.556   6.168   7.151  0.3020  0.3718  0.3191
   19MOL   H29312209   4.395   6.167   7.116 -2.4537  2.5519  1.8754
   19MOL   H29412210   4.473   6.396   7.128 -1.3241  2.3412  0.2497
   19MOL   H29512211   4.517   6.374   7.298  0.0908 -1.0664  0.7496
   19MOL   H29612212   4.233   6.336   7.174 -2.8023  0.6901  1.5254
   19MOL   H29712213   4.295   6.491   7.221 -2.1351 -0.7319  0.3446
   19MOL   H29812214   4.272   6.356   7.343  0.3234 -3.3845 -0.8101
   19MOL   C29912215   4.831   6.399   0.139  0.7300  0.0990  0.8271
   19MOL   C30012216   4.909   6.368   0.273 -0.2593  0.3863  0.4576
   19MOL   C30112217   5.020   6.471   0.302 -0.4826  0.4013  0.1247
   19MOL   C30212218   5.165   6.442   0.252 -0.3288  0.7856 -0.6095
   19MOL   C30312219   5.253   6.565   0.268  0.6690 -0.6856 -0.4934
   19MOL   C30412220   5.401   6.531   0.264  0.4944  0.1275  0.5495
   19MOL   C30512221   5.495   6.653   0.286 -1.1545 -0.5330  0.1101
   19MOL   C30612222   5.489   6.730   0.420  0.3906 -0.7883 -0.8354
   19MOL   C30712223   5.586   6.846   0.416 -0.5522 -0.4719 -0.5303
   19MOL   C30812224   5.626   6.885   0.558 -0.3151  0.0154  0.5630
   19MOL   C30912225   5.732   6.993   0.544 -0.3035 -0.1390 -0.4183
   19MOL   H31012226   4.744   6.334   0.129 -1.0609  2.4077  1.0508
   19MOL   H31112227   4.785   6.496   0.155  1.8431  0.9159 -0.7742
   19MOL   H31212228   4.830   6.372   0.347 -0.3785 -2.8652  0.5942
   19MOL   H31312229   4.989   6.567   0.261 -3.9089 -0.9737 -0.6886
   19MOL   H31412230   5.044   6.490   0.406  2.7172  0.5839 -0.6030
   19MOL   H31512231   5.224   6.368   0.307  1.2693  1.4785 -1.3392
   19MOL   H31612232   5.158   6.406   0.150  0.6243 -0.7205 -0.1532
   19MOL   H31712233   5.237   6.635   0.186  0.0049  0.4600  0.5990
   19MOL   H31812234   5.215   6.619   0.354  0.0344 -0.8820 -0.6454
   19MOL   H31912235   5.428   6.495   0.165 -0.8134 -0.5674  0.4366
   19MOL   H32012236   5.428   6.463   0.345  0.8518  0.4913  0.7400
   19MOL   H32112237   5.595   6.622   0.257 -1.5203 -1.7058  0.0776
   19MOL   H32212238   5.468   6.723   0.207  2.4820  0.7446 -0.0639
   19MOL   H32312239   5.500   6.659   0.501  1.1453  1.3165  0.9581
   19MOL   H32412240   5.389   6.770   0.433  0.3405 -0.8181 -1.1184
   19MOL   H32512241   5.547   6.934   0.365 -1.5261 -0.5766  0.0182
   19MOL   H32612242   5.683   6.823   0.373 -0.1467  2.6802 -1.4294
   19MOL   H32712243   5.658   6.801   0.619 -0.8579  0.3856  1.3818
   19MOL   H32812244   5.545   6.930   0.616 -1.4724 -0.7864 -0.4189
   19MOL   H32912245   5.761   7.044   0.636  0.5390 -0.8749 -0.2677
   19MOL   H33012246   5.827   6.961   0.502  0.9358  0.2731  1.9788
   19MOL   H33112247   5.704   7.080   0.484 -0.7873  0.0500  0.0620
   19MOL   C33212248   4.961   6.223   0.279  0.3053 -0.2079 -0.0183
   19MOL   C33312249   5.014   6.185   0.420  0.1874  0.2946 -0.6012
   19MOL   C33412250   5.114   6.069   0.416  0.5217 -0.4944  0.6577
   19MOL   C33512251   5.249   6.101   0.478 -0.0729  0.0224 -0.5677
   19MOL   C33612252   5.352   6.000   0.430  0.0669  0.4685 -0.3399
   19MOL   C33712253   5.486   6.006   0.502  0.4921 -0.1428 -0.5121
   19MOL   C33812254   5.573   5.877   0.462  0.1312  0.7038 -0.3854
   19MOL   C33912255   5.692   5.858   0.558  0.1710 -0.1055  0.1667
   19MOL   C34012256   5.786   5.739   0.520  0.6219 -0.0851 -0.4568
   19MOL   C34112257   5.929   5.763   0.559  0.0192  0.1903  1.1355
   19MOL   C34212258   6.014   5.642   0.548  0.2547  0.1410  0.2626
   19MOL   H34312259   4.885   6.158   0.237 -0.8646  1.8141 -1.1282
   19MOL   H34412260   5.050   6.223   0.216  1.3218  0.9827  1.3684
   19MOL   H34512261   5.075   6.274   0.435 -0.8103  1.0987 -1.2238
   19MOL   H34612262   5.124   6.044   0.311  2.1273 -0.0016  0.6806
   19MOL   H34712263   5.058   5.991   0.468 -0.0294 -0.0899  0.6798
   19MOL   H34812264   5.286   6.202   0.460 -2.6448  0.9546 -0.9295
   19MOL   H34912265   5.221   6.088   0.583 -0.2768  1.6253 -0.4090
   19MOL   H35012266   5.320   5.896   0.439 -0.4802  0.7606  1.1553
   19MOL   H35112267   5.360   6.017   0.323 -4.2705 -0.8873 -0.9617
   19MOL   H35212268   5.459   6.034   0.604 -1.7637  2.3561 -1.7488
   19MOL   H35312269   5.539   6.097   0.472 -0.0706  0.1752 -0.5353
   19MOL   H35412270   5.598   5.879   0.356 -2.1065 -0.0234 -0.9506
   19MOL   H35512271   5.511   5.787   0.468 -0.8253  1.4719  1.4686
   19MOL   H35612272   5.743   5.954   0.561 -0.4053  0.1766  1.0891
   19MOL   H35712273   5.656   5.829   0.657 -1.7577 -1.6806 -0.9547
   19MOL   H35812274   5.790   5.724   0.412 -0.4844 -0.7911 -0.4140
   19MOL   H35912275   5.753   5.643   0.561  3.3523  0.3188  2.9731
   19MOL   H36012276   5.948   5.811   0.656  0.1637  0.3538  1.0280
   19MOL   H36112277   5.976   5.837   0.494  1.1721  0.4584  2.2421
   19MOL   H36212278   6.118   5.674   0.559  0.0796  0.4468  1.0748
   19MOL   H36312279   5.990   5.561   0.616 -0.9057  0.0783 -0.2142
   19MOL   H36412280   6.005   5.599   0.448  1.1876  0.2767  0.1113
   19MOL   C36512281   4.900   6.175   0.526 -0.4651 -0.7259  0.6074
   19MOL   C36612282   4.927   6.167   0.671 -0.1615 -0.1621  0.6221
   19MOL   C36712283   4.995   6.293   0.721  0.2561  0.0932  0.2737
   19MOL   C36812284   5.039   6.289   0.869 -0.6536 -0.1176  0.0021
   19MOL   C36912285   5.104   6.426   0.909  0.1454 -1.2514  0.2696
   19MOL   C37012286   5.142   6.447   1.052 -0.4036 -0.3993 -0.3111
   19MOL   C37112287   5.249   6.352   1.107  0.4660  0.5953 -0.5236
   19MOL   C37212288   5.266   6.373   1.257 -0.3832  0.1125  0.0794
   19MOL   C37312289   5.354   6.267   1.337  1.2380  0.1346  0.3856
   19MOL   C37412290   5.329   6.284   1.483  0.5970  0.4779  0.0103
   19MOL   C37512291   5.373   6.166   1.561 -0.1232 -0.3943  0.4902
   19MOL   H37612292   4.826   6.253   0.505  0.3816 -0.2919 -0.8852
   19MOL   H37712293   4.858   6.080   0.495 -0.3930 -0.6413  0.2450
   19MOL   H37812294   4.994   6.081   0.678 -1.3137 -1.1552 -0.3032
   19MOL   H37912295   4.917   6.370   0.717  1.9388  1.9507  2.0676
   19MOL   H38012296   5.082   6.319   0.660  1.0537  0.3856  1.5082
   19MOL   H38112297   5.108   6.205   0.874 -0.4158  0.0030 -1.1862
   19MOL   H38212298   4.959   6.276   0.941 -1.6106 -1.7165 -1.3290
   19MOL   H38312299   5.030   6.502   0.886  2.1441  0.6848  0.0751
   19MOL   H38412300   5.193   6.454   0.853 -0.8342 -1.7840 -1.5731
   19MOL   H38512301   5.055   6.445   1.117 -0.9133  1.0297 -0.9445
   19MOL   H38612302   5.181   6.548   1.059 -1.3055 -0.1584  1.5305
   19MOL   H38712303   5.225   6.251   1.074  0.5101 -0.2484  1.9193
   19MOL   H38812304   5.348   6.362   1.062 -0.1285  0.7135 -1.8259
   19MOL   H38912305   5.166   6.364   1.299 -0.4714 -2.5244 -0.6143
   19MOL   H39012306   5.291   6.478   1.275 -1.5539  0.1154  1.7420
   19MOL   H39112307   5.327   6.164   1.314  0.0609  0.7793 -1.1386
   19MOL   H39212308   5.461   6.281   1.316  0.9877  1.7304  0.0777
   19MOL   H39312309   5.372   6.376   1.523 -0.3721  1.5286 -1.3348
   19MOL   H39412310   5.223   6.297   1.508  0.6070 -0.7964  0.7487
   19MOL   H39512311   5.476   6.138   1.538 -0.1551 -0.2829  0.2059
   19MOL   H39612312   5.312   6.079   1.537 -0.7711  0.2363 -0.1468
   19MOL   H39712313   5.374   6.192   1.667  1.9672 -0.0098  0.3952
   19MOL   C39812314   4.791   6.133   0.744  0.2519 -0.2214  0.7553
   19MOL   C39912315   4.801   6.002   0.831  0.2496  0.0676 -0.7616
   19MOL   C40012316   4.806   5.876   0.748  0.1358 -0.4250  0.1352
   19MOL   C40112317   4.675   5.839   0.680 -0.4130  1.0028 -0.3080
   19MOL   C40212318   4.686   5.727   0.572  0.0439 -0.3092  0.0636
   19MOL   C40312319   4.766   5.776   0.455  0.1202 -0.1156  0.7989
   19MOL   C40412320   4.737   5.690   0.327  0.1489  0.1689 -0.3564
   19MOL   C40512321   4.798   5.750   0.204 -0.4262 -0.5295 -0.1924
   19MOL   C40612322   4.812   5.662   0.079  0.3223  0.2189 -0.3150
   19MOL   C40712323   4.888   5.723   7.665 -0.2221  0.0600  0.4428
   19MOL   C40812324   4.936   5.619   7.552  0.1465  0.5137 -0.0859
   19MOL   H40912325   4.706   6.112   0.678  0.0379 -2.8920  1.8141
   19MOL   H41012326   4.751   6.219   0.798  0.1464  0.5132 -0.4678
   19MOL   H41112327   4.900   6.000   0.877 -0.5718 -3.5557  1.0153
   19MOL   H41212328   4.835   5.789   0.808 -0.4125 -1.0325 -0.4729
   19MOL   H41312329   4.874   5.883   0.663 -0.9112  0.8586 -0.6120
   19MOL   H41412330   4.603   5.806   0.755  0.0971 -2.2157 -1.1964
   19MOL   H41512331   4.628   5.922   0.628 -0.6347  1.0709 -0.0042
   19MOL   H41612332   4.741   5.642   0.611 -1.2745 -0.4590  1.6324
   19MOL   H41712333   4.586   5.694   0.543  0.1894  0.3137 -1.1656
   19MOL   H41812334   4.873   5.771   0.475  0.4151  4.9676  1.1371
   19MOL   H41912335   4.733   5.877   0.434  1.0418 -0.1600 -0.9954
   19MOL   H42012336   4.779   5.591   0.344  0.5040  0.4163  0.2147
   19MOL   H42112337   4.632   5.667   0.307  0.6194 -2.7696  0.3468
   19MOL   H42212338   4.901   5.773   0.232 -0.3255 -2.6337  1.2573
   19MOL   H42312339   4.753   5.849   0.188  0.7387 -0.1111 -0.9565
   19MOL   H42412340   4.865   5.578   0.122  1.3494  0.0403 -1.8889
   19MOL   H42512341   4.722   5.625   0.031  0.4286  0.0088 -0.3510
   19MOL   H42612342   4.970   5.782   0.004 -0.0247 -0.6716  1.1150
   19MOL   H42712343   4.831   5.798   7.612  0.3565  1.3872  1.6470
   19MOL   H42812344   5.014   5.550   7.586 -0.5573 -0.6595 -0.8237
   19MOL   H42912345   4.974   5.662   7.460 -2.7793 -1.2203 -2.1760
   19MOL   H43012346   4.848   5.561   7.525 -0.9341  2.4110 -0.7228
   19MOL   C43112347   4.686   5.997   0.938  0.4693  0.3137 -0.0104
   19MOL   C43212348   4.722   6.071   1.061  0.1067  0.1878  1.0368
   19MOL   C43312349   4.820   5.996   1.150  0.5507 -0.0241 -0.6002
   19MOL   C43412350   4.903   6.091   1.243 -0.0723  0.1186 -0.0740
   19MOL   C43512351   5.021   6.027   1.325  0.3002  0.3801  0.4010
   19MOL   C43612352   4.973   5.931   1.437 -0.1594 -0.1423  0.2422
   19MOL   C43712353   5.093   5.894   1.533  0.3948  0.2151 -0.5938
   19MOL   C43812354   5.055   5.793   1.649 -0.2205  0.4315  0.5083
   19MOL   C43912355   5.168   5.775   1.749 -0.2156  0.1503  0.0098
   19MOL   C44012356   5.120   5.673   1.854  0.3294 -0.3266  1.5083
   19MOL   C44112357   5.191   5.672   1.990 -0.0974  0.0058 -0.1580
   19MOL   H44212358   4.666   5.892   0.957 -0.1540  0.1225 -1.6114
   19MOL   H44312359   4.594   6.037   0.895 -0.1268 -0.3326  0.6653
   19MOL   H44412360   4.763   6.168   1.035 -0.0605 -0.4211 -1.5568
   19MOL   H44512361   4.768   5.921   1.208 -1.8556 -0.9588 -3.8333
   19MOL   H44612362   4.890   5.936   1.092  0.5751 -0.6961  0.1215
   19MOL   H44712363   4.835   6.137   1.314  1.2482  0.6841  0.8481
   19MOL   H44812364   4.933   6.166   1.170 -1.9273  0.8580 -0.1094
   19MOL   H44912365   5.087   6.104   1.364  0.8475 -0.0233  0.2792
   19MOL   H45012366   5.085   5.969   1.259  0.6841 -0.0475  1.1300
   19MOL   H45112367   4.921   5.847   1.391 -1.7339  0.4886  0.8260
   19MOL   H45212368   4.894   5.972   1.500  0.4887  0.7738  0.4852
   19MOL   H45312369   5.132   5.983   1.581 -0.9789  0.3866  0.2291
   19MOL   H45412370   5.174   5.852   1.472  0.0136 -1.7717  0.2172
   19MOL   H45512371   4.969   5.827   1.706 -0.6243  2.8466 -1.4768
   19MOL   H45612372   5.038   5.698   1.598 -1.5902  1.3707 -0.8062
   19MOL   H45712373   5.188   5.868   1.803  0.3303 -0.0257  0.1187
   19MOL   H45812374   5.262   5.750   1.700  0.1484  1.6661 -0.0933
   19MOL   H45912375   5.135   5.570   1.823  0.5410 -0.5597  2.3571
   19MOL   H46012376   5.012   5.675   1.869  0.1838  1.4016  0.4662
   19MOL   H46112377   5.213   5.778   2.000  0.6103 -0.0702 -0.8662
   19MOL   H46212378   5.139   5.623   2.073 -0.4691  1.2650  0.3568
   19MOL   H46312379   5.285   5.620   1.971 -0.6845 -0.0324 -3.1982
   19MOL   C46412380   4.593   6.108   1.144  0.4000  0.5212 -0.5165
   19MOL   C46512381   4.498   6.234   1.106  0.1192  1.0287 -0.5027
   19MOL   C46612382   4.370   6.245   1.191 -0.5614  0.0150 -0.3218
   19MOL   C46712383   4.262   6.139   1.155  0.4083  0.6569  0.0727
   19MOL   C46812384   4.149   6.131   1.255  0.7270 -0.3299 -0.9030
   19MOL   C46912385   4.185   6.056   1.384  0.2395 -0.0700  0.1119
   19MOL   C47012386   4.061   6.027   1.466  0.0652  0.1187 -0.4859
   19MOL   C47112387   4.097   5.960   1.598  0.9671 -0.1278 -0.1651
   19MOL   C47212388   4.137   6.062   1.708 -0.2029 -0.4304  0.5481
   19MOL   C47312389   4.185   5.989   1.839  0.1843 -0.9149 -0.0438
   19MOL   C47412390   4.262   6.077   1.938 -0.3529  0.0733  0.4980
   19MOL   H47512391   4.626   6.109   1.248  2.3271 -2.8119 -1.0342
   19MOL   H47612392   4.525   6.023   1.146 -0.1740  0.9799 -0.2925
   19MOL   H47712393   4.476   6.225   0.999  2.4877  3.2565 -1.2231
   19MOL   H47812394   4.320   6.340   1.172 -1.4141 -0.2528  0.5269
   19MOL   H47912395   4.388   6.242   1.299  0.7134  2.0748 -0.4584
   19MOL   H48012396   4.221   6.160   1.056 -1.1863  0.0991  0.5919
   19MOL   H48112397   4.307   6.040   1.147 -1.1279 -0.1049  0.5369
   19MOL   H48212398   4.055   6.093   1.216  0.4967 -2.6953  1.7839
   19MOL   H48312399   4.136   6.236   1.283 -2.8125 -0.6444 -1.2092
   19MOL   H48412400   4.225   5.957   1.361 -1.3802 -1.1172  1.6767
   19MOL   H48512401   4.255   6.112   1.445 -0.1490  0.6133 -0.0699
   19MOL   H48612402   4.011   6.123   1.478 -0.4224 -0.3792  1.5910
   19MOL   H48712403   3.984   5.970   1.413 -0.3662  1.7644 -1.6530
   19MOL   H48812404   4.004   5.919   1.635  1.2379  1.4950  2.4265
   19MOL   H48912405   4.162   5.875   1.580 -0.1550 -0.8250 -0.9969
   19MOL   H49012406   4.209   6.138   1.676 -0.1941 -1.0002 -0.8456
   19MOL   H49112407   4.046   6.119   1.724 -0.5455 -0.7769 -0.1460
   19MOL   H49212408   4.104   5.934   1.889  0.1096 -1.2396 -0.5221
   19MOL   H49312409   4.251   5.906   1.813  0.8888 -0.9286  1.7528
   19MOL   H49412410   4.339   6.130   1.882  0.5888 -1.2924  0.4909
   19MOL   H49512411   4.300   6.013   2.017  1.7663 -0.5985 -1.0097
   19MOL   H49612412   4.195   6.151   1.983 -0.2192  0.9662 -0.7336
   19MOL   C49712413   4.587   6.362   1.114 -0.1144  1.0663 -0.2711
   19MOL   C49812414   4.535   6.504   1.080  0.0318 -0.3803  0.0844
   19MOL   C49912415   4.455   6.526   0.953 -0.3939 -0.0825  0.0730
   19MOL   C50012416   4.538   6.490   0.829 -0.0597 -0.2654  0.1184
   19MOL   C50112417   4.453   6.501   0.706  0.5382  0.0318 -0.2778
   19MOL   C50212418   4.516   6.473   0.567  0.0979  0.0750 -0.2402
   19MOL   C50312419   4.406   6.468   0.456 -0.0223 -0.0584 -1.3429
   19MOL   C50412420   4.463   6.398   0.334 -0.6487 -0.8928 -0.4644
   19MOL   C50512421   4.356   6.390   0.221  0.0048 -0.2103  0.1408
   19MOL   C50612422   4.418   6.312   0.111 -0.1598  0.6253 -0.7674
   19MOL   C50712423   4.320   6.269   7.697  0.0848  0.5873  0.5378
   19MOL   H50812424   4.627   6.356   1.215 -1.0220  0.4466  0.0627
   19MOL   H50912425   4.671   6.352   1.045  1.3337  1.0102  1.4599
   19MOL   H51012426   4.470   6.530   1.163  0.1696 -0.4160  0.2044
   19MOL   H51112427   4.422   6.630   0.956  1.8497  0.7018 -1.8589
   19MOL   H51212428   4.366   6.463   0.960 -1.0779  0.8042 -0.5883
   19MOL   H51312429   4.583   6.391   0.823 -2.0876 -1.1441 -0.7077
   19MOL   H51412430   4.606   6.575   0.818  0.2606 -0.5183  0.1604
   19MOL   H51512431   4.379   6.424   0.727 -1.0162  0.8597 -2.5448
   19MOL   H51612432   4.400   6.596   0.701  1.3524  0.5324  0.4863
   19MOL   H51712433   4.580   6.554   0.533 -1.9711  0.8591 -2.3671
   19MOL   H51812434   4.570   6.378   0.566 -1.2397 -0.7185  0.3670
   19MOL   H51912435   4.310   6.427   0.486  0.1431  0.3431 -0.2553
   19MOL   H52012436   4.387   6.570   0.425 -0.2290  0.5852  0.8123
   19MOL   H52112437   4.488   6.297   0.366  2.4492 -0.3272 -1.0218
   19MOL   H52212438   4.554   6.449   0.303 -0.4689 -0.7577  0.2940
   19MOL   H52312439   4.322   6.486   0.183  0.2449  0.3439  1.3232
   19MOL   H52412440   4.268   6.348   0.271 -0.2175 -0.0733 -0.1367
   19MOL   H52512441   4.469   6.221   0.142  0.6899  0.8852 -1.3814
   19MOL   H52612442   4.505   6.368   0.075  1.4731 -1.0498  0.5281
   19MOL   H52712443   4.266   6.188   0.044  1.1792 -0.4387  0.0843
   19MOL   H52812444   4.373   6.237   7.607 -0.8330 -0.6919  0.4304
   19MOL   H52912445   4.249   6.348   7.674  0.0850  0.0008 -1.6253
   19MOL   C53012446   4.646   6.607   1.089 -0.3182 -0.0142  0.2805
   19MOL   C53112447   4.697   6.637   1.234 -0.4924  0.0407 -0.4146
   19MOL   C53212448   4.674   6.783   1.269 -0.0808  0.8994 -0.1161
   19MOL   C53312449   4.530   6.818   1.285 -0.7231  0.0504 -0.9365
   19MOL   C53412450   4.506   6.969   1.318 -0.7076 -0.5721 -0.7310
   19MOL   C53512451   4.380   6.981   1.403  0.1091 -0.0832  0.3836
   19MOL   C53612452   4.347   7.124   1.436  0.7505  0.6249  0.5212
   19MOL   C53712453   4.212   7.121   1.507  0.0653  0.1815  0.4623
   19MOL   C53812454   4.198   7.245   1.590  0.2408  0.2356 -0.4645
   19MOL   C53912455   4.066   7.275   1.663  0.9312 -0.5022 -0.5906
   19MOL   C54012456   4.062   7.187   1.790 -0.2980  0.5347  0.2662
   19MOL   H54112457   4.735   6.588   1.028 -1.2578  0.0410 -1.1192
   19MOL   H54212458   4.606   6.697   1.043 -0.6347 -0.7410 -0.8888
   19MOL   H54312459   4.635   6.580   1.303 -2.4047  1.4363 -0.9232
   19MOL   H54412460   4.733   6.841   1.197  0.1854 -1.7209 -2.0518
   19MOL   H54512461   4.713   6.808   1.368 -0.0479 -1.4323  0.4711
   19MOL   H54612462   4.489   6.762   1.370 -0.2333  0.8168 -0.1913
   19MOL   H54712463   4.474   6.786   1.197  1.0288  0.6932 -2.3284
   19MOL   H54812464   4.502   7.031   1.229  0.0793  0.9078  0.2377
   19MOL   H54912465   4.589   7.002   1.380 -1.0737 -0.2095 -0.4295
   19MOL   H55012466   4.382   6.922   1.494 -2.3860 -0.3344  0.2992
   19MOL   H55112467   4.289   6.950   1.351 -0.7610  2.1215  0.5458
   19MOL   H55212468   4.345   7.189   1.349 -0.4372 -1.3071 -0.9276
   19MOL   H55312469   4.428   7.150   1.505  1.6367  1.0389 -0.6583
   19MOL   H55412470   4.198   7.030   1.566 -2.6201  1.0366  1.1698
   19MOL   H55512471   4.129   7.120   1.436 -0.2763  2.1050  0.8242
   19MOL   H55612472   4.207   7.336   1.529  0.7949  2.2012  2.4561
   19MOL   H55712473   4.271   7.263   1.668 -2.0993 -0.2878  1.9296
   19MOL   H55812474   3.972   7.263   1.608 -0.0925  0.6929  0.8307
   19MOL   H55912475   4.051   7.381   1.687  1.2534 -0.4611 -0.5804
   19MOL   H56012476   4.146   7.202   1.858 -0.9151  1.7181  0.7780
   19MOL   H56112477   3.973   7.214   1.846 -3.0108 -2.3753 -2.4072
   19MOL   H56212478   4.057   7.080   1.769  3.0092  0.6752 -1.5793
   19MOL   C56312479   4.848   6.598   1.259 -0.5808 -0.5182 -0.1528
   19MOL   C56412480   4.874   6.575   1.406  0.2772 -0.5565  0.0139
   19MOL   C56512481   5.020   6.618   1.444  0.2670  0.0811 -0.1491
   19MOL   C56612482   5.038   6.768   1.454  0.1759 -0.3063  0.5863
   19MOL   C56712483   5.184   6.814   1.442  0.1139  0.4185  0.2908
   19MOL   C56812484   5.249   6.802   1.309 -0.3812  0.0153 -0.5096
   19MOL   C56912485   5.192   6.899   1.203  0.1498 -0.4775  0.3324
   19MOL   C57012486   5.278   6.917   1.077 -0.3685 -0.4615  0.6938
   19MOL   C57112487   5.303   6.795   0.989  0.1358  0.1333 -0.0466
   19MOL   C57212488   5.361   6.829   0.850  0.7210 -0.1334  0.1764
   19MOL   C57312489   5.341   6.708   0.753  0.4089 -0.1524  0.2913
   19MOL   H57412490   4.924   6.663   1.214 -0.0938 -2.3109 -1.9734
   19MOL   H57512491   4.855   6.502   1.208  0.4772 -1.2183  1.2801
   19MOL   H57612492   4.810   6.637   1.469  0.5995 -0.9024  0.6803
   19MOL   H57712493   5.090   6.570   1.376 -0.8341 -0.1158 -1.1606
   19MOL   H57812494   5.054   6.575   1.538  1.6862  1.9612  0.2219
   19MOL   H57912495   4.995   6.785   1.553 -1.4839 -1.0473 -0.0039
   19MOL   H58012496   4.981   6.817   1.376  0.9521 -0.3488 -0.0102
   19MOL   H58112497   5.245   6.765   1.518  0.9221 -1.6924 -1.6778
   19MOL   H58212498   5.189   6.917   1.477  0.1323  0.5370 -0.0606
   19MOL   H58312499   5.350   6.840   1.321 -1.1305  1.3583  1.8775
   19MOL   H58412500   5.266   6.699   1.277  3.5507 -0.9848  4.1690
   19MOL   H58512501   5.097   6.861   1.165  1.0454 -0.8630 -1.5730
   19MOL   H58612502   5.158   6.993   1.247  0.1030 -0.9647  1.3548
   19MOL   H58712503   5.373   6.952   1.117 -0.5766  1.4416 -0.4110
   19MOL   H58812504   5.243   7.006   1.026  1.8208 -1.1155 -2.0908
   19MOL   H58912505   5.211   6.738   0.980  1.3809 -1.9335 -0.1601
   19MOL   H59012506   5.355   6.723   1.053 -0.1770  1.4921  1.7924
   19MOL   H59112507   5.464   6.862   0.866  0.9541 -1.7201  2.1311
   19MOL   H59212508   5.321   6.917   0.800  2.2204  0.1596 -0.5709
   19MOL   H59312509   5.423   6.638   0.770 -0.3414 -1.4527 -1.2838
   19MOL   H59412510   5.242   6.662   0.766  0.0673  1.0136  2.0268
   19MOL   H59512511   5.321   6.743   0.652 -1.0351  0.9790  0.9495
   19MOL   C59612512   4.854   6.427   1.442  0.4502  0.8446  0.5088
   19MOL   C59712513   4.840   6.407   1.594 -1.0338  0.4421 -0.7106
   19MOL   C59812514   4.944   6.304   1.646 -0.7568  0.9262  0.2993
   19MOL   C59912515   4.960   6.304   1.794  0.4245  0.4814 -0.3096
   19MOL   C60012516   5.062   6.204   1.849  0.1216  0.0424 -0.7850
   19MOL   C60112517   5.084   6.229   1.996  0.3724  0.3659  0.0413
   19MOL   C60212518   5.155   6.109   2.073 -0.1503 -0.4238  0.6484
   19MOL   C60312519   5.302   6.082   2.042  1.1181 -0.0505 -0.1826
   19MOL   C60412520   5.389   6.211   2.052 -0.5470 -0.2270  0.6685
   19MOL   C60512521   5.536   6.176   2.026  0.1728 -0.2301  0.6056
   19MOL   C60612522   5.570   6.101   1.896 -0.3909 -0.0607  0.6979
   19MOL   H60712523   4.767   6.386   1.393  1.5382 -1.6477  0.6033
   19MOL   H60812524   4.935   6.371   1.395 -0.6833 -1.8342  1.6491
   19MOL   H60912525   4.859   6.503   1.642 -0.7009 -0.0594  0.1617
   19MOL   H61012526   5.039   6.338   1.604 -0.8753 -0.0859 -0.8265
   19MOL   H61112527   4.922   6.205   1.607 -0.1630  1.1059 -0.5097
   19MOL   H61212528   4.866   6.294   1.848  0.1998  0.6139 -0.6730
   19MOL   H61312529   4.979   6.410   1.815 -0.0105  0.5303 -0.1666
   19MOL   H61412530   5.158   6.201   1.798  0.5350  0.4886 -0.0379
   19MOL   H61512531   5.021   6.105   1.829  0.0481 -0.3488  1.1959
   19MOL   H61612532   5.144   6.320   2.002  2.7110 -1.1547 -0.1614
   19MOL   H61712533   4.996   6.265   2.051 -0.2497 -0.9745 -0.0540
   19MOL   H61812534   5.092   6.021   2.064  0.7541 -0.9425 -0.7663
   19MOL   H61912535   5.150   6.136   2.178 -1.2198  0.0397  0.4839
   19MOL   H62012536   5.305   6.040   1.941  2.4135 -2.4464  0.8102
   19MOL   H62112537   5.344   6.006   2.107 -2.0193 -1.2006  0.5769
   19MOL   H62212538   5.351   6.278   1.974  0.5235  1.2067  1.3731
   19MOL   H62312539   5.368   6.260   2.147 -0.9576  3.6128 -1.2990
   19MOL   H62412540   5.552   6.107   2.109 -2.3815 -2.4348 -0.6332
   19MOL   H62512541   5.599   6.263   2.044  0.5924 -0.5717  0.7775
   19MOL   H62612542   5.551   6.145   1.799 -2.0176 -0.0113  1.0144
   19MOL   H62712543   5.673   6.068   1.902 -0.7703 -1.6309 -1.0430
   19MOL   H62812544   5.519   6.004   1.890 -0.5265 -0.0322  1.2754
   19MOL   C62912545   4.699   6.351   1.616  0.3061  0.2662 -0.3738
   19MOL   C63012546   4.593   6.457   1.601 -0.3399  0.4472 -0.0335
   19MOL   C63112547   4.451   6.410   1.602  0.5957 -0.0490  0.5483
   19MOL   C63212548   4.369   6.528   1.546  0.5814 -0.6532  0.6294
   19MOL   C63312549   4.220   6.489   1.543 -0.3426 -0.0425 -1.0215
   19MOL   C63412550   4.139   6.602   1.485 -0.3773  0.0505 -0.2620
   19MOL   C63512551   3.994   6.570   1.447 -0.1632 -0.3991  0.1530
   19MOL   C63612552   3.907   6.687   1.413  0.6245 -0.9640  0.3263
   19MOL   C63712553   3.843   6.758   1.535  0.3112 -0.1952  0.0868
   19MOL   C63812554   3.790   6.898   1.494 -0.3800 -0.8512 -0.3520
   19MOL   C63912555   3.697   6.971   1.594  0.0310  0.1891 -0.1924
   19MOL   H64012556   4.678   6.270   1.547 -1.5661 -0.2840  0.7834
   19MOL   H64112557   4.694   6.305   1.715 -0.5390 -0.2958 -0.6700
   19MOL   H64212558   4.606   6.542   1.669  0.1181  0.4228 -0.0875
   19MOL   H64312559   4.440   6.322   1.538 -0.7765  0.3323  0.2301
   19MOL   H64412560   4.431   6.368   1.700  1.8203 -1.0645  0.3726
   19MOL   H64512561   4.401   6.572   1.452 -0.2173 -0.7445  0.3113
   19MOL   H64612562   4.391   6.619   1.602  3.5265 -0.3306 -0.9526
   19MOL   H64712563   4.187   6.461   1.644  1.6151  2.0903  0.2475
   19MOL   H64812564   4.210   6.398   1.484 -2.8305 -0.4931  0.0287
   19MOL   H64912565   4.195   6.632   1.396 -1.0719  0.5479 -0.5356
   19MOL   H65012566   4.153   6.682   1.559 -1.4580 -1.0768  1.1937
   19MOL   H65112567   3.949   6.502   1.519  1.5469 -2.2685 -0.4839
   19MOL   H65212568   3.994   6.517   1.352  0.1106 -0.1796  0.0280
   19MOL   H65312569   3.830   6.639   1.352  0.1483  0.7672 -0.4552
   19MOL   H65412570   3.968   6.754   1.353  0.7911 -1.4165 -0.0183
   19MOL   H65512571   3.920   6.777   1.610  0.2287 -0.7368  0.3171
   19MOL   H65612572   3.763   6.693   1.572 -0.0106  0.5920  0.8070
   19MOL   H65712573   3.736   6.880   1.401 -0.7705 -2.4316  0.1548
   19MOL   H65812574   3.877   6.958   1.469 -1.0339  0.5475  0.7013
   19MOL   H65912575   3.646   7.057   1.551 -1.1243  0.2150  1.2031
   19MOL   H66012576   3.751   7.015   1.678  1.5512  1.0191 -1.5659
   19MOL   H66112577   3.624   6.899   1.631 -0.0091  0.2975 -0.0617
   19MOL   H66212578   4.613   6.510   1.508 -0.2523 -0.5645 -0.5935
   20MOL     C112579   4.912   5.784   3.747  0.4851 -0.8011 -0.1575
   20MOL     C212580   5.024   5.838   3.664 -0.5966  0.4560  0.1841
   20MOL     C312581   4.983   5.847   3.514 -0.3126 -0.5122 -0.0522
   20MOL     C412582   4.873   5.947   3.486 -0.1617  0.2292  0.0009
   20MOL     C512583   4.832   5.964   3.344  0.8398  0.1687 -0.0174
   20MOL     C612584   4.700   6.041   3.327 -0.4451  0.9758  0.1209
   20MOL     C712585   4.706   6.196   3.361 -0.0769  0.5607 -0.4563
   20MOL     C812586   4.602   6.296   3.289  0.4354 -0.3030 -0.0338
   20MOL     C912587   4.636   6.443   3.293 -0.1953 -0.3254  0.7200
   20MOL    C1012588   4.631   6.515   3.431 -0.3336 -0.4358 -0.0914
   20MOL    C1112589   4.496   6.522   3.496 -0.7193  0.6176  0.4721
   20MOL    H1212590   4.876   5.697   3.693  3.2319 -1.2063 -1.3773
   20MOL    H1312591   4.831   5.855   3.769  0.7151 -1.0522  1.5429
   20MOL    H1412592   5.103   5.764   3.651 -0.3433  0.9831 -1.2746
   20MOL    H1512593   4.942   5.750   3.486 -0.6295 -0.6253  0.7819
   20MOL    H1612594   5.067   5.873   3.449  0.6946  0.7378  1.6881
   20MOL    H1712595   4.892   6.046   3.526  0.4663  0.2574 -0.3727
   20MOL    H1812596   4.789   5.931   3.554 -0.4956  2.7937  0.2194
   20MOL    H1912597   4.916   5.999   3.284  0.7738  0.4121  0.0353
   20MOL    H2012598   4.806   5.865   3.306 -0.7843  0.6379 -0.1615
   20MOL    H2112599   4.620   5.997   3.386  1.5748  0.5469  2.6151
   20MOL    H2212600   4.671   6.026   3.223 -2.0898 -1.3997  0.8821
   20MOL    H2312601   4.688   6.222   3.465  0.6097 -1.2729  0.1445
   20MOL    H2412602   4.811   6.223   3.350  0.1836 -1.3217 -3.2492
   20MOL    H2512603   4.501   6.283   3.329  1.3515  0.4537  2.6874
   20MOL    H2612604   4.602   6.267   3.185  1.4771  0.0907 -0.1410
   20MOL    H2712605   4.566   6.489   3.223  1.0013 -2.1679 -1.7466
   20MOL    H2812606   4.729   6.467   3.242 -0.6531  0.9474  0.4663
   20MOL    H2912607   4.663   6.618   3.416 -1.7411  0.1751  0.9089
   20MOL    H3012608   4.714   6.469   3.485 -2.6431 -1.9696  2.2891
   20MOL    H3112609   4.426   6.586   3.442  0.1550 -0.6752 -2.2984
   20MOL    H3212610   4.443   6.426   3.495  1.0146 -0.3568  0.3941
   20MOL    H3312611   4.499   6.560   3.598  2.1390  1.1665  0.2091
   20MOL    H3412612   4.951   5.742   3.839 -1.7805 -0.7226  0.8923
   20MOL    C3512613   5.089   5.971   3.728 -0.0686 -0.1054 -0.5262
   20MOL    C3612614   5.246   5.991   3.720  0.4751  0.0970  0.2966
   20MOL    C3712615   5.285   6.059   3.590  0.4225  0.1380 -0.2425
   20MOL    C3812616   5.235   6.203   3.568 -0.3409 -0.1962  0.6100
   20MOL    C3912617   5.290   6.259   3.424  0.0273 -0.0837  0.7259
   20MOL    C4012618   5.251   6.403   3.396  0.1453 -0.7431 -0.1711
   20MOL    C4112619   5.291   6.449   3.256  0.3663  0.1524 -0.1484
   20MOL    C4212620   5.275   6.606   3.238  0.5178  1.0094  0.2355
   20MOL    C4312621   5.124   6.660   3.254  0.0262  0.5952 -0.4329
   20MOL    C4412622   5.106   6.786   3.172  0.9866  0.0268  1.1011
   20MOL    C4512623   4.963   6.842   3.168  0.0036  0.4879 -0.5071
   20MOL    H4612624   5.061   5.970   3.833  0.9731 -1.0190 -0.2546
   20MOL    H4712625   5.023   6.053   3.699 -2.0494 -1.5304 -0.1914
   20MOL    H4812626   5.307   5.903   3.738  1.3318  1.0431  2.2149
   20MOL    H4912627   5.393   6.047   3.580  0.7263  2.6244 -0.1820
   20MOL    H5012628   5.239   6.003   3.508 -0.5473  1.0177 -0.2930
   20MOL    H5112629   5.283   6.266   3.643 -0.3013 -2.2638  2.3852
   20MOL    H5212630   5.127   6.215   3.578 -0.2404  0.3825  1.0236
   20MOL    H5312631   5.257   6.201   3.337  1.0693  1.4214 -0.7029
   20MOL    H5412632   5.398   6.244   3.414 -0.0840 -0.4372 -0.0134
   20MOL    H5512633   5.309   6.463   3.466  0.2752 -2.2006  0.9977
   20MOL    H5612634   5.148   6.432   3.412  0.1714 -0.7376 -0.0162
   20MOL    H5712635   5.396   6.430   3.237  0.6463  1.0773  0.4472
   20MOL    H5812636   5.236   6.399   3.176 -0.5789 -3.0663  2.3808
   20MOL    H5912637   5.311   6.639   3.141  0.8841  0.1898  0.0886
   20MOL    H6012638   5.354   6.650   3.298  2.5950 -1.2027 -0.8282
   20MOL    H6112639   5.100   6.667   3.360  0.2725 -1.8214 -0.1852
   20MOL    H6212640   5.060   6.584   3.211  1.6515  0.0853 -2.0148
   20MOL    H6312641   5.172   6.865   3.206  0.8251 -0.3891  2.4041
   20MOL    H6412642   5.122   6.766   3.066  0.4520  0.3837  0.9494
   20MOL    H6512643   4.921   6.866   3.266  0.7665 -1.1855  0.2538
   20MOL    H6612644   4.938   6.933   3.112 -0.3509  1.1421  0.6908
   20MOL    H6712645   4.906   6.759   3.127  1.3097 -0.0850 -1.1562
   20MOL    C6812646   5.276   6.086   3.842 -0.2718  0.3690 -0.2969
   20MOL    C6912647   5.424   6.135   3.861  0.1776 -0.1132 -0.2010
   20MOL    C7012648   5.453   6.245   3.968  0.1471  0.6627 -0.3183
   20MOL    C7112649   5.386   6.381   3.933  0.1902  0.9122  0.5460
   20MOL    C7212650   5.389   6.478   4.058  0.1868  1.0693  0.0722
   20MOL    C7312651   5.521   6.555   4.078  0.5823  0.1449  0.5632
   20MOL    C7412652   5.525   6.640   4.202 -0.0424 -0.4086  0.8206
   20MOL    C7512653   5.667   6.692   4.223  0.2217 -0.0626  0.2606
   20MOL    C7612654   5.668   6.790   4.345  0.0260  0.6850 -0.4172
   20MOL    C7712655   5.557   6.897   4.349 -0.1775  0.6679  0.2833
   20MOL    C7812656   5.572   6.980   4.476 -0.1664  0.0281  0.2199
   20MOL    H7912657   5.248   6.031   3.932 -1.0216  1.1763 -0.0267
   20MOL    H8012658   5.208   6.171   3.837 -0.1397  0.5190  0.3245
   20MOL    H8112659   5.444   6.171   3.760  0.5336 -1.9274 -0.8023
   20MOL    H8212660   5.557   6.270   3.985  0.2938  0.1728 -0.4796
   20MOL    H8312661   5.425   6.210   4.068  0.0616  0.0075 -0.5711
   20MOL    H8412662   5.440   6.430   3.852  1.5718 -1.1738  0.1633
   20MOL    H8512663   5.285   6.366   3.896 -0.2771 -1.4850  2.5898
   20MOL    H8612664   5.353   6.429   4.149  3.3728 -0.6346  0.4947
   20MOL    H8712665   5.311   6.553   4.046 -1.7749 -1.1570 -1.2701
   20MOL    H8812666   5.607   6.489   4.088  1.6602  1.3833 -0.2805
   20MOL    H8912667   5.538   6.619   3.991 -0.4885 -0.9764 -0.4739
   20MOL    H9012668   5.491   6.581   4.287 -0.5872 -0.9585  0.2278
   20MOL    H9112669   5.453   6.720   4.189  0.4331 -0.0193  0.5805
   20MOL    H9212670   5.737   6.611   4.244  1.3594  0.1572 -2.5864
   20MOL    H9312671   5.698   6.750   4.137  1.1843 -0.2950  0.4457
   20MOL    H9412672   5.671   6.721   4.430 -1.4056  0.5611 -0.4511
   20MOL    H9512673   5.768   6.833   4.343  0.9089 -1.2315  1.0634
   20MOL    H9612674   5.569   6.958   4.260 -0.7310 -0.9070 -0.8799
   20MOL    H9712675   5.458   6.852   4.345  0.4931 -0.7104 -1.1584
   20MOL    H9812676   5.498   7.061   4.473  2.5411  2.5596 -3.6961
   20MOL    H9912677   5.670   7.026   4.486  0.1195 -0.1919 -1.3752
   20MOL   H10012678   5.562   6.917   4.564  0.6942 -0.6955 -0.1953
   20MOL   C10112679   5.533   6.021   3.856  0.9993  0.1685 -0.1889
   20MOL   C10212680   5.510   5.902   3.954  0.3116  0.0123 -0.3516
   20MOL   C10312681   5.527   5.935   4.108  0.0797  0.4951  0.3444
   20MOL   C10412682   5.661   6.008   4.135 -0.0664  0.1910 -0.7859
   20MOL   C10512683   5.683   6.040   4.280 -0.3101 -0.8377  0.4883
   20MOL   C10612684   5.812   6.108   4.313 -0.1095  0.0226 -0.3641
   20MOL   C10712685   5.830   6.122   4.469  0.9764  0.0881  0.1656
   20MOL   C10812686   5.946   6.217   4.505  0.6813  0.0128 -0.1440
   20MOL   C10912687   6.007   6.244   4.640  0.4625  0.4269 -1.1045
   20MOL   C11012688   6.098   6.374   4.661 -0.2840  0.6323  0.1932
   20MOL   C11112689   6.020   6.508   4.657  0.7788 -0.9271 -0.6056
   20MOL   H11212690   5.522   5.969   3.760  2.0954  1.1533 -0.8648
   20MOL   H11312691   5.628   6.073   3.855  1.4239 -0.6090 -0.4126
   20MOL   H11412692   5.406   5.868   3.946  0.0227  0.2935  1.7207
   20MOL   H11512693   5.449   6.007   4.132 -0.8576 -0.2635 -0.3779
   20MOL   H11612694   5.511   5.852   4.177 -3.9629  2.5835  2.0800
   20MOL   H11712695   5.742   5.942   4.104 -1.6733 -1.4209 -1.6821
   20MOL   H11812696   5.679   6.101   4.081  1.1388  0.2838 -0.2449
   20MOL   H11912697   5.603   6.105   4.317  1.2766  2.6673 -2.0025
   20MOL   H12012698   5.674   5.950   4.341 -2.2519  0.8851  2.8481
   20MOL   H12112699   5.901   6.050   4.287 -0.3403 -0.0172 -1.0902
   20MOL   H12212700   5.820   6.201   4.255  0.6589  0.2659  0.1271
   20MOL   H12312701   5.840   6.025   4.519  1.2938  0.7610  1.4271
   20MOL   H12412702   5.737   6.160   4.510 -0.5460 -1.2255 -1.9719
   20MOL   H12512703   6.030   6.188   4.441  2.0984  2.1235  0.6857
   20MOL   H12612704   5.916   6.315   4.466  1.4992  1.1598  2.0532
   20MOL   H12712705   5.929   6.253   4.716  1.1345 -1.1566 -0.1946
   20MOL   H12812706   6.069   6.156   4.661  1.2387  0.9526 -1.1649
   20MOL   H12912707   6.177   6.379   4.587 -1.6366 -1.8451 -1.5019
   20MOL   H13012708   6.148   6.369   4.757 -0.3382 -1.2082  0.1375
   20MOL   H13112709   5.954   6.523   4.743  0.9639 -0.5282 -0.5305
   20MOL   H13212710   6.090   6.591   4.666  1.4708 -1.2294 -2.9891
   20MOL   H13312711   5.964   6.542   4.569  2.0021 -2.1182 -1.8572
   20MOL   C13412712   5.597   5.785   3.916 -0.2771  0.3241  0.7104
   20MOL   C13512713   5.535   5.664   3.833 -0.5364  0.0599  0.6226
   20MOL   C13612714   5.507   5.685   3.689  0.7990  0.6309 -0.1543
   20MOL   C13712715   5.622   5.693   3.595 -0.6069  0.2456 -0.1483
   20MOL   C13812716   5.599   5.746   3.456  0.0800 -0.0677  0.2716
   20MOL   C13912717   5.458   5.699   3.399  0.2872 -0.3782  1.1705
   20MOL   C14012718   5.430   5.745   3.258  0.7808  0.0907  0.0625
   20MOL   C14112719   5.413   5.893   3.243 -0.0107 -0.1656 -0.4843
   20MOL   C14212720   5.311   5.928   3.136  0.0806  0.1639 -0.2159
   20MOL   C14312721   5.354   5.886   2.995 -0.1125  0.3537 -0.4805
   20MOL   C14412722   5.459   5.978   2.933  0.1492  0.1305  1.0048
   20MOL   H14512723   5.687   5.824   3.869 -0.3282  0.1598  0.4750
   20MOL   H14612724   5.626   5.743   4.013 -3.0635  0.8525  1.8000
   20MOL   H14712725   5.611   5.587   3.846 -0.5277 -0.3377 -1.6959
   20MOL   H14812726   5.455   5.779   3.675  0.1724  0.4001  0.5882
   20MOL   H14912727   5.445   5.606   3.647 -0.4751  0.3742  2.1588
   20MOL   H15012728   5.700   5.742   3.654 -0.0986 -0.6637 -0.0536
   20MOL   H15112729   5.681   5.601   3.593 -1.0575 -0.0888  1.1801
   20MOL   H15212730   5.607   5.854   3.449 -2.2442  0.0011 -2.0120
   20MOL   H15312731   5.670   5.709   3.383  1.6208  1.9983  0.6761
   20MOL   H15412732   5.460   5.591   3.412  0.6274 -0.6965 -1.3004
   20MOL   H15512733   5.374   5.725   3.464  0.4659  0.3063  1.1316
   20MOL   H15612734   5.511   5.711   3.193 -2.3631 -1.1103 -3.4027
   20MOL   H15712735   5.337   5.697   3.228  0.7128  0.3541 -0.1520
   20MOL   H15812736   5.384   5.946   3.334 -0.8701  0.0500 -0.8724
   20MOL   H15912737   5.514   5.930   3.226  0.9483 -1.7334  1.5919
   20MOL   H16012738   5.213   5.889   3.163  0.2812  0.5646  1.0944
   20MOL   H16112739   5.293   6.035   3.141  0.7153  0.2384  0.4177
   20MOL   H16212740   5.395   5.786   3.001  0.2322  0.4843 -0.6311
   20MOL   H16312741   5.261   5.885   2.938 -0.3561  1.8720 -0.1429
   20MOL   H16412742   5.486   5.927   2.841 -2.0024  3.5556 -1.6509
   20MOL   H16512743   5.547   6.006   2.990  2.6080 -0.8773 -2.1653
   20MOL   H16612744   5.407   6.069   2.903 -0.5301 -0.9198 -1.1548
   20MOL   C16712745   5.408   5.603   3.899 -0.0639  0.2791 -0.4288
   20MOL   C16812746   5.398   5.449   3.878  0.7582  0.2939 -0.1100
   20MOL   C16912747   5.254   5.404   3.893 -0.6609  0.1438 -0.5006
   20MOL   C17012748   5.175   5.404   3.771 -0.2591  0.0359 -1.2176
   20MOL   C17112749   5.033   5.350   3.792 -0.0181 -0.3075 -0.7643
   20MOL   C17212750   4.951   5.361   3.657  0.2315  0.1976  0.0704
   20MOL   C17312751   4.874   5.238   3.613 -0.9174  0.7898  0.0592
   20MOL   C17412752   4.720   5.248   3.639 -0.4878 -0.4096  0.2892
   20MOL   C17512753   4.640   5.137   3.573  0.2035 -0.3562  0.0527
   20MOL   C17612754   4.503   5.134   3.633  0.3947 -0.3719  0.0257
   20MOL   C17712755   4.418   5.023   3.560  0.6712  0.1910 -0.3665
   20MOL   H17812756   5.430   5.618   4.005  1.0019 -0.5800 -0.5233
   20MOL   H17912757   5.317   5.653   3.868 -0.9395 -0.2287  1.2160
   20MOL   H18012758   5.422   5.426   3.774 -1.6738  0.8503 -0.8221
   20MOL   H18112759   5.199   5.449   3.976 -0.7089 -1.2151  0.2039
   20MOL   H18212760   5.251   5.297   3.911  0.4089 -0.0855 -1.6635
   20MOL   H18312761   5.171   5.507   3.735  0.0318  0.5798  0.2574
   20MOL   H18412762   5.220   5.331   3.703 -0.2384 -0.6704 -0.4583
   20MOL   H18512763   4.972   5.395   3.871 -0.5358 -1.4755 -0.4868
   20MOL   H18612764   5.031   5.248   3.831 -1.1005  0.0223  0.0534
   20MOL   H18712765   4.885   5.448   3.663  0.8975  0.6677  0.7099
   20MOL   H18812766   5.010   5.397   3.573  0.9243  0.3668  0.6235
   20MOL   H18912767   4.913   5.151   3.667 -1.9301 -0.3060 -0.9317
   20MOL   H19012768   4.887   5.216   3.507 -2.3409  0.5917 -0.0847
   20MOL   H19112769   4.690   5.251   3.744  0.5535  2.1811  0.5461
   20MOL   H19212770   4.687   5.344   3.599 -0.0720 -0.5141 -0.3070
   20MOL   H19312771   4.687   5.039   3.585  1.8858  0.5035  0.6959
   20MOL   H19412772   4.632   5.160   3.467  1.8723  0.2820  0.0423
   20MOL   H19512773   4.456   5.230   3.612  3.1271  0.8987 -0.4375
   20MOL   H19612774   4.513   5.116   3.740  0.9381  1.4125  0.2921
   20MOL   H19712775   4.329   5.020   3.623  0.9561 -0.7748 -0.0019
   20MOL   H19812776   4.452   4.920   3.566 -1.4434 -0.5877 -1.4453
   20MOL   H19912777   4.393   5.051   3.458 -0.1036  0.8654  0.0094
   20MOL   C20012778   5.487   5.370   3.972  0.1392 -0.0743 -0.0664
   20MOL   C20112779   5.521   5.221   3.941 -0.1892  0.2233 -0.0888
   20MOL   C20212780   5.527   5.138   4.068 -0.0270 -0.6444 -0.2142
   20MOL   C20312781   5.382   5.101   4.120 -0.2054  0.4006 -0.6908
   20MOL   C20412782   5.377   5.090   4.274 -0.4408 -0.7846 -0.0368
   20MOL   C20512783   5.239   5.045   4.322  0.7005 -0.0211 -0.0596
   20MOL   C20612784   5.214   4.892   4.296 -0.6613 -0.0261  0.4092
   20MOL   C20712785   5.070   4.845   4.313 -0.4201 -0.8903 -0.1848
   20MOL   C20812786   5.059   4.694   4.276  0.1575  0.4236  0.0623
   20MOL   C20912787   4.923   4.638   4.323 -0.6371 -0.0751  0.2968
   20MOL   C21012788   4.881   4.498   4.279  0.1451 -0.6223  0.6109
   20MOL   H21112789   5.579   5.424   3.994 -0.2230  0.1536  0.9495
   20MOL   H21212790   5.432   5.373   4.066 -0.6114 -2.4409 -0.3839
   20MOL   H21312791   5.438   5.180   3.883  0.7651 -1.9235  0.0032
   20MOL   H21412792   5.587   5.191   4.142 -0.2390 -1.9426  0.9223
   20MOL   H21512793   5.583   5.045   4.057 -1.2162 -1.5406  1.1586
   20MOL   H21612794   5.349   5.009   4.072  0.5352  0.0274 -0.4941
   20MOL   H21712795   5.326   5.190   4.093  3.1014  2.9902  0.5975
   20MOL   H21812796   5.399   5.189   4.315 -0.1056 -0.4870 -0.9413
   20MOL   H21912797   5.458   5.029   4.316  0.0580  1.5617  2.5500
   20MOL   H22012798   5.239   5.075   4.427  0.8133 -0.3234  0.0261
   20MOL   H22112799   5.166   5.106   4.269 -1.4734 -1.3776  1.2673
   20MOL   H22212800   5.281   4.829   4.354 -1.1425  1.3248  2.4819
   20MOL   H22312801   5.247   4.874   4.194  0.7958  2.0158  0.4902
   20MOL   H22412802   4.998   4.910   4.263  0.0924  0.5285  0.8919
   20MOL   H22512803   5.047   4.859   4.418  2.8206  0.7020  0.3716
   20MOL   H22612804   5.124   4.643   4.347  0.3871  1.1576  0.3790
   20MOL   H22712805   5.064   4.671   4.169 -0.5744  4.2667 -0.8818
   20MOL   H22812806   4.910   4.642   4.431 -2.6595  0.8549  0.0442
   20MOL   H22912807   4.859   4.714   4.278  0.5385  1.3411  0.9542
   20MOL   H23012808   4.940   4.427   4.337  0.4875  2.2897  3.9818
   20MOL   H23112809   4.898   4.485   4.172 -0.6530  0.6630  0.3064
   20MOL   H23212810   4.777   4.472   4.297 -1.0567  1.6879 -2.4239
   20MOL   C23312811   5.648   5.220   3.865  0.0403 -0.1737 -0.2885
   20MOL   C23412812   5.699   5.079   3.812 -0.2788  0.2717  0.0631
   20MOL   C23512813   5.851   5.091   3.800 -0.1858 -0.1506 -0.0943
   20MOL   C23612814   5.922   5.065   3.933 -0.0492 -0.5570 -0.0921
   20MOL   C23712815   6.080   5.076   3.914  0.6819 -0.0897  0.6987
   20MOL   C23812816   6.132   5.221   3.892  1.2853 -0.3744  0.7800
   20MOL   C23912817   6.286   5.236   3.894 -0.0331 -0.0389  0.9990
   20MOL   C24012818   6.325   5.364   3.833  0.1930  0.3402 -0.7186
   20MOL   C24112819   6.478   5.381   3.834 -0.3298 -0.1708 -0.8200
   20MOL   C24212820   6.521   5.519   3.801  0.3906 -0.1120 -0.4183
   20MOL   C24312821   6.674   5.535   3.806 -0.4776 -0.6649  0.0337
   20MOL   H24412822   5.727   5.267   3.924  3.6088 -2.2149 -3.1413
   20MOL   H24512823   5.642   5.284   3.776 -0.7017 -1.2398 -1.0139
   20MOL   H24612824   5.667   5.002   3.882 -0.2016 -0.2142 -0.4312
   20MOL   H24712825   5.883   5.011   3.733  0.6013 -0.2542  0.4063
   20MOL   H24812826   5.877   5.185   3.750  0.4581 -0.5188 -0.4550
   20MOL   H24912827   5.886   4.967   3.966 -1.2029 -1.3525 -3.5203
   20MOL   H25012828   5.884   5.140   4.002  1.1645  1.6822 -1.7921
   20MOL   H25112829   6.110   5.019   3.826 -1.8729 -0.6911  0.1518
   20MOL   H25212830   6.136   5.039   4.000  0.3559  3.0846  2.3749
   20MOL   H25312831   6.084   5.283   3.968  1.2128 -0.3929  0.7494
   20MOL   H25412832   6.101   5.273   3.802  0.2468  3.0857  3.0179
   20MOL   H25512833   6.336   5.232   3.990  0.7941  0.4716  0.5971
   20MOL   H25612834   6.336   5.149   3.851  0.3129  1.3693 -1.5726
   20MOL   H25712835   6.282   5.381   3.734  1.0600  1.1709 -0.9609
   20MOL   H25812836   6.288   5.439   3.904 -0.6075  0.3268 -1.1119
   20MOL   H25912837   6.516   5.360   3.934 -0.2308 -0.3215 -0.8891
   20MOL   H26012838   6.524   5.315   3.761  0.8157  1.7088 -1.8020
   20MOL   H26112839   6.474   5.589   3.870 -0.1212 -1.0753  0.2240
   20MOL   H26212840   6.486   5.543   3.700  0.1913  1.4499  0.0134
   20MOL   H26312841   6.712   5.632   3.774  0.7687 -0.2477  2.6003
   20MOL   H26412842   6.716   5.471   3.728  0.6350 -1.9821  1.6705
   20MOL   H26512843   6.711   5.518   3.908  2.1718 -0.7722 -0.9143
   20MOL   C26612844   5.626   5.044   3.676  0.5452 -0.0250  0.1250
   20MOL   C26712845   5.647   4.898   3.624 -0.0864  0.2111  0.4854
   20MOL   C26812846   5.608   4.886   3.472  0.5868  0.0093  0.2857
   20MOL   C26912847   5.638   4.748   3.417  0.0093  0.1541 -0.2063
   20MOL   C27012848   5.601   4.741   3.268  0.3381  0.3360  0.1491
   20MOL   C27112849   5.623   4.603   3.215 -0.4686 -0.0953  0.2290
   20MOL   C27212850   5.573   4.582   3.072 -0.1050  0.8228 -0.1749
   20MOL   C27312851   5.601   4.434   3.029  0.3298 -0.2823 -0.1313
   20MOL   C27412852   5.543   4.400   2.890  0.2455 -0.3407 -0.0176
   20MOL   C27512853   5.567   4.257   2.843  0.3121  0.0350 -0.0658
   20MOL   C27612854   5.474   4.231   2.715 -0.9204 -0.4708  0.6979
   20MOL   H27712855   5.670   5.103   3.595  1.3600  0.4191  0.8717
   20MOL   H27812856   5.520   5.068   3.683  0.7352  1.0578 -0.5778
   20MOL   H27912857   5.755   4.881   3.622 -0.2688 -0.8446 -0.9778
   20MOL   H28012858   5.500   4.903   3.463  0.8714  1.7804 -0.0248
   20MOL   H28112859   5.666   4.959   3.417 -0.2935 -0.6400 -1.5258
   20MOL   H28212860   5.574   4.671   3.460 -2.4114  2.4959  0.4981
   20MOL   H28312861   5.741   4.726   3.444  0.0412 -0.8552 -1.0958
   20MOL   H28412862   5.663   4.810   3.210 -0.6544  1.3390  0.2506
   20MOL   H28512863   5.499   4.768   3.237  0.1934 -0.3969 -0.0135
   20MOL   H28612864   5.559   4.540   3.277 -1.6056 -0.0043 -0.8258
   20MOL   H28712865   5.730   4.586   3.223 -0.4809 -1.2163 -1.6294
   20MOL   H28812866   5.466   4.598   3.057 -0.3623  0.1998  0.9496
   20MOL   H28912867   5.622   4.654   3.006  2.9803  0.8190  2.0330
   20MOL   H29012868   5.562   4.376   3.113  1.5264  0.8861  1.2534
   20MOL   H29112869   5.707   4.410   3.023  0.0353 -1.8301  0.4493
   20MOL   H29212870   5.436   4.421   2.892  0.4299  0.8279 -1.1739
   20MOL   H29312871   5.594   4.473   2.826 -0.8934  1.6249  1.2393
   20MOL   H29412872   5.542   4.203   2.934 -4.4022  0.9999 -0.6704
   20MOL   H29512873   5.671   4.239   2.815  1.0252  3.0590  0.4285
   20MOL   H29612874   5.500   4.133   2.674  0.5085  0.1979 -0.0553
   20MOL   H29712875   5.495   4.312   2.645  0.5967  0.3543  2.0694
   20MOL   H29812876   5.369   4.239   2.743 -1.1646 -0.5392 -0.1858
   20MOL   C29912877   5.588   4.787   3.717 -0.8196 -0.0159  0.2638
   20MOL   C30012878   5.446   4.808   3.789 -0.1534 -1.2170 -0.1952
   20MOL   C30112879   5.435   4.725   3.917 -0.4707  0.6284  0.3199
   20MOL   C30212880   5.450   4.573   3.899 -0.3734  0.6895  0.3193
   20MOL   C30312881   5.399   4.485   4.013  0.0916  0.5782 -0.1252
   20MOL   C30412882   5.439   4.338   4.010 -0.1352 -0.5504  0.2300
   20MOL   C30512883   5.393   4.260   4.129  0.0176  0.5803  0.2815
   20MOL   C30612884   5.404   4.106   4.114  0.3458  0.5009 -0.4026
   20MOL   C30712885   5.403   4.036   4.250 -0.1454 -0.1351  0.4885
   20MOL   C30812886   5.437   3.885   4.232  0.5091 -0.4772  0.2330
   20MOL   C30912887   5.322   3.798   4.175 -0.1506  0.2447 -0.4110
   20MOL   H31012888   5.662   4.778   3.796 -1.0331  0.1958  0.4919
   20MOL   H31112889   5.587   4.689   3.671 -0.5193  0.2601 -0.3412
   20MOL   H31212890   5.449   4.915   3.806  3.0514 -1.4232  0.8396
   20MOL   H31312891   5.498   4.763   3.998  0.1887 -0.4582  0.3177
   20MOL   H31412892   5.330   4.738   3.944 -0.1362  0.0802  1.9255
   20MOL   H31512893   5.415   4.549   3.798 -2.0450 -0.8540  1.2396
   20MOL   H31612894   5.558   4.564   3.894 -0.5239 -0.2397 -2.1749
   20MOL   H31712895   5.438   4.527   4.106  1.0254  1.8184 -1.0675
   20MOL   H31812896   5.291   4.495   4.013 -0.0352 -0.7761 -0.6671
   20MOL   H31912897   5.548   4.338   4.005 -0.1905 -1.0706 -1.2293
   20MOL   H32012898   5.393   4.289   3.924  1.0812 -0.7423 -0.3251
   20MOL   H32112899   5.442   4.292   4.221  1.6432 -1.5766  0.1956
   20MOL   H32212900   5.290   4.274   4.162  0.0016  1.5456 -0.1645
   20MOL   H32312901   5.501   4.086   4.068  0.2688  2.1096 -1.3132
   20MOL   H32412902   5.326   4.078   4.043 -1.1402  1.8640  0.6394
   20MOL   H32512903   5.315   4.055   4.310 -0.1246  1.4569  0.0242
   20MOL   H32612904   5.486   4.084   4.303 -0.9648  1.0696  0.6757
   20MOL   H32712905   5.466   3.836   4.325  0.0966  1.1683  1.2473
   20MOL   H32812906   5.530   3.875   4.177 -0.5065  0.4394 -1.7164
   20MOL   H32912907   5.294   3.828   4.074  1.8665 -2.2199 -1.7530
   20MOL   H33012908   5.348   3.693   4.168 -3.3044 -0.6063 -0.0459
   20MOL   H33112909   5.230   3.799   4.233 -0.6116  0.6286 -1.1407
   20MOL   C33212910   5.330   4.791   3.687 -0.5971 -1.0863 -0.1601
   20MOL   C33312911   5.235   4.918   3.673  0.2910  0.4337 -0.2666
   20MOL   C33412912   5.135   4.939   3.794  0.0430  0.7666  0.2600
   20MOL   C33512913   5.018   4.835   3.806  0.8361 -0.3363 -0.0925
   20MOL   C33612914   4.902   4.880   3.904 -0.1355 -0.0521  0.0238
   20MOL   C33712915   4.805   4.769   3.928 -0.6067 -0.2558  0.1567
   20MOL   C33812916   4.686   4.812   4.014 -0.2488  0.1231  0.0897
   20MOL   C33912917   4.570   4.716   4.004 -0.4068 -0.0277 -0.5067
   20MOL   C34012918   4.499   4.713   3.867  0.6773  0.0817  0.5948
   20MOL   C34112919   4.382   4.611   3.862 -0.2437  0.1492  0.4995
   20MOL   C34212920   4.319   4.589   3.728  0.3852  0.4255 -0.6388
   20MOL   H34312921   5.364   4.771   3.586  0.7808  0.4545 -0.0078
   20MOL   H34412922   5.264   4.707   3.710 -2.6744  0.5817  0.1702
   20MOL   H34512923   5.302   5.004   3.671  2.9252 -1.5366 -0.0226
   20MOL   H34612924   5.084   5.034   3.782  0.0540  0.5909 -1.2307
   20MOL   H34712925   5.184   4.936   3.891 -1.2464 -1.6580  0.8971
   20MOL   H34812926   4.963   4.806   3.716  3.4574 -2.3486 -1.1215
   20MOL   H34912927   5.053   4.738   3.841  0.8643 -0.7993 -1.3598
   20MOL   H35012928   4.940   4.916   3.999 -1.2534  2.2400 -0.3710
   20MOL   H35112929   4.853   4.968   3.863 -0.7374  0.1039  1.0567
   20MOL   H35212930   4.854   4.681   3.968 -0.6807 -2.0331 -3.4637
   20MOL   H35312931   4.761   4.734   3.835 -0.5964  1.8868 -0.6778
   20MOL   H35412932   4.658   4.913   3.984 -0.3650  0.0044 -0.1996
   20MOL   H35512933   4.709   4.818   4.120 -1.7527  0.5029  0.4049
   20MOL   H35612934   4.597   4.613   4.025  0.7061  0.3542 -0.0497
   20MOL   H35712935   4.495   4.740   4.079 -0.9976  1.3791 -1.5224
   20MOL   H35812936   4.566   4.672   3.793  0.2477  0.3389  0.0581
   20MOL   H35912937   4.468   4.816   3.848  0.2725  0.0522  1.0566
   20MOL   H36012938   4.302   4.642   3.929  0.0731 -1.0604  1.4691
   20MOL   H36112939   4.405   4.516   3.911  2.4176  0.0191 -0.9210
   20MOL   H36212940   4.381   4.526   3.665 -0.9781 -1.5266 -0.0834
   20MOL   H36312941   4.224   4.536   3.728  1.7212 -2.0443 -0.9883
   20MOL   H36412942   4.298   4.674   3.662 -1.5677 -0.9136 -1.7948
   20MOL   C36512943   5.152   4.897   3.540 -0.1620  0.3378 -0.7699
   20MOL   C36612944   5.192   4.984   3.414  0.5796 -0.0139  0.0704
   20MOL   C36712945   5.098   4.957   3.293  0.1429  0.3953 -0.3100
   20MOL   C36812946   5.144   4.842   3.206  0.1740 -0.1475  0.1642
   20MOL   C36912947   5.041   4.800   3.093  0.0894  0.1965 -0.0776
   20MOL   C37012948   5.084   4.674   3.004  0.0595 -0.0467  0.1627
   20MOL   C37112949   4.986   4.617   2.902  0.3347 -0.6509 -0.1292
   20MOL   C37212950   5.037   4.485   2.842 -0.0565 -0.3835  0.0034
   20MOL   C37312951   4.927   4.435   2.752  0.4609 -0.1139  0.8061
   20MOL   C37412952   4.970   4.314   2.668 -1.0575  0.2598  0.7228
   20MOL   C37512953   5.065   4.357   2.544  0.2319  0.3055 -0.2960
   20MOL   H37612954   5.141   4.790   3.523  1.5552  0.3055 -1.8039
   20MOL   H37712955   5.051   4.931   3.559 -0.0986 -0.3169  0.7704
   20MOL   H37812956   5.295   4.963   3.383  0.5668  0.9375 -0.6536
   20MOL   H37912957   5.098   5.049   3.234 -2.1360  0.0006 -1.0088
   20MOL   H38012958   4.992   4.954   3.320 -0.0840  0.5084 -1.1597
   20MOL   H38112959   5.158   4.757   3.273 -0.3088  0.0578  0.5321
   20MOL   H38212960   5.240   4.859   3.157  0.9476 -0.7350  1.4358
   20MOL   H38312961   5.009   4.888   3.036 -0.5093  0.2802  0.3715
   20MOL   H38412962   4.951   4.775   3.149  0.0956 -0.8037 -0.5169
   20MOL   H38512963   5.102   4.597   3.079 -1.3241 -2.1273 -1.6082
   20MOL   H38612964   5.177   4.706   2.956  0.6218  1.5888  2.2515
   20MOL   H38712965   4.890   4.594   2.949  0.0229 -2.2609 -1.5178
   20MOL   H38812966   4.972   4.694   2.826 -1.7546  1.6396  2.4210
   20MOL   H38912967   5.054   4.409   2.919  0.8987  0.1345  0.3090
   20MOL   H39012968   5.130   4.507   2.791  0.2696 -0.6550  0.4780
   20MOL   H39112969   4.839   4.409   2.810 -1.2914  2.9511 -0.3424
   20MOL   H39212970   4.889   4.515   2.689 -1.2809  0.4561  2.5205
   20MOL   H39312971   5.028   4.238   2.721 -0.4851 -0.1841 -0.5045
   20MOL   H39412972   4.880   4.265   2.629 -1.8428  1.9679  0.3364
   20MOL   H39512973   5.083   4.264   2.490 -2.5565  0.4072 -1.4679
   20MOL   H39612974   5.158   4.402   2.578  1.5958 -0.9573 -2.2261
   20MOL   H39712975   5.012   4.428   2.480  3.2506  2.1468 -0.8529
   20MOL   C39812976   5.190   5.133   3.448  0.0064  0.3802 -0.4184
   20MOL   C39912977   5.263   5.226   3.346  0.4367 -0.0642  0.3746
   20MOL   C40012978   5.407   5.232   3.387  0.6509  0.9781  0.0802
   20MOL   C40112979   5.499   5.260   3.269  0.3244 -0.0402  0.1452
   20MOL   C40212980   5.641   5.298   3.317  0.7483  0.0138  0.2624
   20MOL   C40312981   5.720   5.372   3.208 -0.5390  1.1516  0.1831
   20MOL   C40412982   5.866   5.393   3.238  0.1108  0.2574  1.0835
   20MOL   C40512983   5.944   5.470   3.128  0.7972 -0.0617  0.1063
   20MOL   C40612984   6.094   5.494   3.156  0.5606  0.5847 -0.1953
   20MOL   C40712985   6.153   5.583   3.058 -0.5607  0.1799  0.6283
   20MOL   C40812986   6.300   5.619   3.080 -0.8031 -0.6651 -0.7595
   20MOL   H40912987   5.237   5.146   3.545 -0.4042  0.8475 -0.2803
   20MOL   H41012988   5.085   5.160   3.461  0.8357  3.2295  0.6120
   20MOL   H41112989   5.265   5.168   3.253  0.9060 -0.2167  0.4806
   20MOL   H41212990   5.451   5.148   3.441 -0.1164 -1.0674 -2.3509
   20MOL   H41312991   5.406   5.309   3.464  2.6019 -1.0442  2.2103
   20MOL   H41412992   5.516   5.179   3.197 -3.0185  0.3859 -1.2094
   20MOL   H41512993   5.456   5.341   3.210 -1.0470 -0.2858  0.7981
   20MOL   H41612994   5.631   5.354   3.410  0.6440 -1.6151  1.2513
   20MOL   H41712995   5.701   5.210   3.339 -0.1406 -0.9582 -1.0987
   20MOL   H41812996   5.674   5.468   3.188 -2.6870 -0.1645 -1.4751
   20MOL   H41912997   5.705   5.316   3.116 -0.7498 -2.1253  2.0930
   20MOL   H42012998   5.868   5.440   3.336  1.0934 -2.3650  2.3475
   20MOL   H42112999   5.913   5.297   3.259  3.7220  1.7532  0.1804
   20MOL   H42213000   5.891   5.561   3.098 -0.4675 -1.1836 -1.0961
   20MOL   H42313001   5.944   5.405   3.041  1.8339  0.2688 -0.1482
   20MOL   H42413002   6.099   5.540   3.254 -0.6735 -0.5884  0.4340
   20MOL   H42513003   6.147   5.400   3.167  2.2394  1.5117 -0.2350
   20MOL   H42613004   6.095   5.675   3.057  0.8737  1.1136 -0.6371
   20MOL   H42713005   6.140   5.534   2.961  0.1747 -1.0975  1.1652
   20MOL   H42813006   6.315   5.667   3.177 -0.7211 -2.8287  0.3467
   20MOL   H42913007   6.356   5.680   3.009 -1.9509 -0.3104 -1.3670
   20MOL   H43013008   6.356   5.526   3.089 -1.5959 -1.0309  0.5028
   20MOL   C43113009   5.205   5.371   3.328  0.0646 -0.6163 -0.0626
   20MOL   C43213010   5.098   5.392   3.212  0.2007 -0.5661  1.1509
   20MOL   C43313011   5.155   5.378   3.066  0.2665 -0.3780  0.0018
   20MOL   C43413012   5.267   5.483   3.030  0.0279 -0.2129  0.2150
   20MOL   C43513013   5.373   5.412   2.932 -0.5817 -0.1241 -0.7048
   20MOL   C43613014   5.483   5.506   2.906 -0.8074 -0.1963 -0.6778
   20MOL   C43713015   5.589   5.455   2.798 -0.5168  0.2546  0.3710
   20MOL   C43813016   5.709   5.543   2.793  0.6562 -0.8041  0.3180
   20MOL   C43913017   5.817   5.512   2.689 -0.1907  0.5071  0.1626
   20MOL   C44013018   5.943   5.598   2.688  0.0103  0.0850 -0.4624
   20MOL   C44113019   5.915   5.741   2.656 -0.5133 -0.0188 -0.8819
   20MOL   H44213020   5.288   5.441   3.321  0.7027 -1.3397  0.2580
   20MOL   H44313021   5.164   5.403   3.424  0.6335 -0.5178  0.1439
   20MOL   H44413022   5.026   5.313   3.236  0.4041 -0.8582  0.8076
   20MOL   H44513023   5.206   5.282   3.065 -0.7867 -0.9630  1.4709
   20MOL   H44613024   5.074   5.378   2.993  0.4586 -2.1499 -0.2308
   20MOL   H44713025   5.316   5.514   3.122  0.0992  1.6686 -0.4507
   20MOL   H44813026   5.230   5.573   2.981 -1.6844 -0.9468  0.0949
   20MOL   H44913027   5.328   5.390   2.835 -0.4022  0.8323 -1.0113
   20MOL   H45013028   5.421   5.321   2.969 -0.3238 -0.1240 -1.0294
   20MOL   H45113029   5.535   5.535   2.997 -0.7780 -1.8911 -0.1345
   20MOL   H45213030   5.444   5.597   2.860 -3.0752 -1.4315 -1.2675
   20MOL   H45313031   5.534   5.459   2.704 -0.3534 -0.4619  0.2423
   20MOL   H45413032   5.617   5.352   2.823  0.2125  0.0870 -1.0984
   20MOL   H45513033   5.677   5.641   2.757 -0.9426 -1.3667  0.1441
   20MOL   H45613034   5.750   5.545   2.894  0.7509 -0.8693  0.2808
   20MOL   H45713035   5.771   5.525   2.591 -1.8649  1.9432  1.0974
   20MOL   H45813036   5.841   5.407   2.706 -0.8996  0.6983  2.4199
   20MOL   H45913037   6.014   5.561   2.614  0.6331  1.2112 -0.4447
   20MOL   H46013038   5.984   5.597   2.789 -1.1306 -1.4453  0.0050
   20MOL   H46113039   5.869   5.742   2.558 -1.8328  1.6527 -0.2624
   20MOL   H46213040   5.834   5.779   2.718  1.4749 -2.4492  3.4448
   20MOL   H46313041   5.997   5.813   2.669 -0.9396  0.4182 -0.6322
   20MOL   C46413042   5.003   5.520   3.219 -0.2609  0.2987 -1.0339
   20MOL   C46513043   4.854   5.496   3.166 -0.4661 -0.1494  0.3369
   20MOL   C46613044   4.771   5.470   3.294 -0.6130  0.4122 -0.2926
   20MOL   C46713045   4.646   5.387   3.272  0.4021  0.1638  0.3207
   20MOL   C46813046   4.660   5.239   3.218  0.0236  0.6415 -0.3903
   20MOL   C46913047   4.531   5.165   3.180  0.5087 -0.6960  0.2690
   20MOL   C47013048   4.547   5.020   3.125 -0.3489  0.1186  0.3346
   20MOL   C47113049   4.568   4.993   2.976 -0.0136  0.9100 -0.0165
   20MOL   C47213050   4.552   4.839   2.936  0.4601  0.1643  0.5110
   20MOL   C47313051   4.523   4.815   2.786  0.4538 -0.2441  0.0775
   20MOL   C47413052   4.376   4.829   2.744 -0.5406  0.5519  0.1668
   20MOL   H47513053   5.047   5.603   3.164 -0.5673  0.2648 -1.3307
   20MOL   H47613054   4.995   5.566   3.318  0.4743  2.1683 -1.8103
   20MOL   H47713055   4.855   5.403   3.111 -0.3943  0.0736 -0.0408
   20MOL   H47813056   4.747   5.570   3.331 -1.1453  0.9776 -2.1048
   20MOL   H47913057   4.830   5.424   3.373 -1.9820  1.8577  1.6050
   20MOL   H48013058   4.591   5.381   3.366 -1.0712 -2.1433 -0.6406
   20MOL   H48113059   4.583   5.438   3.198 -1.3253  1.9038  2.9160
   20MOL   H48213060   4.726   5.174   3.275  1.9170  0.5037 -2.6869
   20MOL   H48313061   4.725   5.237   3.131  0.8643 -0.2085  0.2501
   20MOL   H48413062   4.460   5.153   3.261  1.5713 -3.7761  0.8402
   20MOL   H48513063   4.495   5.223   3.096  1.0622  2.0585  1.8819
   20MOL   H48613064   4.633   4.970   3.170 -0.6972 -0.3515  0.4796
   20MOL   H48713065   4.454   4.973   3.157  0.2504  0.5515  2.7804
   20MOL   H48813066   4.495   5.058   2.929  0.4550  0.0707 -1.9354
   20MOL   H48913067   4.665   5.040   2.956 -0.4405  1.3873 -0.9682
   20MOL   H49013068   4.645   4.790   2.961  0.4653  0.3787  0.9274
   20MOL   H49113069   4.470   4.798   2.995 -0.3742 -0.3039 -0.9486
   20MOL   H49213070   4.587   4.888   2.737 -0.1944  0.4485  0.2575
   20MOL   H49313071   4.569   4.716   2.780  0.8402 -0.0067 -0.9449
   20MOL   H49413072   4.348   4.933   2.757  1.2670  1.0031  0.5326
   20MOL   H49513073   4.320   4.749   2.792  3.2409 -1.1761  1.8950
   20MOL   H49613074   4.372   4.806   2.637 -0.4457  0.2891  0.2194
   20MOL   C49713075   4.792   5.618   3.083  0.2188  0.2892 -0.3861
   20MOL   C49813076   4.838   5.634   2.939  0.5589 -0.6025  1.4152
   20MOL   C49913077   4.817   5.781   2.895 -0.0125 -0.1398 -0.2453
   20MOL   C50013078   4.920   5.888   2.941  0.3287 -0.0926  0.3788
   20MOL   C50113079   4.895   6.031   2.899 -0.1036 -0.1645  0.7338
   20MOL   C50213080   4.990   6.133   2.973 -0.1110 -0.5573 -0.3414
   20MOL   C50313081   4.995   6.270   2.919 -0.1789  0.7087 -0.0012
   20MOL   C50413082   4.871   6.357   2.933  0.1102  0.2851 -0.1040
   20MOL   C50513083   4.899   6.497   2.874  0.1872 -0.3049  0.5856
   20MOL   C50613084   4.883   6.509   2.721  0.2881  0.7134  0.6800
   20MOL   C50713085   4.749   6.468   2.658 -0.2631  0.2682 -0.5819
   20MOL   H50813086   4.683   5.609   3.089  0.3449 -0.0792  1.5424
   20MOL   H50913087   4.802   5.710   3.142 -0.2460  1.1237 -1.5863
   20MOL   H51013088   4.942   5.601   2.938  1.2503  1.5029  1.3720
   20MOL   H51113089   4.716   5.815   2.921 -1.1913 -1.8356 -2.3648
   20MOL   H51213090   4.809   5.793   2.787 -2.8703  2.2063  0.1473
   20MOL   H51313091   5.015   5.846   2.906 -0.8658 -0.3718 -2.7304
   20MOL   H51413092   4.930   5.876   3.049 -0.7983 -1.4990  0.3402
   20MOL   H51513093   4.915   6.042   2.793 -1.3745  0.3162  0.5411
   20MOL   H51613094   4.790   6.048   2.920 -0.3577  3.8568 -2.9984
   20MOL   H51713095   4.956   6.155   3.074  0.7311 -1.2100  0.0894
   20MOL   H51813096   5.088   6.089   2.990 -0.4945 -0.3445  2.6923
   20MOL   H51913097   5.074   6.327   2.967 -1.1270 -1.0811  3.8848
   20MOL   H52013098   5.017   6.261   2.812 -1.7744 -2.1340 -0.1390
   20MOL   H52113099   4.841   6.375   3.036 -0.4992  0.9620 -0.3932
   20MOL   H52213100   4.790   6.304   2.883  0.2098 -0.4886  0.5472
   20MOL   H52313101   4.993   6.541   2.905 -0.5330  0.4660  1.7075
   20MOL   H52413102   4.826   6.562   2.923 -0.9358 -0.7895 -0.4191
   20MOL   H52513103   4.963   6.447   2.680  1.8206  1.5407  2.3270
   20MOL   H52613104   4.893   6.613   2.688  3.1298 -0.5623 -2.8610
   20MOL   H52713105   4.720   6.366   2.684  2.7867 -0.2663  0.9306
   20MOL   H52813106   4.771   6.457   2.552  0.8385  1.1140 -0.4465
   20MOL   H52913107   4.674   6.545   2.678 -0.8372  0.0036 -1.6491
   20MOL   C53013108   4.759   5.539   2.844 -0.4138  0.2279  0.6275
   20MOL   C53113109   4.788   5.543   2.687  0.5037 -0.5659 -0.4858
   20MOL   C53213110   4.722   5.417   2.627 -0.5144 -0.3028 -0.7047
   20MOL   C53313111   4.584   5.393   2.680 -0.1511 -0.5941 -0.7892
   20MOL   C53413112   4.495   5.309   2.584  0.3234 -0.1615 -0.4052
   20MOL   C53513113   4.361   5.285   2.653  0.0094  0.0017  0.3186
   20MOL   C53613114   4.271   5.192   2.566 -0.1767 -0.0719 -0.8720
   20MOL   C53713115   4.136   5.172   2.639  0.0616  0.0473 -0.2703
   20MOL   C53813116   4.040   5.279   2.611 -0.7523 -0.3526  0.2485
   20MOL   C53913117   3.907   5.259   2.685  0.6528  0.0745  0.1307
   20MOL   C54013118   3.793   5.348   2.635 -0.3322 -0.5042 -0.2204
   20MOL   H54113119   4.773   5.443   2.893 -0.4197 -0.1895 -0.1804
   20MOL   H54213120   4.651   5.553   2.854 -0.8935 -1.5798 -1.6840
   20MOL   H54313121   4.745   5.627   2.632  1.0226 -0.2583 -0.4218
   20MOL   H54413122   4.787   5.332   2.645 -1.8903 -0.8391  2.1355
   20MOL   H54513123   4.698   5.436   2.522 -1.1593 -2.4323 -0.9601
   20MOL   H54613124   4.535   5.490   2.687 -1.3942 -1.3613  1.6389
   20MOL   H54713125   4.577   5.355   2.782 -1.5361 -2.4106 -1.5331
   20MOL   H54813126   4.550   5.216   2.573  0.4439 -0.0254 -0.9852
   20MOL   H54913127   4.491   5.360   2.488 -2.3053  0.0872 -0.2076
   20MOL   H55013128   4.305   5.378   2.667  0.0231  0.5398 -2.8123
   20MOL   H55113129   4.376   5.234   2.748  0.0293  2.5339  1.7302
   20MOL   H55213130   4.319   5.095   2.551  0.9129  0.0125  1.7820
   20MOL   H55313131   4.271   5.230   2.464 -3.4248 -0.6152 -1.1130
   20MOL   H55413132   4.153   5.154   2.745 -0.4008  0.1076 -0.1859
   20MOL   H55513133   4.101   5.085   2.585 -1.1824  0.9166 -0.8893
   20MOL   H55613134   4.021   5.279   2.504  0.8249  1.1164 -0.0638
   20MOL   H55713135   4.080   5.374   2.646 -0.1080 -0.0280 -1.3386
   20MOL   H55813136   3.923   5.299   2.785 -1.2006 -0.0226  0.4833
   20MOL   H55913137   3.876   5.154   2.686  2.1228 -0.3992  3.2679
   20MOL   H56013138   3.780   5.336   2.528  3.8384  1.3374 -1.0370
   20MOL   H56113139   3.694   5.315   2.667 -0.5991  1.0984  0.6665
   20MOL   H56213140   3.817   5.454   2.649  0.1614 -0.8655  1.7899
   20MOL   C56313141   4.933   5.543   2.652 -0.6972  0.0203 -0.0282
   20MOL   C56413142   4.959   5.550   2.496  0.8641  0.0761 -0.0359
   20MOL   C56513143   5.018   5.419   2.447  0.1590 -0.4617  0.3875
   20MOL   C56613144   5.043   5.398   2.293 -0.3997 -0.4208 -0.1827
   20MOL   C56713145   4.916   5.405   2.203 -0.0728 -0.3378 -0.2017
   20MOL   C56813146   4.945   5.390   2.053  0.4902 -0.0486  0.2483
   20MOL   C56913147   4.825   5.428   1.968 -0.1702 -0.3262 -0.2435
   20MOL   C57013148   4.841   5.391   1.823  0.0999 -0.6392  0.2143
   20MOL   C57113149   4.734   5.463   1.741  0.2682 -0.1712 -0.6656
   20MOL   C57213150   4.734   5.398   1.608  0.4175 -0.6284 -0.2787
   20MOL   C57313151   4.630   5.449   1.510 -0.6865  0.7821 -0.0944
   20MOL   H57413152   4.975   5.449   2.687 -2.5876 -0.7734  0.1450
   20MOL   H57513153   4.996   5.621   2.695  0.9932 -1.0831 -0.4405
   20MOL   H57613154   4.861   5.551   2.447  0.8599  2.1094  0.0032
   20MOL   H57713155   4.963   5.329   2.475  1.0593 -1.8598 -2.2076
   20MOL   H57813156   5.116   5.416   2.495  0.5115  0.2760 -0.2886
   20MOL   H57913157   5.082   5.296   2.288 -2.7596 -1.4260  1.4409
   20MOL   H58013158   5.118   5.466   2.253 -1.1819  0.2226 -0.5568
   20MOL   H58113159   4.851   5.491   2.219 -0.1420 -0.6375  1.1955
   20MOL   H58213160   4.847   5.332   2.244  0.4871 -0.6442  0.2089
   20MOL   H58313161   5.032   5.444   2.016 -0.5911  0.3739 -1.7196
   20MOL   H58413162   4.970   5.285   2.033  0.1519 -0.2600  0.9238
   20MOL   H58513163   4.727   5.399   2.006 -1.3107  1.1064 -2.0235
   20MOL   H58613164   4.816   5.536   1.985  0.9236 -0.0810 -1.1268
   20MOL   H58713165   4.849   5.282   1.819 -1.2717 -0.6702 -2.4707
   20MOL   H58813166   4.940   5.427   1.794  0.6387 -1.6797  0.7371
   20MOL   H58913167   4.745   5.571   1.735 -0.4898  0.0474  1.3535
   20MOL   H59013168   4.638   5.453   1.793  0.6278  0.0412  0.0548
   20MOL   H59113169   4.716   5.291   1.617 -1.0770 -0.3177  0.4851
   20MOL   H59213170   4.835   5.408   1.566  0.5028  0.3302  0.1415
   20MOL   H59313171   4.617   5.384   1.423  3.5932 -1.2912  0.6610
   20MOL   H59413172   4.538   5.455   1.568 -1.4951 -0.2044 -1.2534
   20MOL   H59513173   4.658   5.549   1.477 -0.0159  1.0128  1.1635
   20MOL   C59613174   5.033   5.673   2.447 -0.3465  0.2274 -0.1176
   20MOL   C59713175   4.949   5.802   2.463 -0.5087  0.6178 -0.3494
   20MOL   C59813176   4.830   5.819   2.363 -0.5338 -0.2036 -0.6864
   20MOL   C59913177   4.874   5.840   2.219  0.4586  0.4114  0.3336
   20MOL   C60013178   4.761   5.898   2.125  0.0537  0.3048  0.4685
   20MOL   C60113179   4.780   5.875   1.975  0.3353 -0.3049 -0.0129
   20MOL   C60213180   4.653   5.924   1.907  0.2005 -0.2619 -0.4281
   20MOL   C60313181   4.679   5.946   1.757  0.7939 -0.1589  0.0985
   20MOL   C60413182   4.556   6.006   1.693  0.1818 -0.0604 -0.3204
   20MOL   C60513183   4.555   6.005   1.541  0.4466  0.1805 -0.0828
   20MOL   C60613184   4.538   5.863   1.484  0.7827  0.7092  0.0840
   20MOL   H60713185   5.126   5.671   2.504 -0.1831  0.4586 -0.3795
   20MOL   H60813186   5.061   5.667   2.342  2.5078  1.0492  0.5759
   20MOL   H60913187   4.895   5.803   2.558  0.9086  0.6082  0.4880
   20MOL   H61013188   4.761   5.898   2.394  1.6313  1.4164  0.1264
   20MOL   H61113189   4.775   5.725   2.368  1.5715 -1.4499 -0.2212
   20MOL   H61213190   4.898   5.739   2.187  0.9079  0.5615  0.2005
   20MOL   H61313191   4.964   5.900   2.206  0.5577  0.3030  0.5167
   20MOL   H61413192   4.768   6.006   2.142  0.0337  0.0095  2.4741
   20MOL   H61513193   4.663   5.862   2.159  0.1948  0.5864  1.1805
   20MOL   H61613194   4.867   5.937   1.952 -1.3697  1.7888 -0.9843
   20MOL   H61713195   4.788   5.766   1.968  1.1625 -0.1458 -1.7134
   20MOL   H61813196   4.625   6.017   1.955 -1.0586 -1.7204  1.7601
   20MOL   H61913197   4.567   5.857   1.910  0.9189 -1.2794 -1.5982
   20MOL   H62013198   4.697   5.847   1.713  0.8338 -1.4065  2.7950
   20MOL   H62113199   4.755   6.019   1.732 -0.4320  1.0213 -0.2214
   20MOL   H62213200   4.469   5.945   1.718  0.8859 -0.6036  0.8457
   20MOL   H62313201   4.531   6.102   1.737  1.2057  0.4806 -0.9120
   20MOL   H62413202   4.648   6.056   1.517  0.2541  1.2360  1.3353
   20MOL   H62513203   4.474   6.070   1.508 -1.2007 -0.9439  1.6571
   20MOL   H62613204   4.548   5.856   1.376  1.4426 -0.6306  0.2152
   20MOL   H62713205   4.596   5.785   1.535  1.3664  1.4199  0.5215
   20MOL   H62813206   4.438   5.824   1.499 -0.8553  4.7000 -0.1205
   20MOL   C62913207   5.040   5.929   2.454  0.4563  0.7447 -0.1883
   20MOL   C63013208   5.120   5.968   2.579 -0.3756 -0.4385  0.0917
   20MOL   C63113209   5.170   6.122   2.578 -0.7874  0.6548 -0.0419
   20MOL   C63213210   5.278   6.172   2.676 -0.3312 -0.2614 -0.3639
   20MOL   C63313211   5.335   6.302   2.634  0.9847  0.0012 -0.3557
   20MOL   C63413212   5.435   6.360   2.728  0.3919  0.3399 -0.1916
   20MOL   C63513213   5.510   6.468   2.652 -0.6748  0.7533  0.6079
   20MOL   C63613214   5.620   6.530   2.750  0.2687 -0.5815  0.3439
   20MOL   C63713215   5.680   6.658   2.701  0.4727 -0.0636 -0.2096
   20MOL   C63813216   5.776   6.640   2.590  0.1822  0.0783 -0.6072
   20MOL   C63913217   5.806   6.772   2.518 -0.1879 -0.4436 -0.0559
   20MOL   H64013218   5.111   5.919   2.372 -0.2740  1.6033 -0.9340
   20MOL   H64113219   4.981   6.018   2.430 -0.5613  0.0243 -0.4066
   20MOL   H64213220   5.083   5.937   2.677  1.5345  0.5863  1.1728
   20MOL   H64313221   5.207   6.131   2.476 -1.5282  0.7643 -0.3061
   20MOL   H64413222   5.084   6.189   2.575 -0.1617  1.4215 -1.2785
   20MOL   H64513223   5.362   6.102   2.681 -0.6282 -0.5287  1.2064
   20MOL   H64613224   5.232   6.185   2.774  0.7738  0.9536  0.0157
   20MOL   H64713225   5.248   6.366   2.621  1.3887  0.8158  0.8241
   20MOL   H64813226   5.390   6.287   2.541  4.4302  2.7814  1.0964
   20MOL   H64913227   5.507   6.285   2.763 -0.1312 -1.2874 -2.4519
   20MOL   H65013228   5.386   6.414   2.808 -1.9894 -1.3185 -0.5000
   20MOL   H65113229   5.445   6.550   2.621 -0.3445  0.1447 -1.7811
   20MOL   H65213230   5.553   6.422   2.563 -0.8337  1.0516  0.3776
   20MOL   H65313231   5.698   6.456   2.771 -1.7659 -2.0647  2.9068
   20MOL   H65413232   5.567   6.548   2.843 -0.1092  0.4692 -0.0674
   20MOL   H65513233   5.713   6.722   2.782  0.1924  1.3135 -1.1796
   20MOL   H65613234   5.606   6.723   2.656 -0.2459 -0.8269 -0.1486
   20MOL   H65713235   5.733   6.580   2.509  2.4874 -0.2456 -1.6402
   20MOL   H65813236   5.864   6.584   2.622 -0.0876  0.8135  1.4849
   20MOL   H65913237   5.717   6.816   2.474  0.8636  1.9954  0.1803
   20MOL   H66013238   5.881   6.750   2.442  0.5722 -3.1928  1.4295
   20MOL   H66113239   5.861   6.844   2.578  0.4232 -1.4950  0.6737
   20MOL   H66213240   5.211   5.909   2.577 -0.1602 -0.2735  2.6869
   21MOL     C113241   1.686   2.884   7.297  0.0336  0.4738 -0.1933
   21MOL     C213242   1.542   2.887   7.346 -0.2916  0.2801 -0.0981
   21MOL     C313243   1.484   2.736   7.356 -0.3199  0.4390  0.1883
   21MOL     C413244   1.332   2.738   7.376 -0.5434 -0.3993  0.0814
   21MOL     C513245   1.253   2.607   7.348  0.2952  0.7034  0.0999
   21MOL     C613246   1.105   2.630   7.363 -0.1000  0.0309  0.0265
   21MOL     C713247   1.020   2.514   7.314  0.6994  0.2951  0.0225
   21MOL     C813248   0.875   2.555   7.309 -0.5779 -0.4632 -0.7022
   21MOL     C913249   0.792   2.438   7.257  0.7960 -0.2860  0.3950
   21MOL    C1013250   0.640   2.466   7.272  0.8708 -0.1133  0.5702
   21MOL    C1113251   0.539   2.354   7.224 -0.0759  0.2564  0.2063
   21MOL    H1213252   1.693   2.856   7.192  0.9642 -1.2430  0.2976
   21MOL    H1313253   1.743   2.807   7.350 -0.2456 -0.7844 -1.6690
   21MOL    H1413254   1.475   2.943   7.281 -0.3975  1.7351  1.2516
   21MOL    H1513255   1.544   2.678   7.426 -2.7858 -3.2574 -0.6278
   21MOL    H1613256   1.502   2.700   7.255 -1.0778 -0.9822  0.5456
   21MOL    H1713257   1.290   2.821   7.318 -0.4977  1.2416  2.3422
   21MOL    H1813258   1.314   2.765   7.480  3.7874  2.6646  0.1773
   21MOL    H1913259   1.266   2.567   7.248 -4.0838 -2.5074  0.6789
   21MOL    H2013260   1.289   2.518   7.400 -0.9709  0.5610  0.7593
   21MOL    H2113261   1.079   2.715   7.300 -0.6736  0.2185  0.5137
   21MOL    H2213262   1.073   2.647   7.466 -0.6887 -2.7911  0.3356
   21MOL    H2313263   1.065   2.492   7.217  1.0874 -1.1690  0.5176
   21MOL    H2413264   1.033   2.435   7.388 -1.5097  0.3279  0.4706
   21MOL    H2513265   0.863   2.642   7.245 -2.1163  1.4921  2.1735
   21MOL    H2613266   0.849   2.570   7.413  0.7744 -1.8472 -0.1421
   21MOL    H2713267   0.826   2.341   7.294  1.0878 -0.5364 -0.5210
   21MOL    H2813268   0.809   2.427   7.150 -3.0371  1.2250 -0.4758
   21MOL    H2913269   0.623   2.571   7.252  1.6757 -0.4908 -2.2550
   21MOL    H3013270   0.626   2.477   7.380 -0.7282 -0.1850  0.3708
   21MOL    H3113271   0.447   2.410   7.241 -2.0887 -2.6872 -0.6388
   21MOL    H3213272   0.557   2.343   7.117  0.6192  2.5263  0.0548
   21MOL    H3313273   0.561   2.260   7.274  5.5931  2.1533  1.7742
   21MOL    H3413274   1.740   2.978   7.307  1.3607 -0.1801 -1.0175
   21MOL    C3513275   1.522   2.958   7.484 -0.1712 -0.4516 -0.0513
   21MOL    C3613276   1.563   3.111   7.501 -0.4706  0.0493 -0.2839
   21MOL    C3713277   1.452   3.203   7.443 -0.7921 -0.5314  0.1681
   21MOL    C3813278   1.498   3.349   7.406  0.9185 -0.3010 -0.1892
   21MOL    C3913279   1.376   3.431   7.356  0.2517 -0.3755  0.0310
   21MOL    C4013280   1.283   3.486   7.460 -0.7620  0.4535 -0.5155
   21MOL    C4113281   1.167   3.557   7.393  0.7793 -0.4524  0.1384
   21MOL    C4213282   1.049   3.475   7.348 -0.5337  0.0886  0.5051
   21MOL    C4313283   0.956   3.547   7.244 -0.0266  1.0958  0.2519
   21MOL    C4413284   1.019   3.558   7.102  0.0711 -0.1034  0.3566
   21MOL    C4513285   0.937   3.656   7.022  0.2442  0.1005 -0.7838
   21MOL    H4613286   1.561   2.899   7.566 -3.8386 -0.4431  1.8198
   21MOL    H4713287   1.415   2.964   7.501 -0.1443 -0.5826  0.1603
   21MOL    H4813288   1.652   3.144   7.447  1.4122 -0.8400  2.1894
   21MOL    H4913289   1.398   3.155   7.361  2.1175 -2.3470 -0.7855
   21MOL    H5013290   1.374   3.188   7.517 -1.9785  0.9514 -0.7558
   21MOL    H5113291   1.569   3.335   7.325  0.5207  0.4131 -0.6617
   21MOL    H5213292   1.539   3.407   7.488 -1.4041  1.7096 -0.3852
   21MOL    H5313293   1.315   3.368   7.291 -1.6462 -0.9342  2.2995
   21MOL    H5413294   1.401   3.519   7.296 -0.0404  0.9028  1.7609
   21MOL    H5513295   1.344   3.563   7.508  2.2281 -1.9748 -0.2904
   21MOL    H5613296   1.248   3.418   7.537 -3.5790  0.5401 -1.6751
   21MOL    H5713297   1.130   3.629   7.465 -0.4510 -0.4137 -0.5164
   21MOL    H5813298   1.205   3.616   7.309  0.8725 -0.2181  0.3472
   21MOL    H5913299   0.986   3.441   7.431 -0.1266 -2.0132 -0.0073
   21MOL    H6013300   1.081   3.376   7.315 -0.7641  0.3836 -0.6186
   21MOL    H6113301   0.931   3.645   7.283 -2.4470  0.4852  0.3555
   21MOL    H6213302   0.866   3.485   7.231  0.1952  1.2011 -2.0493
   21MOL    H6313303   1.122   3.592   7.092 -0.2345  0.8580  0.4631
   21MOL    H6413304   1.021   3.455   7.064  1.5260  0.5142 -1.3155
   21MOL    H6513305   0.832   3.629   7.017  0.0811  0.9537 -2.3468
   21MOL    H6613306   0.949   3.749   7.078  1.0584 -0.6645  0.3377
   21MOL    H6713307   0.972   3.674   6.920  1.1047 -1.7848 -0.8488
   21MOL    C6813308   1.612   3.143   7.645  0.4262  0.3235 -0.7913
   21MOL    C6913309   1.509   3.154   0.056  0.6565  0.4597  0.1720
   21MOL    C7013310   1.442   3.021   0.099 -0.3121  0.4076 -1.5638
   21MOL    C7113311   1.529   2.925   0.173  0.0578 -0.2344 -0.2205
   21MOL    C7213312   1.471   2.798   0.226 -0.4322  0.3776  0.0975
   21MOL    C7313313   1.409   2.700   0.131 -0.4183  0.0699 -0.1625
   21MOL    C7413314   1.510   2.608   0.066  0.2646  0.2524 -0.0789
   21MOL    C7513315   1.456   2.488   7.688 -0.1239  0.1310  0.1080
   21MOL    C7613316   1.562   2.412   7.603 -0.1839 -0.6131 -0.1633
   21MOL    C7713317   1.515   2.289   7.521  0.9622 -1.1480  0.3179
   21MOL    C7813318   1.616   2.185   7.478 -0.4303  0.2655 -0.2640
   21MOL    H7913319   1.673   3.234   7.643  1.3203 -0.2623 -0.6327
   21MOL    H8013320   1.685   3.066   7.671 -0.1211 -1.2751 -3.7461
   21MOL    H8113321   1.427   3.216   0.020 -0.3129  0.6095  2.5337
   21MOL    H8213322   1.399   2.977   0.009  2.0269  0.0520 -2.5285
   21MOL    H8313323   1.356   3.055   0.157  1.7197  1.3176  1.0506
   21MOL    H8413324   1.610   2.892   0.108 -0.4610  0.4730 -1.2403
   21MOL    H8513325   1.573   2.971   0.262 -1.0504  0.5150 -0.0500
   21MOL    H8613326   1.390   2.833   0.292  0.0463 -0.5839  1.2118
   21MOL    H8713327   1.536   2.749   0.299  0.7144  0.3974 -0.9014
   21MOL    H8813328   1.345   2.636   0.190  2.3207 -1.2162  1.4823
   21MOL    H8913329   1.337   2.750   0.066 -1.1099 -0.4455  0.2135
   21MOL    H9013330   1.590   2.570   0.130 -0.2395  1.0581  1.0375
   21MOL    H9113331   1.562   2.672   7.699  0.1425 -0.9486 -1.2838
   21MOL    H9213332   1.417   2.417   0.058 -1.6862  0.5089 -0.3404
   21MOL    H9313333   1.363   2.511   7.637  0.1424 -1.2170 -1.0320
   21MOL    H9413334   1.620   2.475   7.536 -2.5254 -0.9127 -2.5605
   21MOL    H9513335   1.637   2.372   7.672 -0.2269  0.9147  0.7829
   21MOL    H9613336   1.426   2.255   7.573  0.1630  1.1472  0.5368
   21MOL    H9713337   1.482   2.332   7.425 -0.1742 -1.7084  0.4476
   21MOL    H9813338   1.568   2.087   7.468  1.3416 -0.4674 -1.8505
   21MOL    H9913339   1.695   2.175   7.551 -0.6020  1.4946  0.0947
   21MOL   H10013340   1.667   2.219   7.388  1.3176 -1.7934 -0.1039
   21MOL   C10113341   1.562   3.240   0.173 -0.5812 -0.0361 -0.3465
   21MOL   C10213342   1.458   3.306   0.266 -0.1453  0.5756 -0.6779
   21MOL   C10313343   1.385   3.417   0.199 -0.2579  0.0099 -0.0624
   21MOL   C10413344   1.252   3.461   0.265 -0.5192  0.1126  0.6300
   21MOL   C10513345   1.173   3.552   0.167  0.4657 -0.4949  0.4535
   21MOL   C10613346   1.051   3.608   0.232  0.5519  0.2883 -0.4858
   21MOL   C10713347   0.994   3.722   0.146  0.6447  0.3745  0.2080
   21MOL   C10813348   0.908   3.681   0.028  0.9044 -0.9170  1.0086
   21MOL   C10913349   0.872   3.794   7.628 -0.3281 -0.6413  0.2090
   21MOL   C11013350   0.770   3.764   7.517 -0.1660  0.9681 -0.6123
   21MOL   C11113351   0.793   3.846   7.392  0.7213  0.2448 -0.6075
   21MOL   H11213352   1.627   3.175   0.230  0.3570 -0.8324 -2.2964
   21MOL   H11313353   1.629   3.317   0.134 -0.4854 -0.3054 -0.7104
   21MOL   H11413354   1.382   3.232   0.292 -0.8734  1.3780 -0.4925
   21MOL   H11513355   1.453   3.502   0.191 -0.7436  0.3621 -0.4742
   21MOL   H11613356   1.362   3.401   0.093 -1.4652 -0.6735  0.2952
   21MOL   H11713357   1.204   3.365   0.285  1.9449 -1.6277 -1.4070
   21MOL   H11813358   1.266   3.510   0.361 -0.2667  0.4233  0.4354
   21MOL   H11913359   1.236   3.637   0.140  0.0420 -0.6683 -1.1030
   21MOL   H12013360   1.143   3.507   0.073  0.7098 -0.8676  0.5539
   21MOL   H12113361   0.984   3.525   0.252 -0.2462  0.7818 -1.0535
   21MOL   H12213362   1.079   3.650   0.329  2.8873  0.8814 -1.3796
   21MOL   H12313363   1.070   3.788   0.104  1.3735  0.7709  2.0845
   21MOL   H12413364   0.931   3.789   0.205  1.0708  1.4205 -0.5121
   21MOL   H12513365   0.962   3.606   7.674 -2.3876 -1.0202 -2.1504
   21MOL   H12613366   0.818   3.632   0.064  0.9730 -2.3567 -0.7103
   21MOL   H12713367   0.844   3.875   7.695  2.2360  0.2154  0.2939
   21MOL   H12813368   0.969   3.822   7.587 -0.6075 -1.8123 -1.2942
   21MOL   H12913369   0.673   3.772   7.566 -0.8401 -0.2197 -1.7406
   21MOL   H13013370   0.788   3.660   7.492 -2.2686  0.1389  1.1229
   21MOL   H13113371   0.899   3.858   7.367  1.3898  0.5309  2.1457
   21MOL   H13213372   0.743   3.813   7.301  0.4524 -1.0275 -0.0046
   21MOL   H13313373   0.758   3.947   7.415  0.4454  0.0358 -0.0959
   21MOL   C13413374   1.525   3.357   0.398 -0.1011  0.5428  0.0172
   21MOL   C13513375   1.559   3.237   0.498 -0.1055 -0.3395  0.1926
   21MOL   C13613376   1.448   3.219   0.610 -0.3059  0.4588  0.0483
   21MOL   C13713377   1.299   3.199   0.568  0.1990  0.8366  0.0630
   21MOL   C13813378   1.266   3.056   0.508  0.5467  0.0137 -0.0854
   21MOL   C13913379   1.130   3.043   0.434 -0.6698  0.2944 -0.0383
   21MOL   C14013380   1.117   2.898   0.391 -0.0928  0.4749 -0.3989
   21MOL   C14113381   0.977   2.851   0.344  0.4162  0.8851  1.0575
   21MOL   C14213382   0.978   2.747   0.231 -0.2294 -0.4631 -0.2319
   21MOL   C14313383   0.859   2.756   0.139  0.6140  0.0672  0.0255
   21MOL   C14413384   0.874   2.650   0.025  0.3531  0.5264 -0.3984
   21MOL   H14513385   1.622   3.398   0.370 -0.3211  1.1149  0.0784
   21MOL   H14613386   1.479   3.440   0.453  0.7993  0.3580  1.0783
   21MOL   H14713387   1.546   3.148   0.436 -0.2936  0.1570 -0.4738
   21MOL   H14813388   1.455   3.309   0.670  1.9523  0.8488 -0.7636
   21MOL   H14913389   1.484   3.140   0.676  0.4094  0.8566  0.1326
   21MOL   H15013390   1.242   3.207   0.660  1.4728  0.2518  0.9136
   21MOL   H15113391   1.247   3.281   0.519 -0.7174 -0.0719 -0.5081
   21MOL   H15213392   1.342   3.046   0.431  0.0767 -6.0604  0.0115
   21MOL   H15313393   1.281   2.965   0.566 -1.2083 -0.6176 -0.5667
   21MOL   H15413394   1.056   3.074   0.507 -1.7243 -2.3569  0.0936
   21MOL   H15513395   1.125   3.114   0.352  0.8060 -1.1870 -1.4428
   21MOL   H15613396   1.191   2.880   0.314 -1.6214  0.4512 -1.8850
   21MOL   H15713397   1.145   2.842   0.480 -1.5805  0.2149 -0.0843
   21MOL   H15813398   0.918   2.820   0.430  2.4816 -1.1216  1.8310
   21MOL   H15913399   0.923   2.937   0.306 -0.5481 -0.7415 -1.4234
   21MOL   H16013400   1.069   2.745   0.171 -0.2197  1.9680 -0.3652
   21MOL   H16113401   0.979   2.644   0.267  3.0806 -1.3328 -2.5630
   21MOL   H16213402   0.774   2.755   0.208  0.7078 -0.0970  0.1388
   21MOL   H16313403   0.841   2.856   0.099 -0.4565 -0.4205 -0.7083
   21MOL   H16413404   0.967   2.671   7.677  1.1116 -0.2103  0.6504
   21MOL   H16513405   0.790   2.643   7.659 -1.0280 -0.2005  1.3218
   21MOL   H16613406   0.884   2.557   0.082 -1.8360  0.4520 -0.0843
   21MOL   C16713407   1.699   3.255   0.567  0.5707  0.0116 -0.1720
   21MOL   C16813408   1.820   3.180   0.508 -0.1906  0.0080 -0.2253
   21MOL   C16913409   1.859   3.042   0.576 -0.4620 -0.3190  0.0630
   21MOL   C17013410   1.740   2.934   0.600 -0.1959  0.1546 -0.0526
   21MOL   C17113411   1.784   2.794   0.644  0.3780 -0.0179 -0.3661
   21MOL   C17213412   1.695   2.685   0.584 -1.5220  0.0115  0.5672
   21MOL   C17313413   1.753   2.546   0.624 -0.1602 -0.2131  0.6196
   21MOL   C17413414   1.648   2.442   0.571 -0.2632  0.2103  0.5513
   21MOL   C17513415   1.667   2.302   0.617  0.3927  0.1249 -0.4353
   21MOL   C17613416   1.524   2.229   0.612 -0.5345  0.6511 -0.3154
   21MOL   C17713417   1.529   2.075   0.644  0.1051  0.9274 -0.5797
   21MOL   H17813418   1.706   3.363   0.584  2.6738 -0.6328  3.5849
   21MOL   H17913419   1.707   3.219   0.670  0.6595  1.2380  0.2597
   21MOL   H18013420   1.791   3.155   0.406  0.4668 -1.8538  0.0356
   21MOL   H18113421   1.905   3.057   0.673  2.1449  0.9064 -1.3047
   21MOL   H18213422   1.947   3.001   0.527  0.6198 -1.0581  2.5587
   21MOL   H18313423   1.675   2.961   0.683  2.1590 -0.1087  1.9318
   21MOL   H18413424   1.674   2.916   0.515  1.0346 -1.7743 -0.6355
   21MOL   H18513425   1.804   2.789   0.751 -3.2351  1.2452  0.4255
   21MOL   H18613426   1.889   2.791   0.613  1.1782  2.3614  1.9166
   21MOL   H18713427   1.588   2.701   0.597 -1.5572 -1.0436  1.6297
   21MOL   H18813428   1.718   2.683   0.477  0.0071  0.6505  0.8627
   21MOL   H18913429   1.765   2.535   0.732  3.2238 -2.4770  0.1005
   21MOL   H19013430   1.850   2.532   0.577 -1.0671  1.3194 -1.8239
   21MOL   H19113431   1.556   2.474   0.620  0.5229  1.2384  1.3935
   21MOL   H19213432   1.629   2.444   0.463 -0.1546  1.5916  0.5506
   21MOL   H19313433   1.687   2.315   0.724 -4.8352  0.8811  0.5754
   21MOL   H19413434   1.750   2.252   0.568  0.8510  1.3422 -0.9187
   21MOL   H19513435   1.475   2.229   0.515 -2.9063 -0.5655  0.8532
   21MOL   H19613436   1.455   2.278   0.680 -0.0208  1.1701 -0.1599
   21MOL   H19713437   1.435   2.027   0.672 -0.2091  1.1408 -1.2631
   21MOL   H19813438   1.576   2.063   0.742 -3.2237  1.3702  1.1488
   21MOL   H19913439   1.582   2.029   0.561 -0.3423 -1.2637  0.3089
   21MOL   C20013440   1.954   3.264   0.510 -0.0025 -0.2444 -0.4760
   21MOL   C20113441   1.943   3.371   0.399 -1.1210 -0.5339 -0.7426
   21MOL   C20213442   1.945   3.306   0.260 -0.5386  0.2698  0.0370
   21MOL   C20313443   2.051   3.199   0.224 -0.3855  0.2050 -0.4424
   21MOL   C20413444   2.048   3.160   0.076  0.5899  0.1053  0.1487
   21MOL   C20513445   2.073   3.269   7.673  0.7364  1.0373 -0.5746
   21MOL   C20613446   2.206   3.342   7.680  0.2035  0.2878  0.1885
   21MOL   C20713447   2.326   3.248   7.659 -0.0710  0.0617  0.2753
   21MOL   C20813448   2.452   3.323   7.656 -0.0617 -0.2156  0.5230
   21MOL   C20913449   2.566   3.250   7.599  0.5177  0.0148 -0.3860
   21MOL   C21013450   2.694   3.342   7.591  0.1840 -0.4678 -0.4472
   21MOL   H21113451   1.973   3.306   0.609 -3.2491 -0.8223  0.4589
   21MOL   H21213452   2.031   3.188   0.491  0.1105 -0.3993  0.5830
   21MOL   H21313453   1.847   3.421   0.414 -0.9129 -0.4502  0.3925
   21MOL   H21413454   1.949   3.392   0.193  1.8121 -0.7539 -1.2127
   21MOL   H21513455   1.852   3.262   0.223 -0.2053 -1.4134  1.1589
   21MOL   H21613456   2.029   3.106   0.277 -0.3844  0.8100  0.6263
   21MOL   H21713457   2.152   3.228   0.251 -0.7038  0.7122  0.2102
   21MOL   H21813458   1.953   3.107   0.062  1.0394 -0.4648 -0.7745
   21MOL   H21913459   2.118   3.078   0.063 -1.4064 -1.4219 -1.2942
   21MOL   H22013460   2.062   3.225   7.574  1.3377 -2.2169  0.7300
   21MOL   H22113461   1.994   3.343   7.687 -0.2109  0.4042 -2.2982
   21MOL   H22213462   2.207   3.402   0.068  0.2793 -0.4711  0.6922
   21MOL   H22313463   2.199   3.422   7.607 -2.3409 -0.0946 -0.0019
   21MOL   H22413464   2.306   3.190   7.570  0.0589  1.8026 -0.9117
   21MOL   H22513465   2.340   3.179   0.039  0.7733  0.0009  0.0804
   21MOL   H22613466   2.475   3.358   0.053  1.9161  0.4875 -0.1421
   21MOL   H22713467   2.431   3.409   7.593 -0.5746 -1.0917 -0.5408
   21MOL   H22813468   2.590   3.166   7.664 -1.4660 -0.9005 -0.8169
   21MOL   H22913469   2.539   3.193   7.509 -0.2569 -0.7539  0.3305
   21MOL   H23013470   2.781   3.295   7.545  0.5379 -1.4954  1.2166
   21MOL   H23113471   2.725   3.363   7.694 -0.9632  0.3850 -0.2704
   21MOL   H23213472   2.688   3.439   7.542  2.5029  0.4199  0.8975
   21MOL   C23313473   2.067   3.462   0.422 -0.7232  0.6049 -0.4710
   21MOL   C23413474   2.044   3.600   0.358 -0.0098  0.3033  0.8358
   21MOL   C23513475   2.183   3.672   0.350 -0.7456 -0.2504  0.1117
   21MOL   C23613476   2.282   3.624   0.245  0.3752  0.3041  0.0515
   21MOL   C23713477   2.403   3.722   0.223 -0.4479  0.0872 -0.0921
   21MOL   C23813478   2.467   3.708   0.086  0.3314 -0.6656  0.2271
   21MOL   C23913479   2.576   3.814   0.066  0.2661 -0.1156  0.8273
   21MOL   C24013480   2.667   3.788   7.645 -0.3248  0.2027  0.3395
   21MOL   C24113481   2.765   3.889   7.612 -0.1204 -0.3543  0.0188
   21MOL   C24213482   2.878   3.919   0.014  0.0078 -0.2296  0.6320
   21MOL   C24313483   2.984   4.021   7.668 -0.4588 -0.4391  0.3189
   21MOL   H24413484   2.147   3.414   0.365  1.8639  3.2858  0.7540
   21MOL   H24513485   2.099   3.473   0.525 -2.7224 -2.1821  0.4999
   21MOL   H24613486   2.013   3.585   0.254  1.0361 -0.0317  0.5668
   21MOL   H24713487   2.161   3.773   0.313 -0.1623 -0.0198  0.3849
   21MOL   H24813488   2.226   3.689   0.449 -0.6523  0.4766 -0.0484
   21MOL   H24913489   2.234   3.602   0.150 -0.6217 -0.0133  0.6118
   21MOL   H25013490   2.319   3.522   0.258 -0.2522  0.1469  0.6402
   21MOL   H25113491   2.487   3.712   0.291  2.6041  1.8418 -3.4352
   21MOL   H25213492   2.363   3.822   0.242 -0.7210 -0.0475  0.0513
   21MOL   H25313493   2.390   3.708   0.010 -0.8271 -0.6561  1.3755
   21MOL   H25413494   2.509   3.607   0.083  0.7636 -0.4490 -1.6222
   21MOL   H25513495   2.518   3.906   0.066 -0.6209 -0.6669  1.1683
   21MOL   H25613496   2.638   3.820   0.156  1.0950 -0.8004  0.3233
   21MOL   H25713497   2.705   3.687   7.656  2.3596  1.0862 -0.5128
   21MOL   H25813498   2.593   3.785   7.565 -0.8786 -1.5114  0.8888
   21MOL   H25913499   2.810   3.865   7.515 -2.0185  0.1326 -1.0023
   21MOL   H26013500   2.717   3.986   7.599  0.9356  0.3830  1.4779
   21MOL   H26113501   2.918   3.827   0.057 -1.0809 -1.3098 -0.6243
   21MOL   H26213502   2.833   3.970   0.099  1.3390  0.1284  1.1339
   21MOL   H26313503   3.056   4.043   0.043 -0.9182 -1.4383  1.0330
   21MOL   H26413504   2.946   4.118   7.634 -1.8176 -0.6019  1.3353
   21MOL   H26513505   3.044   3.976   7.589 -0.5659  0.1627 -0.1132
   21MOL   C26613506   1.952   3.686   0.448  0.4513 -0.2543  0.2954
   21MOL   C26713507   1.906   3.831   0.391  0.3691  0.1502  0.6940
   21MOL   C26813508   1.803   3.891   0.492  0.0776 -0.1832  0.0619
   21MOL   C26913509   1.685   3.802   0.530 -0.4919  0.3027  0.1821
   21MOL   C27013510   1.564   3.860   0.601  0.6141 -0.2050  0.1094
   21MOL   C27113511   1.450   3.762   0.633 -0.0146 -0.4709  0.2823
   21MOL   C27213512   1.312   3.819   0.670 -0.4652  0.0070 -0.0387
   21MOL   C27313513   1.205   3.712   0.713 -0.3087  0.2749 -0.0390
   21MOL   C27413514   1.072   3.778   0.746 -0.1202 -0.4905 -0.1755
   21MOL   C27513515   0.961   3.671   0.749 -1.1705 -0.6148  0.1068
   21MOL   C27613516   0.951   3.595   0.879 -0.6076  0.4584  0.0711
   21MOL   H27713517   1.993   3.693   0.548  1.8170 -1.7748 -0.1340
   21MOL   H27813518   1.858   3.633   0.469  1.1342 -0.4783  2.9983
   21MOL   H27913519   1.989   3.902   0.394  1.0713 -0.7051  1.9511
   21MOL   H28013520   1.854   3.922   0.583 -1.5793 -2.0184  1.6401
   21MOL   H28113521   1.769   3.988   0.454  1.0093  0.0742 -0.1310
   21MOL   H28213522   1.727   3.733   0.603  1.7636  1.0702 -0.3587
   21MOL   H28313523   1.649   3.738   0.449  2.0158 -0.6536 -0.2214
   21MOL   H28413524   1.530   3.939   0.534  1.4995  0.1715  0.1031
   21MOL   H28513525   1.596   3.911   0.691  1.2600  1.5428 -1.0848
   21MOL   H28613526   1.481   3.699   0.716 -0.1481  0.6468  1.2034
   21MOL   H28713527   1.450   3.700   0.544  0.1032 -0.6923  0.4376
   21MOL   H28813528   1.323   3.889   0.753 -3.0669  1.3818 -0.7987
   21MOL   H28913529   1.292   3.878   0.581  1.8316 -2.3770 -2.2299
   21MOL   H29013530   1.240   3.653   0.797 -0.3042 -0.3499 -0.4795
   21MOL   H29113531   1.198   3.641   0.632  0.8161  0.6840 -0.5138
   21MOL   H29213532   1.078   3.820   0.846  0.0044 -2.9040  0.8670
   21MOL   H29313533   1.041   3.856   0.677  1.5318 -0.3532 -0.8012
   21MOL   H29413534   0.964   3.595   0.671 -4.5345 -1.0218  0.2810
   21MOL   H29513535   0.864   3.705   0.711 -0.6670  1.0082  0.2610
   21MOL   H29613536   0.847   3.566   0.895  0.2296 -3.2825 -0.7602
   21MOL   H29713537   0.971   3.652   0.969  0.9373  0.1751 -0.0895
   21MOL   H29813538   1.004   3.500   0.884 -2.3636 -0.4511  2.3205
   21MOL   C29913539   1.831   3.816   0.249  0.2646 -0.5024  0.5125
   21MOL   C30013540   1.921   3.811   0.130  0.2702 -0.0299  0.3161
   21MOL   C30113541   1.919   3.953   0.071  0.0873  0.0615  0.2659
   21MOL   C30213542   2.033   3.991   7.680  0.4672  0.1567 -0.0619
   21MOL   C30313543   2.172   3.999   0.042 -0.1324 -0.5866  0.7700
   21MOL   C30413544   2.276   4.077   7.654  0.1289  0.2141  0.3324
   21MOL   C30513545   2.327   4.003   7.526  0.3707 -0.1729 -0.1128
   21MOL   C30613546   2.400   4.098   7.434  0.0400 -0.7428  0.0374
   21MOL   C30713547   2.471   4.035   7.316 -0.8796  0.0764 -0.0393
   21MOL   C30813548   2.592   4.117   7.263 -0.0696  0.7501 -0.2956
   21MOL   C30913549   2.556   4.255   7.216 -0.1911 -0.0647  0.0508
   21MOL   H31013550   1.750   3.888   0.237 -1.3602 -2.2984  0.4749
   21MOL   H31113551   1.774   3.724   0.257 -0.9612  0.3356  1.6816
   21MOL   H31213552   2.021   3.808   0.174  0.6435  0.7758 -0.4523
   21MOL   H31313553   1.828   3.954   0.011  0.8754 -0.5332 -0.9695
   21MOL   H31413554   1.906   4.019   0.156 -1.1863  0.3621 -0.1478
   21MOL   H31513555   2.026   3.918   7.599 -2.8359  0.5087 -0.1812
   21MOL   H31613556   1.995   4.085   7.639  0.4222 -0.2006 -0.8501
   21MOL   H31713557   2.161   4.051   0.137 -0.4942  1.5230 -0.4027
   21MOL   H31813558   2.215   3.901   0.059  1.9641  0.4058  1.3616
   21MOL   H31913559   2.368   4.098   0.006  0.7480 -2.8145  0.5523
   21MOL   H32013560   2.235   4.172   7.620  0.7351  1.0169  1.7950
   21MOL   H32113561   2.398   3.924   7.550  1.5852  0.7714 -0.4968
   21MOL   H32213562   2.246   3.961   7.467 -0.6955  0.2349  1.0387
   21MOL   H32313563   2.472   4.160   7.488 -0.1498  0.0225 -0.5673
   21MOL   H32413564   2.325   4.170   7.401 -0.1865 -1.7529 -1.6843
   21MOL   H32513565   2.406   4.024   7.230 -0.4209 -1.6034 -0.1760
   21MOL   H32613566   2.515   3.939   7.342 -1.0939  0.9980  4.1476
   21MOL   H32713567   2.649   4.070   7.183 -2.1046 -2.1872 -0.1015
   21MOL   H32813568   2.666   4.132   7.341  1.5096  0.1662 -1.6504
   21MOL   H32913569   2.477   4.256   7.141  1.4622 -0.3346 -1.7437
   21MOL   H33013570   2.523   4.323   7.294 -0.2024 -1.7032  1.5019
   21MOL   H33113571   2.636   4.296   7.154 -0.2955 -0.0782 -0.0932
   21MOL   C33213572   1.901   3.690   0.025 -0.1330 -0.6967 -0.0689
   21MOL   C33313573   1.806   3.712   7.614  0.4141 -0.7459 -0.8793
   21MOL   C33413574   1.656   3.727   7.663 -0.0998  0.8880  0.1308
   21MOL   C33513575   1.562   3.800   7.559  0.1167 -0.4871  0.1962
   21MOL   C33613576   1.441   3.861   7.622  0.7832 -0.5152  0.6514
   21MOL   C33713577   1.340   3.923   7.526 -0.1562 -0.2793  0.6329
   21MOL   C33813578   1.230   4.006   7.591  0.1270 -0.9331  0.4897
   21MOL   C33913579   1.134   4.076   7.494  1.1369  0.2240 -0.3326
   21MOL   C34013580   1.011   4.137   7.567 -0.0791 -0.2168 -0.0950
   21MOL   C34113581   0.942   4.227   7.464  0.4057  0.4000  0.5033
   21MOL   C34213582   0.788   4.257   7.480  0.3584 -0.3074  0.2902
   21MOL   H34313583   1.998   3.671   7.683  0.8709  1.9060  0.8639
   21MOL   H34413584   1.873   3.603   0.085  0.7838 -0.2507  1.0252
   21MOL   H34513585   1.834   3.809   7.572  1.7571  0.4745  2.5934
   21MOL   H34613586   1.658   3.771   0.059  0.0936 -2.2913  1.5786
   21MOL   H34713587   1.611   3.628   7.671  1.1945  0.3418  0.7860
   21MOL   H34813588   1.609   3.884   7.509  1.0893 -1.0180  0.2111
   21MOL   H34913589   1.527   3.731   7.483 -1.6570 -0.6341  1.1065
   21MOL   H35013590   1.382   3.798   7.689  2.0354  0.8228  3.1003
   21MOL   H35113591   1.478   3.940   7.688 -0.4635  1.2167 -0.6835
   21MOL   H35213592   1.294   3.853   7.457  1.5848 -1.9457  1.0947
   21MOL   H35313593   1.377   3.989   7.448  0.2237 -1.5675 -0.2949
   21MOL   H35413594   1.280   4.075   7.659 -3.1489  1.0112  1.0311
   21MOL   H35513595   1.172   3.958   7.670 -2.3710  0.7694 -0.2412
   21MOL   H35613596   1.178   4.149   7.426  1.0699  1.7785  1.2821
   21MOL   H35713597   1.084   4.005   7.428  0.2556  0.9436 -0.4474
   21MOL   H35813598   1.032   4.196   7.656 -1.6463  1.0145 -0.5092
   21MOL   H35913599   0.938   4.063   7.602 -1.3839  0.4055 -1.4308
   21MOL   H36013600   0.953   4.184   7.364 -0.8203  0.5058  0.3146
   21MOL   H36113601   0.987   4.326   7.457 -0.0809  0.6971  1.5068
   21MOL   H36213602   0.769   4.313   7.571  0.3690  1.1053 -0.5527
   21MOL   H36313603   0.755   4.330   7.406 -1.7070  0.6940  2.1222
   21MOL   H36413604   0.733   4.163   7.472  0.6914 -0.3229 -2.3234
   21MOL   C36513605   1.806   3.596   7.508  0.3561 -0.1831 -0.5216
   21MOL   C36613606   1.934   3.576   7.425  0.4632 -0.1373 -0.1216
   21MOL   C36713607   1.918   3.457   7.326  0.2539 -0.6166 -0.3506
   21MOL   C36813608   1.826   3.485   7.205 -0.1813  0.3458  0.1415
   21MOL   C36913609   1.853   3.394   7.092 -0.3168  0.0731  0.1862
   21MOL   C37013610   1.792   3.425   6.953 -0.0012  0.8063 -0.2214
   21MOL   C37113611   1.638   3.436   6.956 -0.1168 -0.7463  0.1828
   21MOL   C37213612   1.563   3.305   6.970  0.5124 -0.2070  0.0100
   21MOL   C37313613   1.414   3.325   6.996  0.1835 -0.7554  0.0026
   21MOL   C37413614   1.343   3.201   7.053 -0.3708  0.4506 -0.0052
   21MOL   C37513615   1.196   3.221   7.078  0.6580  0.2526  0.5787
   21MOL   H37613616   1.777   3.502   7.555 -0.5846 -0.8471 -2.3514
   21MOL   H37713617   1.731   3.609   7.430 -0.6082  0.9090  0.5577
   21MOL   H37813618   2.012   3.545   7.495 -0.1945 -1.5799 -0.0026
   21MOL   H37913619   1.874   3.372   7.379  4.7984 -1.8649  1.6753
   21MOL   H38013620   2.013   3.421   7.287  0.0663 -0.2802 -1.1133
   21MOL   H38113621   1.839   3.585   7.163  0.7090 -1.3437 -3.7632
   21MOL   H38213622   1.724   3.473   7.240  0.1086  1.2452  1.3254
   21MOL   H38313623   1.834   3.291   7.121  0.0685  0.1586  0.7262
   21MOL   H38413624   1.958   3.382   7.067  0.0612 -0.6852  2.0928
   21MOL   H38513625   1.824   3.355   6.876  0.2538 -1.1314  1.5853
   21MOL   H38613626   1.820   3.524   6.919 -2.4146  0.7113 -2.7112
   21MOL   H38713627   1.606   3.498   7.040  2.7278 -0.2815  0.9977
   21MOL   H38813628   1.606   3.499   6.873  0.6954 -0.4170  0.1201
   21MOL   H38913629   1.607   3.255   7.056  0.4737  1.7683  1.2136
   21MOL   H39013630   1.573   3.233   6.889 -0.4562 -1.1307  0.6951
   21MOL   H39113631   1.386   3.407   7.062  0.8796  0.4635 -1.1856
   21MOL   H39213632   1.352   3.350   6.910 -0.1724 -1.4188  0.0691
   21MOL   H39313633   1.359   3.118   6.985 -3.1828 -1.2404  1.3213
   21MOL   H39413634   1.380   3.169   7.151 -0.1473 -0.0259 -0.2441
   21MOL   H39513635   1.148   3.250   6.984 -1.0327 -0.0484  1.3343
   21MOL   H39613636   1.169   3.301   7.145 -0.4426  0.0385  0.3905
   21MOL   H39713637   1.144   3.136   7.122 -0.4876  1.3321  1.2965
   21MOL   C39813638   1.992   3.707   7.351 -0.0881  0.5218  0.2075
   21MOL   C39913639   2.125   3.689   7.271 -0.3402  0.7132  0.5621
   21MOL   C40013640   2.246   3.666   7.353 -0.0520  0.7554 -0.1636
   21MOL   C40113641   2.385   3.620   7.297  0.6362 -0.3391  0.1190
   21MOL   C40213642   2.366   3.491   7.213  0.8599 -0.4496  0.0737
   21MOL   C40313643   2.306   3.367   7.289  0.4261  0.0692 -0.3728
   21MOL   C40413644   2.263   3.252   7.200  0.2120 -0.8356  0.2535
   21MOL   C40513645   2.199   3.135   7.275 -0.4193  0.1232  0.5340
   21MOL   C40613646   2.165   3.015   7.188  0.1447 -0.2232  0.8646
   21MOL   C40713647   2.031   3.035   7.122 -0.6502  0.1997 -0.0562
   21MOL   C40813648   2.015   2.938   7.002  0.1917  0.1592 -0.4116
   21MOL   H40913649   1.996   3.795   7.416 -1.8957  2.6508 -2.4838
   21MOL   H41013650   1.915   3.746   7.285 -0.8857 -0.2530  0.6820
   21MOL   H41113651   2.116   3.598   7.211  0.1817 -1.1447  3.2180
   21MOL   H41213652   2.223   3.590   7.428 -0.4884  2.7599  1.8139
   21MOL   H41313653   2.256   3.758   7.412 -1.4715  1.2488 -0.6578
   21MOL   H41413654   2.423   3.711   7.249  1.9098 -0.7940  0.2352
   21MOL   H41513655   2.454   3.608   7.381  1.6045  0.8561 -0.4795
   21MOL   H41613656   2.301   3.514   7.129 -0.1363  0.4283  1.0637
   21MOL   H41713657   2.468   3.484   7.176  0.8596  0.4188 -0.1038
   21MOL   H41813658   2.221   3.399   7.350  0.1137 -0.8727 -0.3124
   21MOL   H41913659   2.378   3.325   7.358 -0.5889 -1.6358 -0.3302
   21MOL   H42013660   2.188   3.297   7.135 -0.0157 -0.8958  0.4724
   21MOL   H42113661   2.347   3.234   7.134  0.4861 -0.0783  0.3942
   21MOL   H42213662   2.107   3.171   7.321 -0.1711  1.9891 -0.3543
   21MOL   H42313663   2.275   3.110   7.350 -1.0566 -0.3969  1.0066
   21MOL   H42413664   2.235   2.987   7.109 -0.9176 -0.0258 -0.1689
   21MOL   H42513665   2.173   2.926   7.251 -0.2210 -0.7161  0.2207
   21MOL   H42613666   2.032   3.140   7.092  1.1750  0.2240  0.0146
   21MOL   H42713667   1.950   3.015   7.192 -2.3366  1.5220 -1.5687
   21MOL   H42813668   1.932   2.962   6.935 -1.4787 -2.5044  0.5824
   21MOL   H42913669   1.993   2.844   7.053 -0.9951  0.0955 -1.0183
   21MOL   H43013670   2.106   2.922   6.943  0.1337 -0.2072 -0.4066
   21MOL   C43113671   2.153   3.808   7.175  0.2918  0.0641  0.1052
   21MOL   C43213672   2.061   3.819   7.050  0.0638 -0.6005 -0.2272
   21MOL   C43313673   2.085   3.708   6.940 -0.3348  0.0280 -0.1891
   21MOL   C43413674   2.228   3.707   6.886 -0.2510  0.0180 -0.6239
   21MOL   C43513675   2.259   3.607   6.776  0.1988  0.2198 -0.0242
   21MOL   C43613676   2.288   3.469   6.829 -0.7829 -0.0908  0.4073
   21MOL   C43713677   2.331   3.359   6.730 -0.8004 -0.0650 -0.8950
   21MOL   C43813678   2.349   3.220   6.793  0.3852 -0.0267  0.0661
   21MOL   C43913679   2.433   3.112   6.712  0.1265  0.0698 -0.6355
   21MOL   C44013680   2.352   3.002   6.639 -0.1541  0.0258  0.1106
   21MOL   C44113681   2.324   2.884   6.736  0.1182 -0.5984  0.2561
   21MOL   H44213682   2.257   3.816   7.144  0.6250  0.8694  1.4078
   21MOL   H44313683   2.133   3.902   7.227  0.4287  0.5999 -0.7860
   21MOL   H44413684   1.961   3.794   7.083 -0.4263  0.4896 -0.8667
   21MOL   H44513685   2.069   3.609   6.982 -0.2212  0.4729  0.9368
   21MOL   H44613686   2.009   3.720   6.863  0.7968  1.4644 -1.1134
   21MOL   H44713687   2.300   3.692   6.966  0.4526 -0.5356 -1.3521
   21MOL   H44813688   2.246   3.811   6.858 -0.7302  0.7564  1.6969
   21MOL   H44913689   2.351   3.639   6.729 -0.8382 -0.3053 -2.4914
   21MOL   H45013690   2.184   3.600   6.696  0.8120 -0.1728 -0.5670
   21MOL   H45113691   2.197   3.431   6.875 -0.8358  1.2927  1.4554
   21MOL   H45213692   2.361   3.484   6.909  0.1714  2.1899 -0.8650
   21MOL   H45313693   2.423   3.388   6.679 -0.5677 -1.8159 -1.5067
   21MOL   H45413694   2.255   3.354   6.652 -0.9827 -0.2070 -0.7094
   21MOL   H45513695   2.403   3.246   6.885 -1.0475 -0.5694  1.0826
   21MOL   H45613696   2.256   3.172   6.821  0.8919 -1.3540 -0.5286
   21MOL   H45713697   2.512   3.071   6.776  0.1934  0.8229 -0.2293
   21MOL   H45813698   2.488   3.168   6.637 -1.6748  0.1698 -1.9075
   21MOL   H45913699   2.415   2.968   6.557  0.2640  1.7515 -0.3042
   21MOL   H46013700   2.254   3.036   6.605 -0.4225 -0.8583 -0.0086
   21MOL   H46113701   2.251   2.910   6.812 -0.4813  0.4229 -0.6418
   21MOL   H46213702   2.277   2.798   6.688  2.9153 -1.1496 -1.6249
   21MOL   H46313703   2.423   2.852   6.766  1.1178  0.6743 -1.5331
   21MOL   C46413704   2.055   3.963   6.993  0.8534  0.2541  0.6115
   21MOL   C46513705   1.917   3.992   6.917  0.4165  0.5486  0.3418
   21MOL   C46613706   1.783   3.956   6.993 -0.4988  0.7575 -0.2702
   21MOL   C46713707   1.708   3.843   6.924 -0.4397  0.2890  0.4347
   21MOL   C46813708   1.583   3.780   6.990  0.6681  0.4405 -0.3040
   21MOL   C46913709   1.478   3.871   7.054  0.1297  0.5327  1.1162
   21MOL   C47013710   1.346   3.795   7.082 -0.4181 -0.1543  0.2315
   21MOL   C47113711   1.235   3.890   7.129 -0.3428  0.1201  0.5739
   21MOL   C47213712   1.190   4.008   7.035  0.4452 -0.0118 -0.3668
   21MOL   C47313713   1.052   4.065   7.060  0.0153  0.0153  0.3516
   21MOL   C47413714   1.015   4.185   6.970  0.6616 -0.4053 -0.5303
   21MOL   H47513715   2.140   3.977   6.926 -0.1465  1.5077 -0.4102
   21MOL   H47613716   2.060   4.042   7.069  0.1873  1.3683 -0.4821
   21MOL   H47713717   1.913   3.932   6.827  0.3078 -0.3715  0.9561
   21MOL   H47813718   1.715   4.041   6.991  0.0025  1.1650 -0.2964
   21MOL   H47913719   1.798   3.940   7.100  0.9621  3.4513 -0.0232
   21MOL   H48013720   1.667   3.884   6.832 -3.4703  0.6465  1.8640
   21MOL   H48113721   1.778   3.760   6.912 -2.1088 -1.1001  0.0486
   21MOL   H48213722   1.616   3.711   7.067 -0.9504 -1.8185 -1.5687
   21MOL   H48313723   1.538   3.718   6.911 -1.6601  0.7723  0.7098
   21MOL   H48413724   1.509   3.911   7.150 -0.6929  1.1919  1.1041
   21MOL   H48513725   1.471   3.955   6.985 -0.5468 -0.5380 -0.1502
   21MOL   H48613726   1.309   3.735   6.999 -0.0361 -0.7301  0.4674
   21MOL   H48713727   1.355   3.721   7.162  1.9492 -2.2615 -1.8571
   21MOL   H48813728   1.145   3.830   7.136 -1.0364  1.1641  0.7515
   21MOL   H48913729   1.261   3.934   7.225 -1.3460 -0.4834  1.1323
   21MOL   H49013730   1.263   4.088   7.048  0.0046  0.2933  0.2336
   21MOL   H49113731   1.202   3.980   6.931 -0.4542 -1.0231 -0.2011
   21MOL   H49213732   0.966   3.998   7.058 -0.7413  0.9487  1.0962
   21MOL   H49313733   1.047   4.115   7.157  1.8435 -0.0850  0.5091
   21MOL   H49413734   1.089   4.217   6.896  0.3945 -0.1195 -0.6715
   21MOL   H49513735   0.989   4.274   7.027 -1.5146  0.0539 -2.1479
   21MOL   H49613736   0.923   4.162   6.916  0.3997 -1.8601  0.5060
   21MOL   C49713737   1.921   4.144   6.885  0.2811 -0.0858  0.2576
   21MOL   C49813738   2.019   4.179   6.764  0.0131  0.2715  0.0107
   21MOL   C49913739   2.099   4.304   6.807 -0.6051 -0.4566  0.0958
   21MOL   C50013740   2.022   4.432   6.856 -0.2639  0.4787 -0.9710
   21MOL   C50113741   2.121   4.529   6.925  0.4806  0.0576 -0.4217
   21MOL   C50213742   2.198   4.610   6.824 -0.3250 -0.0971 -0.2241
   21MOL   C50313743   2.279   4.726   6.885 -0.2631  0.4237 -0.3814
   21MOL   C50413744   2.339   4.817   6.780  0.5277  0.0243  0.8611
   21MOL   C50513745   2.436   4.922   6.840 -0.6004 -0.1359 -0.4052
   21MOL   C50613746   2.505   5.009   6.737 -0.7432  0.1393  0.3352
   21MOL   C50713747   2.584   5.126   6.797 -0.4136  0.0258 -0.1661
   21MOL   H50813748   1.827   4.186   6.850  2.0509  1.0436 -3.4232
   21MOL   H50913749   1.946   4.208   6.969  1.6021  0.3535 -0.4656
   21MOL   H51013750   2.096   4.102   6.763 -0.4418 -0.2027  0.8427
   21MOL   H51113751   2.183   4.334   6.744  2.3305 -0.3659  3.8567
   21MOL   H51213752   2.158   4.271   6.892 -1.4529 -0.2866  0.7545
   21MOL   H51313753   1.941   4.397   6.920  3.0232 -3.1784  1.4617
   21MOL   H51413754   1.978   4.477   6.768  0.9002  3.1694 -0.2305
   21MOL   H51513755   2.079   4.596   7.001  1.5429 -0.7033  0.8653
   21MOL   H51613756   2.196   4.480   6.987 -1.4984 -0.1840  1.8658
   21MOL   H51713757   2.257   4.548   6.757 -0.5530 -0.0319 -0.4872
   21MOL   H51813758   2.121   4.667   6.771 -0.4021 -1.3330 -1.4417
   21MOL   H51913759   2.219   4.780   6.958  0.4874 -0.3514  0.8297
   21MOL   H52013760   2.349   4.670   6.948 -3.3756 -2.5612  0.5878
   21MOL   H52113761   2.259   4.871   6.731  0.8730  0.6835  1.0177
   21MOL   H52213762   2.401   4.763   6.708  0.4748 -1.3668  1.8470
   21MOL   H52313763   2.511   4.876   6.905 -0.9077 -0.8000 -0.5165
   21MOL   H52413764   2.375   4.983   6.907  0.6355  0.8143 -0.1343
   21MOL   H52513765   2.422   5.049   6.679 -0.0266  0.0514 -0.7555
   21MOL   H52613766   2.563   4.954   6.664 -4.4134 -1.3593 -1.6146
   21MOL   H52713767   2.654   5.098   6.875 -0.2043  1.2410  0.0924
   21MOL   H52813768   2.522   5.202   6.845 -0.9156  0.4690 -1.4753
   21MOL   H52913769   2.634   5.183   6.718  0.4630 -0.8033 -0.2179
   21MOL   C53013770   1.944   4.204   6.627  0.2368  0.1882  0.3167
   21MOL   C53113771   1.850   4.090   6.577 -0.2229 -0.0726  0.7350
   21MOL   C53213772   1.938   3.969   6.543 -0.2059 -0.2558 -0.8519
   21MOL   C53313773   1.855   3.842   6.511 -0.4040 -0.3068  0.1323
   21MOL   C53413774   1.936   3.714   6.528  0.1773 -0.0123 -0.6013
   21MOL   C53513775   1.838   3.592   6.542  0.6667  0.7621  0.1090
   21MOL   C53613776   1.915   3.455   6.531 -0.9428 -0.1658 -0.9770
   21MOL   C53713777   1.830   3.336   6.564 -0.8246  0.3869  0.2331
   21MOL   C53813778   1.929   3.218   6.571 -0.3130 -0.0939 -0.2945
   21MOL   C53913779   1.853   3.093   6.593 -0.9924  0.3080 -0.0349
   21MOL   C54013780   1.942   2.968   6.613 -0.2359  0.0246  0.3735
   21MOL   H54113781   1.878   4.290   6.640 -0.8285  0.0784 -3.8669
   21MOL   H54213782   2.028   4.226   6.561 -0.1801 -0.0167 -0.2757
   21MOL   H54313783   1.777   4.064   6.654 -1.1427  1.2816  0.3391
   21MOL   H54413784   2.010   3.945   6.621 -3.0556 -0.0219  1.9643
   21MOL   H54513785   1.988   3.991   6.449 -0.8131 -0.3427 -1.2024
   21MOL   H54613786   1.819   3.848   6.409 -0.3941 -1.0163  0.0893
   21MOL   H54713787   1.771   3.838   6.581 -0.1999 -4.0326  0.2526
   21MOL   H54813788   2.008   3.715   6.610 -1.6361  0.2102  1.0199
   21MOL   H54913789   2.004   3.703   6.443  0.9311 -0.8681  0.0996
   21MOL   H55013790   1.753   3.600   6.473  0.4148 -1.4620  0.1265
   21MOL   H55113791   1.792   3.598   6.641  0.2323  0.0023 -0.0392
   21MOL   H55213792   2.006   3.474   6.588  0.6267 -1.4127 -3.0081
   21MOL   H55313793   1.954   3.450   6.430  3.1814  0.6675  0.4862
   21MOL   H55413794   1.775   3.327   6.471  0.0170  0.9735 -0.3227
   21MOL   H55513795   1.763   3.343   6.650  0.4664  1.3869  1.1857
   21MOL   H55613796   2.008   3.236   6.643  1.7965  2.3433 -3.0789
   21MOL   H55713797   1.985   3.222   6.477 -1.7337 -0.6010 -1.1878
   21MOL   H55813798   1.789   3.075   6.506  0.1403 -0.4528 -0.7282
   21MOL   H55913799   1.794   3.104   6.684 -0.8593  3.2335 -0.2663
   21MOL   H56013800   2.016   2.978   6.693  0.2881  0.5639 -0.1623
   21MOL   H56113801   1.894   2.871   6.621 -1.2340  0.3970 -0.9103
   21MOL   H56213802   2.004   2.964   6.523  0.2902 -0.8513  0.7727
   21MOL   C56313803   1.770   4.146   6.457  0.4636  0.2157  0.5575
   21MOL   C56413804   1.624   4.102   6.448  0.1669  0.0062 -0.2379
   21MOL   C56513805   1.570   4.103   6.298  0.2414  0.3265  0.2785
   21MOL   C56613806   1.552   4.244   6.247  1.2393  0.1449  0.8688
   21MOL   C56713807   1.544   4.252   6.091 -0.6966  0.1814 -0.2928
   21MOL   C56813808   1.417   4.195   6.039 -0.5592  1.0442 -0.5232
   21MOL   C56913809   1.396   4.212   5.885  0.1843 -0.2895  0.3534
   21MOL   C57013810   1.249   4.198   5.844  1.2329 -0.1259 -0.0421
   21MOL   C57113811   1.220   4.146   5.701  0.1771  0.4686 -0.1011
   21MOL   C57213812   1.087   4.069   5.692  0.1257 -0.9841 -0.0573
   21MOL   C57313813   1.066   4.015   5.547  0.0121 -0.2132 -0.3039
   21MOL   H57413814   1.823   4.130   6.364 -0.1178 -1.6549  0.5199
   21MOL   H57513815   1.767   4.255   6.461  0.6963  0.4946 -4.0127
   21MOL   H57613816   1.626   3.997   6.478  0.5609  0.1943  0.4002
   21MOL   H57713817   1.477   4.048   6.282 -1.5023  3.3634 -0.3434
   21MOL   H57813818   1.652   4.066   6.236 -1.5985 -2.9320 -0.3453
   21MOL   H57913819   1.638   4.299   6.286  2.9166 -0.2977 -2.0090
   21MOL   H58013820   1.461   4.282   6.293  0.1009  0.4313 -1.5448
   21MOL   H58113821   1.634   4.213   6.044 -1.0155  1.1339 -1.7078
   21MOL   H58213822   1.543   4.358   6.067  0.9249 -0.3115 -2.6610
   21MOL   H58313823   1.393   4.092   6.067 -0.5578  1.6222  1.6706
   21MOL   H58413824   1.333   4.246   6.085 -0.4211  1.2167 -0.4642
   21MOL   H58513825   1.425   4.314   5.861  0.8925 -1.0606 -2.2276
   21MOL   H58613826   1.460   4.143   5.831 -0.6111 -2.2869  1.8751
   21MOL   H58713827   1.193   4.288   5.872 -0.3122 -1.0683 -0.0341
   21MOL   H58813828   1.211   4.123   5.913 -0.0957  1.0217  0.5107
   21MOL   H58913829   1.296   4.072   5.675 -1.9212 -1.8414  0.1210
   21MOL   H59013830   1.227   4.222   5.624 -2.3212  1.7551  0.8792
   21MOL   H59113831   1.011   4.139   5.726  1.1973 -0.3668  1.1210
   21MOL   H59213832   1.080   3.986   5.761 -0.9996  0.0793  1.1315
   21MOL   H59313833   1.060   4.098   5.477 -0.4571  0.9233  1.0589
   21MOL   H59413834   1.154   3.959   5.517 -0.7012 -1.5819  0.0954
   21MOL   H59513835   0.973   3.958   5.550  0.6933 -1.2568  1.7943
   21MOL   C59613836   1.536   4.177   6.552 -0.4529  0.6282  0.1534
   21MOL   C59713837   1.380   4.147   6.559  0.2428  0.1524 -1.0301
   21MOL   C59813838   1.326   4.255   6.661 -0.4115 -0.1836  0.6849
   21MOL   C59913839   1.238   4.357   6.590  0.3964 -0.1347 -0.8629
   21MOL   C60013840   1.148   4.428   6.688  0.2093 -0.0139  0.3541
   21MOL   C60113841   1.075   4.541   6.621  0.2504  0.0746  0.6643
   21MOL   C60213842   0.992   4.621   6.731  0.0391  0.8894 -0.5390
   21MOL   C60313843   0.876   4.544   6.793 -0.5610  0.5741  0.3222
   21MOL   C60413844   0.802   4.623   6.897  0.3557  0.0189  0.0860
   21MOL   C60513845   0.682   4.535   6.953  0.0776 -0.4989  0.3280
   21MOL   C60613846   0.720   4.414   7.051 -0.1111 -0.6316  0.3289
   21MOL   H60713847   1.572   4.164   6.654 -0.0220  2.1388  0.2118
   21MOL   H60813848   1.538   4.284   6.531  0.9521  0.6656  0.4539
   21MOL   H60913849   1.333   4.170   6.463 -1.1819 -2.7488 -1.0838
   21MOL   H61013850   1.405   4.305   6.718  0.0852  0.6809 -0.7472
   21MOL   H61113851   1.278   4.211   6.749 -0.8598  1.0427  1.0745
   21MOL   H61213852   1.179   4.297   6.520  0.1281 -0.4095 -0.4037
   21MOL   H61313853   1.288   4.424   6.520 -2.5212  1.6017 -1.3660
   21MOL   H61413854   1.207   4.460   6.774  1.2160  2.1361 -1.1188
   21MOL   H61513855   1.074   4.358   6.729 -3.3787  3.7756  0.7034
   21MOL   H61613856   1.150   4.600   6.568 -2.5798  0.9295 -2.5793
   21MOL   H61713857   1.009   4.499   6.545 -0.1495  1.6662  0.0994
   21MOL   H61813858   0.956   4.715   6.689  0.3386  0.3344 -2.0748
   21MOL   H61913859   1.059   4.647   6.813  1.0408  0.3346 -1.1762
   21MOL   H62013860   0.901   4.445   6.832 -1.5674  0.0655 -0.3029
   21MOL   H62113861   0.816   4.515   6.707 -1.7699 -2.0955  1.9973
   21MOL   H62213862   0.874   4.656   6.973  0.3020 -0.4255  0.3313
   21MOL   H62313863   0.763   4.716   6.855 -0.0628 -0.5442 -0.7757
   21MOL   H62413864   0.613   4.501   6.875 -2.6353  0.5582  2.1737
   21MOL   H62513865   0.628   4.600   7.021  1.1721  0.3581  0.3771
   21MOL   H62613866   0.628   4.387   7.103 -1.2504 -3.0548 -2.7938
   21MOL   H62713867   0.750   4.329   6.989 -3.1223 -0.7570 -1.0356
   21MOL   H62813868   0.800   4.438   7.121 -0.9136 -1.8222  1.6731
   21MOL   C62913869   1.332   4.002   6.575 -0.8157  0.5424 -0.3515
   21MOL   C63013870   1.181   3.992   6.556  0.5898 -0.0024  0.1143
   21MOL   C63113871   1.119   3.855   6.591  0.5165  0.2577  0.5693
   21MOL   C63213872   1.184   3.748   6.496 -0.2577 -0.0005  0.4928
   21MOL   C63313873   1.104   3.618   6.470 -0.1407 -0.2294 -0.2598
   21MOL   C63413874   1.094   3.550   6.604 -0.0610 -0.1315 -0.0586
   21MOL   C63513875   1.003   3.427   6.596  0.2991 -0.0283  0.2706
   21MOL   C63613876   0.974   3.364   6.735 -0.4955 -0.0462 -0.9854
   21MOL   C63713877   0.893   3.236   6.746  0.3832  0.3176 -0.0206
   21MOL   C63813878   0.860   3.190   6.890 -0.7335 -0.5311 -0.0760
   21MOL   C63913879   0.852   3.036   6.915 -0.2361 -0.2261 -0.4997
   21MOL   H64013880   1.388   3.939   6.506  3.3060 -0.2309  3.4905
   21MOL   H64113881   1.362   3.967   6.674  1.4687  1.6794 -0.6368
   21MOL   H64213882   1.132   4.075   6.607  0.3290  0.1099 -0.3176
   21MOL   H64313883   1.136   3.829   6.696  0.2168  0.8495  0.7665
   21MOL   H64413884   1.013   3.861   6.564  0.9511 -0.5504 -1.3984
   21MOL   H64513885   1.286   3.729   6.531  0.5286  0.7688 -1.3041
   21MOL   H64613886   1.178   3.797   6.399  1.0062  0.0444  0.4252
   21MOL   H64713887   1.147   3.560   6.388 -0.0061 -0.4488 -0.0334
   21MOL   H64813888   1.009   3.649   6.426  0.1731 -0.7704 -1.3532
   21MOL   H64913889   1.056   3.621   6.678  0.8113 -1.4484  1.6894
   21MOL   H65013890   1.190   3.522   6.647  1.3917 -0.9662 -3.6526
   21MOL   H65113891   1.039   3.353   6.525  0.1557  1.2634 -1.1508
   21MOL   H65213892   0.908   3.450   6.549  0.7052  1.7357  0.2874
   21MOL   H65313893   0.926   3.436   6.801  1.7673  1.4363 -0.8857
   21MOL   H65413894   1.068   3.358   6.789 -1.2412 -3.5353  0.0540
   21MOL   H65513895   0.946   3.153   6.698  1.9393  0.7884  0.8795
   21MOL   H65613896   0.799   3.243   6.691  0.6789 -0.7682 -0.6885
   21MOL   H65713897   0.761   3.232   6.909 -0.8595 -0.7391 -0.2626
   21MOL   H65813898   0.921   3.230   6.971  0.5910 -0.9019 -0.8810
   21MOL   H65913899   0.787   3.000   6.836  1.0991 -0.2453 -1.6194
   21MOL   H66013900   0.809   3.013   7.013  1.0737  1.1550  0.4305
   21MOL   H66113901   0.950   2.988   6.908 -0.0524  0.1941 -0.8445
   21MOL   H66213902   1.160   4.010   6.450 -1.7766  0.5031  0.6357
   22MOL     C113903   4.099   0.707   5.391  0.1222 -0.4624 -0.0831
   22MOL     C213904   4.154   0.671   5.536  0.7004 -0.0822 -0.2647
   22MOL     C313905   4.127   0.780   5.632 -0.4583  0.5811  0.3284
   22MOL     C413906   4.175   0.922   5.602  0.3431 -0.2249  0.5253
   22MOL     C513907   4.324   0.947   5.601 -0.2756  0.7194  1.0940
   22MOL     C613908   4.393   0.924   5.735  0.1434 -0.0811  0.6691
   22MOL     C713909   4.550   0.941   5.725 -0.3820  0.3442  0.2221
   22MOL     C813910   4.618   0.901   5.860  0.1708 -0.1919  0.3353
   22MOL     C913911   4.757   0.975   5.876  0.3901 -0.5285 -0.1599
   22MOL    C1013912   4.837   0.934   6.001 -0.1029  1.2599  0.2376
   22MOL    C1113913   4.933   0.819   5.981  0.0793 -0.4635  0.6397
   22MOL    H1213914   4.142   0.793   5.340  1.1821 -1.7630 -1.3987
   22MOL    H1313915   3.995   0.736   5.410 -0.1236  0.1996 -2.3413
   22MOL    H1413916   4.263   0.664   5.535  0.7793  1.0450 -1.3363
   22MOL    H1513917   4.161   0.753   5.732  0.4995  1.8334  0.3683
   22MOL    H1613918   4.018   0.778   5.637 -0.4598 -0.0221  0.0911
   22MOL    H1713919   4.124   0.996   5.664 -2.4393 -0.2150 -1.6693
   22MOL    H1813920   4.141   0.950   5.503 -0.3458  0.8274  1.0398
   22MOL    H1913921   4.365   0.865   5.541 -3.1410 -0.9580  1.3302
   22MOL    H2013922   4.347   1.044   5.557  0.0415 -0.3192 -1.1341
   22MOL    H2113923   4.374   0.819   5.756  0.3076 -0.5748 -1.5108
   22MOL    H2213924   4.348   0.981   5.817  0.6607  0.3920  0.6318
   22MOL    H2313925   4.591   0.883   5.642  0.4825  2.2527 -0.6994
   22MOL    H2413926   4.581   1.043   5.703 -0.4356 -0.0152 -1.5771
   22MOL    H2513927   4.643   0.795   5.857  0.7173 -0.1010  1.6229
   22MOL    H2613928   4.548   0.923   5.940 -2.5642  1.0397 -2.2771
   22MOL    H2713929   4.723   1.077   5.892 -0.4011 -0.8333  0.1246
   22MOL    H2813930   4.822   0.969   5.788 -1.9292  0.0583 -1.9729
   22MOL    H2913931   4.766   0.930   6.083 -0.8499  1.2953 -0.4018
   22MOL    H3013932   4.909   1.013   6.025  1.8487 -0.1398 -0.8355
   22MOL    H3113933   4.982   0.813   6.078  0.2104 -1.7951  0.5002
   22MOL    H3213934   4.870   0.734   5.951 -1.7379  1.5733 -1.5992
   22MOL    H3313935   5.015   0.842   5.913 -0.5662 -0.3250 -0.1035
   22MOL    H3413936   4.116   0.630   5.316  0.3728  0.3885 -0.9072
   22MOL    C3513937   4.104   0.539   5.598  0.3648 -0.4783  0.3501
   22MOL    C3613938   4.221   0.459   5.661 -0.1870  0.3778  0.3368
   22MOL    C3713939   4.168   0.362   5.767 -0.2285  0.1867  0.8331
   22MOL    C3813940   4.110   0.430   5.890  0.3724 -0.6782 -0.3017
   22MOL    C3913941   4.026   0.330   5.967  0.2650  0.2408 -0.0683
   22MOL    C4013942   3.880   0.325   5.914 -0.2528 -0.4287 -0.1774
   22MOL    C4113943   3.772   0.300   6.022 -0.1503 -0.8454  0.0844
   22MOL    C4213944   3.639   0.241   5.966  0.5653  0.0556 -0.2353
   22MOL    C4313945   3.582   0.320   5.850  0.3572  0.2883  0.2117
   22MOL    C4413946   3.455   0.262   5.790 -1.4932 -0.4212  0.5241
   22MOL    C4513947   3.410   0.337   5.657  0.3533 -0.0325 -0.0972
   22MOL    H4613948   4.061   0.479   5.518 -0.0449  1.8097 -1.2035
   22MOL    H4713949   4.025   0.573   5.665  0.8461  2.0038 -0.2833
   22MOL    H4813950   4.291   0.512   5.726  0.7649  2.2611 -2.1689
   22MOL    H4913951   4.086   0.301   5.728 -0.5264  0.2337  1.3810
   22MOL    H5013952   4.258   0.306   5.791 -0.7156 -1.2939 -0.6824
   22MOL    H5113953   4.061   0.526   5.875  0.3524 -0.7730 -0.8508
   22MOL    H5213954   4.194   0.457   5.953  0.5269  0.0502 -0.8077
   22MOL    H5313955   4.022   0.353   6.074  1.0687  2.6732 -0.5308
   22MOL    H5413956   4.066   0.229   5.983  1.4957  1.1016  2.5612
   22MOL    H5513957   3.879   0.232   5.857 -1.4254 -0.5113 -0.0456
   22MOL    H5613958   3.849   0.402   5.843  0.8720 -0.2909 -0.5356
   22MOL    H5713959   3.814   0.234   6.098  2.7458 -1.6813 -2.1804
   22MOL    H5813960   3.750   0.392   6.076  2.1814  0.6402 -1.4262
   22MOL    H5913961   3.573   0.243   6.052  0.6785  2.7606 -0.1903
   22MOL    H6013962   3.656   0.136   5.942  1.2482 -0.1712  1.2034
   22MOL    H6113963   3.654   0.323   5.768 -1.8770 -0.1917 -1.8189
   22MOL    H6213964   3.567   0.426   5.868  1.5946  0.4652  0.2607
   22MOL    H6313965   3.476   0.160   5.757 -0.0838  0.2812 -0.8359
   22MOL    H6413966   3.379   0.271   5.868 -3.4423 -4.0929 -0.7964
   22MOL    H6513967   3.383   0.439   5.685 -1.0067 -0.3801 -0.0761
   22MOL    H6613968   3.487   0.343   5.581 -0.3543  2.1776 -0.6730
   22MOL    H6713969   3.320   0.299   5.609  0.5443  0.3914 -0.8023
   22MOL    C6813970   4.312   0.388   5.554 -0.3757 -0.0731  0.4395
   22MOL    C6913971   4.459   0.346   5.592 -0.1510 -0.5643 -0.2972
   22MOL    C7013972   4.502   0.228   5.506 -0.9637 -0.2555  0.6617
   22MOL    C7113973   4.606   0.141   5.570 -0.7151  0.0993  0.1124
   22MOL    C7213974   4.630   0.004   5.504 -0.0783 -0.3394 -1.0973
   22MOL    C7313975   4.779   7.657   5.524  0.0969  0.4361 -0.3048
   22MOL    C7413976   4.796   7.508   5.468  0.1809 -0.5462  0.2468
   22MOL    C7513977   4.921   7.441   5.516 -0.0433 -0.5335  0.8186
   22MOL    C7613978   5.051   7.476   5.436  0.1522 -0.1776 -0.0548
   22MOL    C7713979   5.173   7.381   5.466 -0.3188 -0.0056  0.2860
   22MOL    C7813980   5.298   7.405   5.390 -0.0075  0.4513 -0.7621
   22MOL    H7913981   4.314   0.440   5.458  3.2660 -2.2487 -0.7320
   22MOL    H8013982   4.263   0.294   5.532  0.2280 -0.8913  2.4584
   22MOL    H8113983   4.455   0.298   5.689  0.6423 -2.4683 -1.1672
   22MOL    H8213984   4.522   0.269   5.407 -1.5257  0.0848  0.6886
   22MOL    H8313985   4.425   0.153   5.490 -0.0238 -1.1359  0.2396
   22MOL    H8413986   4.700   0.195   5.580 -0.8319  0.4550 -0.7087
   22MOL    H8513987   4.588   0.126   5.677  0.4084  2.0359  0.5993
   22MOL    H8613988   4.595   7.698   5.400 -0.3349 -0.2552 -1.0188
   22MOL    H8713989   4.563   7.638   5.556  0.5644  0.9219  1.4759
   22MOL    H8813990   4.858   0.014   5.478  0.4913 -1.7345 -2.5847
   22MOL    H8913991   4.804   7.661   5.630 -1.5648 -0.6947  0.1446
   22MOL    H9013992   4.789   7.503   5.359 -0.9893  1.9182  0.1711
   22MOL    H9113993   4.709   7.453   5.505  1.1439 -0.1445  3.2665
   22MOL    H9213994   4.935   7.459   5.622 -1.7817 -0.4975  1.0542
   22MOL    H9313995   4.905   7.335   5.497 -0.7850 -0.0930 -1.1810
   22MOL    H9413996   5.042   7.471   5.328  0.8475  2.3660 -0.2740
   22MOL    H9513997   5.075   7.581   5.455  1.0230 -0.3908  0.0802
   22MOL    H9613998   5.196   7.371   5.572  1.8035 -1.5684 -0.2971
   22MOL    H9713999   5.146   7.276   5.453 -1.6299  0.3820 -0.1920
   22MOL    H9814000   5.352   7.499   5.398  0.2886  0.2529 -0.4422
   22MOL    H9914001   5.279   7.373   5.287  2.0114 -1.7541 -0.4925
   22MOL   H10014002   5.375   7.334   5.421 -1.1322 -0.4619  0.0131
   22MOL   C10114003   4.559   0.459   5.601  0.4987 -0.2745  0.3390
   22MOL   C10214004   4.637   0.449   5.733  0.2021 -0.4704 -0.3370
   22MOL   C10314005   4.548   0.498   5.847 -0.3162  0.2545  0.1913
   22MOL   C10414006   4.607   0.484   5.990  0.4125 -0.1976  0.2988
   22MOL   C10514007   4.518   0.506   6.111  0.8153 -0.1321 -0.1211
   22MOL   C10614008   4.475   0.645   6.124 -1.0061 -1.0205  0.0855
   22MOL   C10714009   4.438   0.689   6.264  0.4751  0.4740 -0.0699
   22MOL   C10814010   4.431   0.839   6.277 -0.5898  1.0601 -0.0102
   22MOL   C10914011   4.316   0.889   6.187  0.2227  0.1982 -0.1254
   22MOL   C11014012   4.252   1.018   6.239  0.2221  0.2881 -0.0634
   22MOL   C11114013   4.139   1.056   6.138  0.3185  0.1815  0.4530
   22MOL   H11214014   4.626   0.446   5.516 -1.8931  0.0177 -1.6449
   22MOL   H11314015   4.511   0.557   5.600 -0.6106 -0.7600  2.1480
   22MOL   H11414016   4.664   0.347   5.758 -0.0648  0.0020  2.0214
   22MOL   H11514017   4.507   0.598   5.833 -1.8495 -0.3862 -0.0111
   22MOL   H11614018   4.464   0.429   5.849  0.4346 -0.7705 -2.0345
   22MOL   H11714019   4.651   0.386   6.005  4.1047  1.4234  0.7465
   22MOL   H11814020   4.696   0.547   5.994  0.8706 -0.6588 -1.9231
   22MOL   H11914021   4.435   0.436   6.124  1.6329 -0.8513  1.4161
   22MOL   H12014022   4.582   0.478   6.195 -2.8847 -0.2921  2.7765
   22MOL   H12114023   4.550   0.718   6.092 -1.4743  0.2590  1.8481
   22MOL   H12214024   4.390   0.655   6.057  1.0375  3.2724 -2.0972
   22MOL   H12314025   4.519   0.663   6.332  1.8384  0.5134 -1.6470
   22MOL   H12414026   4.354   0.640   6.313  0.0245  0.4948 -0.8128
   22MOL   H12514027   4.402   0.867   6.378  1.0820  0.2956  0.7076
   22MOL   H12614028   4.530   0.875   6.251 -0.7334  0.2315 -1.7806
   22MOL   H12714029   4.353   0.921   6.090  0.0932  0.8715  0.0449
   22MOL   H12814030   4.245   0.810   6.163  0.8767 -0.6049  0.5260
   22MOL   H12914031   4.325   1.099   6.243  0.2526  0.3846 -1.9521
   22MOL   H13014032   4.220   0.997   6.341 -1.0159 -0.3347 -0.5599
   22MOL   H13114033   4.087   1.145   6.173  1.7050  1.2529 -0.1902
   22MOL   H13214034   4.165   1.074   6.034  0.4765 -1.9212  0.0987
   22MOL   H13314035   4.058   0.982   6.139 -0.0055  0.5438  2.6873
   22MOL   C13414036   4.776   0.524   5.722 -0.0946  0.4501 -0.4722
   22MOL   C13514037   4.878   0.456   5.627 -0.0894  0.0683  0.0248
   22MOL   C13614038   4.940   0.332   5.700 -0.3007 -1.0984 -0.3589
   22MOL   C13714039   5.060   0.258   5.635  0.2576 -0.0319  0.0468
   22MOL   C13814040   5.102   0.135   5.720 -0.1405 -0.0541 -1.0095
   22MOL   C13914041   5.211   0.060   5.644 -0.3023 -0.3334 -0.1450
   22MOL   C14014042   5.337   0.047   5.726  0.2337 -0.4564 -0.3913
   22MOL   C14114043   5.437   7.670   5.655  1.0279 -0.3908  0.6144
   22MOL   C14214044   5.578   7.663   5.717 -0.6986 -0.1687 -0.5219
   22MOL   C14314045   5.666   7.582   5.627  0.2602 -0.1720 -0.0068
   22MOL   C14414046   5.797   7.539   5.694 -0.3771 -0.3450  0.7680
   22MOL   H14514047   4.770   0.627   5.688 -0.6448  0.7009  0.3763
   22MOL   H14614048   4.818   0.533   5.822 -0.8484 -0.8553 -0.0281
   22MOL   H14714049   4.838   0.402   5.541 -0.5373  0.5417 -0.0656
   22MOL   H14814050   4.871   0.256   5.737 -1.3568 -0.0543 -0.1632
   22MOL   H14914051   4.984   0.371   5.792  2.0345 -1.3992 -1.3279
   22MOL   H15014052   5.033   0.231   5.533  0.9868  1.4784 -0.5463
   22MOL   H15114053   5.149   0.320   5.625 -1.2497  1.7403 -2.7188
   22MOL   H15214054   5.152   0.164   5.812  0.1569 -2.0531 -0.4972
   22MOL   H15314055   5.011   0.082   5.748  1.9801 -2.5920  1.4871
   22MOL   H15414056   5.169   7.665   5.623  0.9761 -1.3014  1.6366
   22MOL   H15514057   5.239   0.103   5.548 -0.1237 -1.6064 -0.6675
   22MOL   H15614058   5.384   0.145   5.738 -1.2892  0.3884 -1.1131
   22MOL   H15714059   5.306   0.005   5.822 -0.0868 -1.3113 -0.8629
   22MOL   H15814060   5.392   7.572   5.637  0.1658  0.2997 -1.1136
   22MOL   H15914061   5.448   0.017   5.558 -3.4768  0.1286  0.2850
   22MOL   H16014062   5.636   0.050   5.734  0.4109 -1.1046  0.8503
   22MOL   H16114063   5.567   7.609   5.811  0.4080  0.9814  0.2924
   22MOL   H16214064   5.615   7.492   5.593  0.0686 -0.2370  0.4477
   22MOL   H16314065   5.679   7.636   5.533  2.2429 -0.9218 -0.1841
   22MOL   H16414066   5.853   7.487   5.616  0.1249 -1.3090  1.7619
   22MOL   H16514067   5.793   7.480   5.785  0.2359  1.8123  2.2097
   22MOL   H16614068   5.848   7.629   5.727 -1.1070  0.5802 -0.5455
   22MOL   C16714069   4.989   0.560   5.587  0.6603  0.7209  0.5303
   22MOL   C16814070   4.968   0.631   5.448  0.4336  0.2089  0.3166
   22MOL   C16914071   4.966   0.531   5.336  0.0026  0.7825 -0.4485
   22MOL   C17014072   5.084   0.435   5.310 -0.5305 -0.2693 -0.3673
   22MOL   C17114073   5.069   0.362   5.178 -0.5234 -0.2186 -0.7254
   22MOL   C17214074   5.155   0.237   5.175  0.3705  0.0673  0.3547
   22MOL   C17314075   5.124   0.121   5.074 -0.0564 -0.5773 -0.2702
   22MOL   C17414076   4.996   0.039   5.110 -0.0439 -0.7236 -0.2067
   22MOL   C17514077   4.979   7.616   5.030 -0.2006  0.0103  0.3833
   22MOL   C17614078   4.869   7.519   5.067 -1.3887  0.0771 -0.1548
   22MOL   C17714079   4.864   7.398   4.971  0.0178 -0.0641 -0.2246
   22MOL   H17814080   4.976   0.641   5.659 -1.6228 -0.3597  1.4206
   22MOL   H17914081   5.089   0.519   5.593  0.8327  0.9092 -0.9825
   22MOL   H18014082   4.871   0.681   5.450  1.3679  2.0453  0.7347
   22MOL   H18114083   4.932   0.583   5.247  0.9169  0.6735 -0.8631
   22MOL   H18214084   4.886   0.459   5.350  0.4177 -0.0185 -2.1218
   22MOL   H18314085   5.182   0.482   5.305 -0.4576 -0.4693 -0.9019
   22MOL   H18414086   5.092   0.362   5.391 -0.9613 -1.0235 -0.9839
   22MOL   H18514087   5.107   0.430   5.101  2.2064 -2.0082 -1.0361
   22MOL   H18614088   4.965   0.340   5.155 -1.2475  0.7942  1.4775
   22MOL   H18714089   5.258   0.270   5.157  0.8767 -1.7519 -0.1662
   22MOL   H18814090   5.158   0.190   5.274  0.7623 -1.7833 -0.5051
   22MOL   H18914091   5.207   0.051   5.075  1.7589  1.5212  1.0159
   22MOL   H19014092   5.122   0.156   4.971  0.9275  1.7105  0.4490
   22MOL   H19114093   5.013   0.012   5.215 -1.3457 -0.0055  0.1948
   22MOL   H19214094   4.904   0.096   5.113  1.1591  1.2022  1.2544
   22MOL   H19314095   5.074   7.563   5.037 -1.1656 -1.5541  1.9954
   22MOL   H19414096   4.966   7.637   4.924 -1.1601  1.1483  0.7158
   22MOL   H19514097   4.782   7.583   5.056 -2.3878 -1.3360 -0.6589
   22MOL   H19614098   4.868   7.488   5.171 -0.0148  0.0026 -0.1583
   22MOL   H19714099   4.782   7.332   4.999  1.0519 -2.3980 -2.5315
   22MOL   H19814100   4.949   7.331   4.981  0.1991  0.5508  2.8703
   22MOL   H19914101   4.852   7.428   4.867  0.0961  0.8950  0.0375
   22MOL   C20014102   5.072   0.746   5.431  0.5575  0.2432 -0.0876
   22MOL   C20114103   5.063   0.865   5.529 -0.2488  0.1643 -0.2681
   22MOL   C20214104   4.927   0.933   5.521  0.1853  0.4957  0.0069
   22MOL   C20314105   4.884   0.979   5.376  1.1161 -0.3234 -0.1800
   22MOL   C20414106   4.757   1.060   5.377  0.5149  0.0405 -0.2190
   22MOL   C20514107   4.702   1.100   5.246  0.0697 -0.2361 -0.0619
   22MOL   C20614108   4.783   1.198   5.160  0.1455 -0.7401  0.0692
   22MOL   C20714109   4.705   1.248   5.036  0.3338 -0.4787  0.6792
   22MOL   C20814110   4.767   1.370   4.966 -0.8045 -0.1402 -0.1025
   22MOL   C20914111   4.897   1.331   4.895  0.7681 -0.3850  0.2086
   22MOL   C21014112   4.961   1.447   4.824 -0.6693  0.0069  0.2790
   22MOL   H21114113   5.171   0.703   5.440 -0.0217 -0.8579  1.0045
   22MOL   H21214114   5.064   0.774   5.325 -0.4807  0.4798  0.0443
   22MOL   H21314115   5.066   0.820   5.628  0.9342 -0.6242 -0.6512
   22MOL   H21414116   4.923   1.020   5.586  1.0445 -0.5092  1.4310
   22MOL   H21514117   4.850   0.867   5.561  1.5937 -2.1554 -1.4669
   22MOL   H21614118   4.880   0.901   5.300 -2.4621  1.5674 -2.0490
   22MOL   H21714119   4.970   1.035   5.338  0.5231 -0.4178 -1.6771
   22MOL   H21814120   4.783   1.149   5.435  2.0424 -0.0168 -0.8095
   22MOL   H21914121   4.679   1.003   5.427 -0.6146 -0.3530 -2.3684
   22MOL   H22014122   4.677   1.018   5.179  3.8567 -1.7821  0.3307
   22MOL   H22114123   4.610   1.156   5.263  0.4995 -0.0991  1.9475
   22MOL   H22214124   4.872   1.150   5.119 -0.5086 -0.7761 -1.3488
   22MOL   H22314125   4.818   1.284   5.216 -0.1354 -1.0510  0.7267
   22MOL   H22414126   4.607   1.279   5.075 -0.3540 -0.9128 -0.6800
   22MOL   H22514127   4.695   1.169   4.963  0.7323  0.9732 -0.9840
   22MOL   H22614128   4.777   1.443   5.046 -0.1830 -0.1549 -0.1651
   22MOL   H22714129   4.700   1.411   4.890 -1.2704 -1.3952 -0.3871
   22MOL   H22814130   4.964   1.285   4.968  0.1244 -0.8324  0.5227
   22MOL   H22914131   4.863   1.255   4.825 -0.3382  1.2957 -1.1097
   22MOL   H23014132   5.003   1.517   4.897 -1.3282  1.2350 -0.5084
   22MOL   H23114133   4.890   1.500   4.761  0.2948  0.8106 -0.1446
   22MOL   H23214134   5.039   1.419   4.753  0.8721  1.0299  1.5129
   22MOL   C23314135   5.182   0.965   5.507  0.3452 -0.6260 -0.2072
   22MOL   C23414136   5.318   0.926   5.586  0.5014 -0.3833 -0.0694
   22MOL   C23514137   5.388   1.030   5.682  0.5616 -0.3112 -0.6572
   22MOL   C23614138   5.331   1.042   5.821 -1.0388 -0.4728  0.0807
   22MOL   C23714139   5.367   0.931   5.919 -0.4186  0.6229 -0.3172
   22MOL   C23814140   5.296   0.956   6.058  0.3840  0.6365  0.1957
   22MOL   C23914141   5.356   0.884   6.172 -0.4983 -0.0551  0.2517
   22MOL   C24014142   5.488   0.946   6.221  0.8910  0.0230 -0.4509
   22MOL   C24114143   5.572   0.863   6.317 -0.2030  0.7006 -0.4932
   22MOL   C24214144   5.697   0.949   6.352  0.7952 -0.2667 -0.7310
   22MOL   C24314145   5.675   1.025   6.493 -0.3122  0.1501  0.6018
   22MOL   H24414146   5.145   1.061   5.542 -0.2678 -0.9605  0.0507
   22MOL   H24514147   5.201   0.987   5.402 -0.2403  1.4516  0.0841
   22MOL   H24614148   5.305   0.838   5.649 -0.3944 -0.7424 -0.7483
   22MOL   H24714149   5.492   1.004   5.697  0.3933 -1.3029 -1.1911
   22MOL   H24814150   5.393   1.119   5.619  3.0812  0.0159 -0.0470
   22MOL   H24914151   5.223   1.059   5.823 -0.8042  1.0003  4.3296
   22MOL   H25014152   5.370   1.139   5.854 -1.8000 -0.9657  2.4961
   22MOL   H25114153   5.475   0.929   5.938 -0.3329 -2.7179 -0.6981
   22MOL   H25214154   5.337   0.835   5.876  1.9829 -1.0856  1.6226
   22MOL   H25314155   5.188   0.945   6.044  0.0520  2.5421  1.0765
   22MOL   H25414156   5.305   1.065   6.068 -1.8345  1.0058 -1.3333
   22MOL   H25514157   5.279   0.897   6.248 -1.2730 -4.0660  0.3041
   22MOL   H25614158   5.363   0.777   6.150 -0.4456 -0.1604  0.7752
   22MOL   H25714159   5.552   0.966   6.134 -2.2832  0.5220 -2.7619
   22MOL   H25814160   5.467   1.044   6.264  1.7607 -0.0016  0.0501
   22MOL   H25914161   5.512   0.844   6.405  1.0100 -0.1409  0.1651
   22MOL   H26014162   5.598   0.772   6.263  1.8439  0.4355  0.8814
   22MOL   H26114163   5.723   1.031   6.285  2.9582  0.7182  1.2521
   22MOL   H26214164   5.791   0.894   6.357  1.1302  0.3992  0.4701
   22MOL   H26314165   5.769   1.065   6.532 -0.3419 -0.1047  0.9337
   22MOL   H26414166   5.617   0.979   6.573 -2.6261  1.5060 -0.2441
   22MOL   H26514167   5.613   1.112   6.472 -0.8756 -0.0323  1.4671
   22MOL   C26614168   5.423   0.875   5.482  1.1582  1.2465 -0.3097
   22MOL   C26714169   5.511   0.765   5.534  0.0736  0.1293  0.4240
   22MOL   C26814170   5.652   0.776   5.473 -0.2468 -0.4045 -0.0895
   22MOL   C26914171   5.660   0.777   5.318 -0.3898  0.5615  0.2783
   22MOL   C27014172   5.789   0.719   5.261  0.4492  0.2079  0.2558
   22MOL   C27114173   5.771   0.671   5.114  0.1778  0.8280 -0.3266
   22MOL   C27214174   5.702   0.537   5.100 -0.4515  0.4675 -0.1749
   22MOL   C27314175   5.714   0.494   4.951 -0.1896 -0.2008 -0.3836
   22MOL   C27414176   5.637   0.365   4.915 -0.6116  0.6254 -0.7445
   22MOL   C27514177   5.671   0.323   4.770  0.1400  0.1154  0.4028
   22MOL   C27614178   5.638   0.172   4.747  0.2778  0.3937  0.1065
   22MOL   H27714179   5.469   0.955   5.425  0.5495  0.4712 -1.8965
   22MOL   H27814180   5.377   0.837   5.391 -0.1432  0.4750  0.6447
   22MOL   H27914181   5.539   0.778   5.639  1.2055  1.2024  0.0035
   22MOL   H28014182   5.703   0.863   5.514 -0.6611  0.8477 -2.1850
   22MOL   H28114183   5.710   0.697   5.520  0.2388  0.9117  1.5531
   22MOL   H28214184   5.634   0.877   5.284 -2.0646  0.8746  2.4029
   22MOL   H28314185   5.577   0.717   5.280  0.5926 -0.3025 -0.5477
   22MOL   H28414186   5.841   0.649   5.326  1.6628 -0.4659 -1.3951
   22MOL   H28514187   5.860   0.801   5.256 -1.6845  1.9796 -2.9293
   22MOL   H28614188   5.870   0.670   5.068  0.4857  0.0335  0.3490
   22MOL   H28714189   5.730   0.754   5.056 -0.8591  0.2495 -0.4295
   22MOL   H28814190   5.739   0.460   5.167 -1.3379  1.8274  1.9286
   22MOL   H28914191   5.595   0.555   5.109 -0.6653 -1.2296  0.9012
   22MOL   H29014192   5.821   0.480   4.935 -0.1178 -0.3615  0.2249
   22MOL   H29114193   5.671   0.576   4.894 -0.1415 -0.6491 -1.0741
   22MOL   H29214194   5.673   0.282   4.977 -0.9955 -0.8816 -2.4975
   22MOL   H29314195   5.530   0.366   4.938 -0.3126  0.1121  0.7786
   22MOL   H29414196   5.777   0.344   4.754 -0.0793  1.1944  0.2865
   22MOL   H29514197   5.618   0.375   4.690  0.5753  1.0735  0.7188
   22MOL   H29614198   5.706   0.107   4.802 -0.7756  0.3765  1.4338
   22MOL   H29714199   5.651   0.148   4.642  0.6269 -2.0281  0.6712
   22MOL   H29814200   5.536   0.150   4.779  0.3422 -0.3886 -0.2080
   22MOL   C29914201   5.443   0.627   5.509 -0.1795  0.0637 -0.2736
   22MOL   C30014202   5.493   0.506   5.583  0.3593  1.2332 -0.0321
   22MOL   C30114203   5.438   0.373   5.517  0.1893  0.5063  0.4968
   22MOL   C30214204   5.490   0.346   5.373 -0.4842  0.0623 -0.4190
   22MOL   C30314205   5.489   0.199   5.342 -0.7540  0.4655 -0.6062
   22MOL   C30414206   5.540   0.174   5.199  0.2761 -0.0058 -0.2213
   22MOL   C30514207   5.526   0.039   5.151  0.0752  0.3068  0.4678
   22MOL   C30614208   5.640   7.648   5.192  0.3034  0.4602  0.1206
   22MOL   C30714209   5.622   7.501   5.143 -0.6470  0.1492 -0.2647
   22MOL   C30814210   5.752   7.424   5.158  0.3785 -0.0032  0.2699
   22MOL   C30914211   5.729   7.271   5.132 -0.4069 -0.0509 -0.5442
   22MOL   H31014212   5.427   0.593   5.407 -3.4222  1.9114 -0.4360
   22MOL   H31114213   5.340   0.648   5.537  0.0461  0.0994  0.5508
   22MOL   H31214214   5.601   0.508   5.578  0.4554  1.8464  1.8153
   22MOL   H31314215   5.488   0.293   5.571 -1.2201 -0.6867  0.0622
   22MOL   H31414216   5.330   0.366   5.508  0.1468  0.0792  1.2929
   22MOL   H31514217   5.424   0.399   5.304  1.8105  2.4753 -0.8552
   22MOL   H31614218   5.590   0.388   5.367  0.2573 -1.4783  0.9309
   22MOL   H31714219   5.539   0.147   5.423 -1.1844  1.0506  0.0468
   22MOL   H31814220   5.383   0.172   5.347 -0.4950 -0.1479  3.0859
   22MOL   H31914221   5.641   0.215   5.191 -0.0573  0.9185  0.2688
   22MOL   H32014222   5.485   0.244   5.136  1.4327  0.8638 -0.2856
   22MOL   H32114223   5.428   0.004   5.181 -0.2136 -0.1773 -0.9755
   22MOL   H32214224   5.531   0.040   5.042 -1.2241 -1.2240  0.3837
   22MOL   H32314225   5.633   7.656   5.300 -1.5874  2.4277 -0.1140
   22MOL   H32414226   5.735   7.695   5.167 -0.5577  1.9991 -0.3527
   22MOL   H32514227   5.592   7.512   5.038  2.3281  1.0739 -1.0621
   22MOL   H32614228   5.534   7.462   5.194 -0.5533  0.6099  0.2520
   22MOL   H32714229   5.781   7.447   5.261 -0.3103 -2.4021  1.0318
   22MOL   H32814230   5.823   7.460   5.083 -0.6783  0.8850 -0.3136
   22MOL   H32914231   5.699   7.254   5.029 -0.3668 -0.8387 -0.4301
   22MOL   H33014232   5.818   7.213   5.156 -0.2742  0.8668  1.2894
   22MOL   H33114233   5.647   7.231   5.191  0.3113 -0.5730  0.1182
   22MOL   C33214234   5.455   0.510   5.735 -0.1648 -0.2062 -0.1268
   22MOL   C33314235   5.551   0.452   5.839  0.2286  0.2364 -0.1424
   22MOL   C33414236   5.485   0.419   5.974 -0.6918 -0.3433 -0.6399
   22MOL   C33514237   5.402   0.531   6.041  0.6069 -0.4296  0.2488
   22MOL   C33614238   5.349   0.480   6.180  0.1077 -0.3876 -0.1033
   22MOL   C33714239   5.248   0.365   6.185 -0.2741  0.6794  0.2526
   22MOL   C33814240   5.117   0.381   6.108 -0.3788  0.1837  0.3711
   22MOL   C33914241   5.038   0.247   6.115 -0.2814  0.8209  0.1105
   22MOL   C34014242   4.895   0.259   6.075 -0.2732 -0.1432  0.3392
   22MOL   C34114243   4.811   0.140   6.106  0.4661 -1.3008 -0.8574
   22MOL   C34214244   4.826   0.009   6.025 -0.1008  0.1064  0.5086
   22MOL   H34314245   5.449   0.614   5.767 -0.0371 -0.3620  0.4030
   22MOL   H34414246   5.354   0.471   5.744 -1.5193  3.2746  0.6647
   22MOL   H34514247   5.592   0.360   5.797 -0.7906 -0.9105  1.3064
   22MOL   H34614248   5.564   0.380   6.038 -1.2919 -1.9813 -0.8705
   22MOL   H34714249   5.426   0.328   5.960 -1.0591  0.0332 -1.5472
   22MOL   H34814250   5.461   0.619   6.065  0.4532 -0.6436  1.4131
   22MOL   H34914251   5.318   0.556   5.977  0.4180 -0.6376  0.4170
   22MOL   H35014252   5.432   0.449   6.243 -0.7708 -1.1348  0.6843
   22MOL   H35114253   5.304   0.567   6.228 -0.8303 -1.1826  0.4650
   22MOL   H35214254   5.239   0.333   6.289  0.3678  1.1230  0.4512
   22MOL   H35314255   5.295   0.274   6.147 -1.1247  0.2387  0.2481
   22MOL   H35414256   5.139   0.401   6.003 -0.8549  0.0781  0.2467
   22MOL   H35514257   5.059   0.466   6.144  1.6804  1.2634  1.2265
   22MOL   H35614258   5.078   0.175   6.044  0.9279  2.3593 -0.8000
   22MOL   H35714259   5.052   0.203   6.213  1.9037 -0.2864 -0.6705
   22MOL   H35814260   4.878   0.279   5.969  1.3140 -3.3580 -0.5684
   22MOL   H35914261   4.848   0.331   6.142 -0.0504 -0.7935  1.1995
   22MOL   H36014262   4.704   0.163   6.100  1.1751  2.6510 -0.1341
   22MOL   H36114263   4.824   0.104   6.208  3.3829 -2.2354 -1.5290
   22MOL   H36214264   4.764   7.628   6.056 -2.5375  1.7804  0.3377
   22MOL   H36314265   4.796   0.022   5.921 -1.3375  1.2232  0.9977
   22MOL   H36414266   4.933   7.690   6.032 -0.0906  0.4653  1.5742
   22MOL   C36514267   5.666   0.559   5.853  0.3946 -0.4038 -0.1372
   22MOL   C36614268   5.802   0.519   5.933  0.5411 -0.1896 -0.2139
   22MOL   C36714269   5.925   0.499   5.829 -0.8481 -0.1115 -0.4871
   22MOL   C36814270   5.897   0.389   5.722  0.9597  0.5003 -0.3351
   22MOL   C36914271   5.987   0.386   5.598  0.3437 -0.3545 -0.1982
   22MOL   C37014272   5.967   0.257   5.509  0.4363 -0.8251  0.1801
   22MOL   C37114273   6.029   0.275   5.374 -0.7289  0.1606  0.3508
   22MOL   C37214274   5.986   0.179   5.262 -0.7517  0.2710  0.1964
   22MOL   C37314275   6.032   0.238   5.129  0.3949  0.2133  0.0572
   22MOL   C37414276   5.998   0.142   5.020 -0.7272  0.1616  0.0109
   22MOL   C37514277   6.062   0.173   4.885 -0.0432 -0.3848 -0.3182
   22MOL   H37614278   5.680   0.601   5.753  0.0155  0.4416  0.1518
   22MOL   H37714279   5.634   0.653   5.898  1.4579  1.5126 -3.2334
   22MOL   H37814280   5.792   0.423   5.984 -0.6316 -0.0650 -0.2021
   22MOL   H37914281   6.015   0.473   5.884 -0.3461 -0.2752 -1.3713
   22MOL   H38014282   5.958   0.596   5.791  1.5105  0.1564  2.0732
   22MOL   H38114283   5.793   0.395   5.689  0.3055  1.8483  1.8266
   22MOL   H38214284   5.904   0.288   5.764  1.1837 -0.7370 -3.2567
   22MOL   H38314285   6.089   0.398   5.634 -0.0318  0.1468  0.7018
   22MOL   H38414286   5.952   0.471   5.540 -0.9180 -0.0519  0.9882
   22MOL   H38514287   5.862   0.232   5.499  0.4293 -2.3569  3.4010
   22MOL   H38614288   6.014   0.170   5.557  0.4591 -1.2124 -0.5396
   22MOL   H38714289   6.003   0.377   5.346 -0.7557  0.1739  0.4226
   22MOL   H38814290   6.136   0.278   5.396 -0.3406 -0.8643 -1.3151
   22MOL   H38914291   5.878   0.161   5.267 -0.6694 -0.3673 -0.2337
   22MOL   H39014292   6.042   0.085   5.268 -1.1900 -0.1558 -1.9804
   22MOL   H39114293   5.965   0.320   5.104 -0.6296 -0.4573  0.5506
   22MOL   H39214294   6.135   0.271   5.124  0.6451 -0.8502 -2.7136
   22MOL   H39314295   6.028   0.038   5.034 -0.5679  0.3780  1.3363
   22MOL   H39414296   5.890   0.135   5.015 -1.0033  1.9945  2.3113
   22MOL   H39514297   6.056   0.278   4.856 -2.4377  0.3635  2.5965
   22MOL   H39614298   6.017   0.111   4.807 -2.3240  1.0485 -0.2034
   22MOL   H39714299   6.168   0.150   4.880  0.3351  0.9241  1.2748
   22MOL   C39814300   5.840   0.637   6.024  0.0631  0.0707 -0.5184
   22MOL   C39914301   5.957   0.627   6.115 -1.1876 -0.3233 -0.8321
   22MOL   C40014302   5.958   0.501   6.213 -0.1870 -0.4719  0.4310
   22MOL   C40114303   5.828   0.500   6.301 -0.3628  0.3520 -0.2122
   22MOL   C40214304   5.791   0.369   6.368 -0.1262  0.8183 -0.6395
   22MOL   C40314305   5.690   0.388   6.480 -0.3125  0.0564  0.2508
   22MOL   C40414306   5.666   0.255   6.542  0.0467  0.2207 -0.5142
   22MOL   C40514307   5.549   0.253   6.640  0.0065 -0.2906 -0.5959
   22MOL   C40614308   5.419   0.223   6.578  0.5577 -0.0626  0.4805
   22MOL   C40714309   5.309   0.208   6.674  0.8727 -1.2273 -0.4259
   22MOL   C40814310   5.180   0.137   6.627  0.1432 -0.4686 -0.6447
   22MOL   H40914311   5.755   0.662   6.086  0.2875 -1.1964  0.3293
   22MOL   H41014312   5.850   0.719   5.954  0.4934  1.5749  1.2839
   22MOL   H41114313   6.044   0.621   6.050 -0.0267 -1.6209  0.7856
   22MOL   H41214314   6.054   0.512   6.263 -0.2285 -1.7463  0.7988
   22MOL   H41314315   5.968   0.405   6.162 -0.7978  0.2743 -1.1536
   22MOL   H41414316   5.837   0.574   6.380 -2.2290 -1.7701  2.0561
   22MOL   H41514317   5.739   0.526   6.242 -0.2091 -0.0753 -0.6336
   22MOL   H41614318   5.760   0.303   6.287  0.3868  1.7507 -1.6152
   22MOL   H41714319   5.880   0.320   6.409  0.2469  1.4461 -0.6995
   22MOL   H41814320   5.600   0.428   6.433 -0.2655 -2.4434 -2.0706
   22MOL   H41914321   5.721   0.442   6.570 -0.0105 -1.1653  0.8882
   22MOL   H42014322   5.653   0.172   6.473  0.1991  0.7676 -1.2089
   22MOL   H42114323   5.751   0.244   6.609 -1.2866  0.9604  1.3520
   22MOL   H42214324   5.551   0.354   6.679  2.2053  0.2695 -2.0527
   22MOL   H42314325   5.576   0.192   6.727 -1.8347  0.9514  0.8988
   22MOL   H42414326   5.394   0.305   6.512  0.6978 -1.1378 -0.9166
   22MOL   H42514327   5.430   0.135   6.516 -1.6479  0.3705 -0.5778
   22MOL   H42614328   5.273   0.300   6.718  1.7619  0.3630 -2.9465
   22MOL   H42714329   5.350   0.156   6.761  2.8088 -1.0793 -1.2368
   22MOL   H42814330   5.181   0.029   6.609 -0.5249 -0.3267 -1.5431
   22MOL   H42914331   5.124   0.195   6.553 -1.4333  0.6171  1.3502
   22MOL   H43014332   5.114   0.134   6.714 -0.0377  1.2600 -0.7109
   22MOL   C43114333   5.974   0.759   6.196  0.2323 -0.5645 -0.1616
   22MOL   C43214334   6.122   0.808   6.233 -0.7502  0.2374 -0.2145
   22MOL   C43314335   6.121   0.897   6.357  0.2055  0.2086  0.2367
   22MOL   C43414336   6.065   1.041   6.351  0.3161 -0.1756 -0.2596
   22MOL   C43514337   6.054   1.107   6.485  0.1833 -0.0508 -0.1272
   22MOL   C43614338   5.988   1.247   6.473 -0.5988  0.6490  0.1339
   22MOL   C43714339   6.013   1.332   6.593  0.0178 -0.8532 -0.4089
   22MOL   C43814340   5.946   1.470   6.575 -0.0244 -0.1913  0.3755
   22MOL   C43914341   5.922   1.556   6.703  0.1503  0.5645 -0.0419
   22MOL   C44014342   5.889   1.701   6.679  0.5664 -0.0642  0.6318
   22MOL   C44114343   5.744   1.721   6.617  0.4403  0.5764 -0.2877
   22MOL   H44214344   5.928   0.738   6.292  0.7293 -0.5723  0.0776
   22MOL   H44314345   5.921   0.846   6.159 -0.3156 -1.2794 -1.0989
   22MOL   H44414346   6.170   0.718   6.272 -2.6702 -0.6952  0.0313
   22MOL   H44514347   6.076   0.843   6.440  0.4698 -2.5337 -1.3654
   22MOL   H44614348   6.225   0.902   6.390 -0.1591 -1.9344  1.8440
   22MOL   H44714349   5.965   1.037   6.309 -0.2989 -1.0769  1.2657
   22MOL   H44814350   6.119   1.103   6.279 -0.1140  1.0399  0.4752
   22MOL   H44914351   6.155   1.111   6.525  0.0898 -2.7907  0.5157
   22MOL   H45014352   5.998   1.049   6.559 -1.7173  0.3470 -1.2257
   22MOL   H45114353   5.885   1.232   6.442  0.5203 -2.0862 -2.5612
   22MOL   H45214354   6.025   1.295   6.383  1.6676 -0.9530  0.1500
   22MOL   H45314355   6.120   1.335   6.614 -0.1393 -0.7612  0.3953
   22MOL   H45414356   5.986   1.292   6.691 -0.5198  1.6706  0.5096
   22MOL   H45514357   6.001   1.532   6.504 -1.4090  3.9724  2.7146
   22MOL   H45614358   5.849   1.452   6.529 -0.6334 -0.0626  1.5868
   22MOL   H45714359   6.015   1.544   6.758 -0.4634 -1.7453  0.5534
   22MOL   H45814360   5.844   1.499   6.754  0.1206  1.4870  0.9563
   22MOL   H45914361   5.966   1.746   6.617 -1.5504  1.4075 -1.0037
   22MOL   H46014362   5.885   1.761   6.769 -0.9506  1.9193 -0.7087
   22MOL   H46114363   5.744   1.676   6.518 -0.7328  0.0678 -0.0603
   22MOL   H46214364   5.656   1.674   6.661  0.9666  0.0733  0.2450
   22MOL   H46314365   5.726   1.828   6.618 -0.9403  0.3633 -1.3595
   22MOL   C46414366   6.206   0.867   6.120  0.9250 -0.2151 -0.4168
   22MOL   C46514367   6.319   0.775   6.065 -0.1879  0.7656  0.8339
   22MOL   C46614368   6.351   0.816   5.916  0.0087 -0.1377  0.4755
   22MOL   C46714369   6.236   0.773   5.818 -0.0511  0.1667 -0.4181
   22MOL   C46814370   6.272   0.789   5.664  0.4655  0.4996 -0.6091
   22MOL   C46914371   6.142   0.784   5.593  0.5987 -0.3702 -0.0051
   22MOL   C47014372   6.139   0.805   5.436  0.9144 -0.4436  0.0845
   22MOL   C47114373   6.172   0.688   5.365  0.0953 -0.3191 -0.6640
   22MOL   C47214374   6.170   0.697   5.216  1.0606 -0.3675 -0.4438
   22MOL   C47314375   6.138   0.560   5.163 -0.1119  0.3980  0.5667
   22MOL   C47414376   6.166   0.551   5.010  0.1009  0.1774  0.1840
   22MOL   H47514377   6.249   0.962   6.149  0.6885 -0.5833  1.2062
   22MOL   H47614378   6.140   0.896   6.039 -0.4019 -0.0659  0.7032
   22MOL   H47714379   6.276   0.675   6.064 -0.9575  1.0945  0.3086
   22MOL   H47814380   6.445   0.785   5.870 -0.5578 -1.3565  0.1069
   22MOL   H47914381   6.348   0.924   5.907  1.3005  0.0847  2.5628
   22MOL   H48014382   6.217   0.669   5.843  0.2018  0.3963  0.7869
   22MOL   H48114383   6.145   0.827   5.844 -1.7256 -2.3769 -0.8721
   22MOL   H48214384   6.345   0.711   5.644  0.6247  0.5778 -0.3459
   22MOL   H48314385   6.333   0.875   5.634  0.0699  1.1213  0.3409
   22MOL   H48414386   6.086   0.694   5.617  1.1196 -0.3246  1.4156
   22MOL   H48514387   6.074   0.861   5.630  1.0214  0.8510 -1.6369
   22MOL   H48614388   6.038   0.842   5.422  0.4286 -1.9423 -0.4383
   22MOL   H48714389   6.210   0.886   5.420  1.6519 -1.0204  0.4014
   22MOL   H48814390   6.264   0.640   5.399 -0.9149 -0.5248  1.9103
   22MOL   H48914391   6.093   0.617   5.389 -2.8370  2.8565 -0.5490
   22MOL   H49014392   6.084   0.761   5.193  0.9221 -1.2228 -2.4856
   22MOL   H49114393   6.258   0.741   5.170 -0.6286  0.3731 -3.1189
   22MOL   H49214394   6.184   0.482   5.223 -1.6592  1.2856  2.9492
   22MOL   H49314395   6.035   0.542   5.193 -0.0732 -2.3732 -0.8023
   22MOL   H49414396   6.115   0.468   4.962  0.8849  0.8483 -1.9012
   22MOL   H49514397   6.274   0.535   5.009  0.0934 -0.0108 -1.9873
   22MOL   H49614398   6.146   0.648   4.964  1.6150  0.7890  0.7917
   22MOL   C49714399   6.447   0.773   6.151  0.2818 -0.3549  0.4729
   22MOL   C49814400   6.472   0.647   6.227  0.4426 -0.2403  0.6028
   22MOL   C49914401   6.510   0.676   6.379  0.3156  0.2372 -0.2740
   22MOL   C50014402   6.530   0.554   6.471  0.1222 -0.3518  0.3428
   22MOL   C50114403   6.408   0.462   6.474  0.0523  0.6694 -0.4420
   22MOL   C50214404   6.404   0.369   6.598 -0.1983  0.1611 -0.6878
   22MOL   C50314405   6.259   0.310   6.620 -0.8329 -0.0606  0.4376
   22MOL   C50414406   6.223   0.201   6.514  0.5333  0.0979 -0.4128
   22MOL   C50514407   6.083   0.138   6.551  0.6597  0.5067 -0.9345
   22MOL   C50614408   6.049   0.023   6.457 -0.2559 -0.3827 -0.8613
   22MOL   C50714409   5.944   7.630   6.510 -0.1545  0.9016  0.0647
   22MOL   H50814410   6.536   0.799   6.093  0.5356 -0.0139  1.0156
   22MOL   H50914411   6.442   0.861   6.215 -0.9771  0.3998 -0.6297
   22MOL   H51014412   6.381   0.585   6.227  0.1457  0.1978 -0.1874
   22MOL   H51114413   6.442   0.752   6.419 -0.4664 -1.2269  1.2304
   22MOL   H51214414   6.598   0.740   6.386  2.2961 -2.3264 -1.2627
   22MOL   H51314415   6.559   0.582   6.573  1.5509  3.2064 -0.9730
   22MOL   H51414416   6.619   0.502   6.437 -0.3289  0.0803 -1.5253
   22MOL   H51514417   6.319   0.526   6.475 -1.3054 -1.1319 -2.1290
   22MOL   H51614418   6.403   0.412   6.377 -1.5958  1.5242 -0.8295
   22MOL   H51714419   6.481   0.292   6.591  0.4757  0.8458 -1.0731
   22MOL   H51814420   6.432   0.445   6.671  0.7997  2.5236 -3.4269
   22MOL   H51914421   6.253   0.269   6.721  0.1490  0.4856  0.7208
   22MOL   H52014422   6.185   0.390   6.617  0.0769  0.7955  0.5149
   22MOL   H52114423   6.303   0.127   6.511  0.2175 -0.2939  0.8576
   22MOL   H52214424   6.214   0.243   6.414 -0.1970 -0.8546 -0.7456
   22MOL   H52314425   5.999   0.207   6.559  1.1697  1.2183 -1.6370
   22MOL   H52414426   6.079   0.105   6.655  0.6131 -1.7075 -1.6079
   22MOL   H52514427   6.138   7.665   6.443  0.8012  0.6813  0.9884
   22MOL   H52614428   6.017   0.056   6.358 -1.4845  2.9909  0.5768
   22MOL   H52714429   5.945   7.538   6.452  1.4109  1.1435 -0.3169
   22MOL   H52814430   5.851   7.688   6.517  0.7753  2.8714 -2.7490
   22MOL   H52914431   5.971   7.610   6.614  0.1327  0.7071 -0.0472
   22MOL   C53014432   6.577   0.560   6.167 -0.4885  0.1032 -0.9901
   22MOL   C53114433   6.552   0.506   6.030  0.0258  0.2752  0.6224
   22MOL   C53214434   6.441   0.393   6.028  0.2954  0.1174 -0.2282
   22MOL   C53314435   6.323   0.409   5.929  0.1216  0.4415  0.5089
   22MOL   C53414436   6.243   0.279   5.913 -0.0639  0.1509  0.5630
   22MOL   C53514437   6.306   0.187   5.813  0.1074 -0.1177  0.1094
   22MOL   C53614438   6.237   0.055   5.780 -0.4908 -0.3620  0.0578
   22MOL   C53714439   6.318   7.668   5.673  0.1079 -0.0130 -0.1057
   22MOL   C53814440   6.244   7.543   5.620  0.5580 -0.4719  0.0076
   22MOL   C53914441   6.125   7.580   5.526  0.8443  0.6422 -0.0401
   22MOL   C54014442   6.088   7.465   5.437  0.7540  0.1856 -0.0538
   22MOL   H54114443   6.674   0.609   6.172 -0.3452 -0.2279 -0.5482
   22MOL   H54214444   6.585   0.474   6.233 -1.6751 -0.2701 -1.3183
   22MOL   H54314445   6.523   0.597   5.976 -0.6726  0.7947  1.8524
   22MOL   H54414446   6.395   0.387   6.127  0.4177 -0.2888 -0.1944
   22MOL   H54514447   6.479   0.293   6.008 -0.6296 -0.0586 -1.0841
   22MOL   H54614448   6.352   0.444   5.829 -0.4353  0.9753  0.5236
   22MOL   H54714449   6.258   0.486   5.971 -0.2212 -0.0280  0.8418
   22MOL   H54814450   6.145   0.309   5.878 -1.3000  0.0246  3.7196
   22MOL   H54914451   6.240   0.230   6.010  0.3312 -0.9195  0.0449
   22MOL   H55014452   6.405   0.160   5.849  1.4068  2.1824 -1.5881
   22MOL   H55114453   6.316   0.248   5.723 -2.4114 -0.0628 -0.1641
   22MOL   H55214454   6.139   0.061   5.732 -0.4391 -2.2177 -0.3104
   22MOL   H55314455   6.224   0.003   5.875  1.1599  1.2670  1.2049
   22MOL   H55414456   6.408   7.641   5.728  0.3269  1.3523  0.2209
   22MOL   H55514457   6.342   0.023   5.584 -2.5620  1.3301 -0.0052
   22MOL   H55614458   6.227   7.463   5.693  1.7132 -1.0330 -0.3212
   22MOL   H55714459   6.321   7.495   5.559  2.5652 -0.5603  2.5230
   22MOL   H55814460   6.142   7.662   5.456  1.7903 -0.3947 -1.0642
   22MOL   H55914461   6.046   7.617   5.590  0.3170 -1.9012  0.8227
   22MOL   H56014462   6.027   7.387   5.481  0.5812 -0.7124 -1.8436
   22MOL   H56114463   6.029   7.502   5.354  0.5669 -1.5554 -0.7077
   22MOL   H56214464   6.175   7.423   5.387  0.3774 -1.2209  0.4625
   22MOL   C56314465   6.679   0.445   5.979 -0.0484 -0.5798  0.2710
   22MOL   C56414466   6.678   0.397   5.835 -0.3877  0.1195 -0.1805
   22MOL   C56514467   6.801   0.311   5.803 -0.0248  0.4853  0.2321
   22MOL   C56614468   6.778   0.163   5.849  0.0827 -0.2013 -0.2008
   22MOL   C56714469   6.854   0.073   5.745 -0.5197 -0.2791 -0.4682
   22MOL   C56814470   6.845   7.631   5.785  0.5841  0.0126 -0.1895
   22MOL   C56914471   6.949   7.545   5.711 -0.2907  0.5217 -0.4427
   22MOL   C57014472   6.931   7.403   5.770  0.0022 -0.2014  0.1362
   22MOL   C57114473   7.031   7.299   5.719 -0.0447  0.0324  0.5553
   22MOL   C57214474   6.998   7.154   5.766  0.3558  0.8353 -0.1229
   22MOL   C57314475   7.028   7.126   5.917  0.3009 -0.4653  0.4404
   22MOL   H57414476   6.699   0.352   6.031 -1.3581 -1.4876 -0.8159
   22MOL   H57514477   6.761   0.513   6.001 -0.8966  0.8887 -0.9432
   22MOL   H57614478   6.590   0.339   5.808 -0.2068 -0.2888  0.0859
   22MOL   H57714479   6.888   0.357   5.851  1.8979 -0.0827 -2.5480
   22MOL   H57814480   6.819   0.318   5.695 -0.5073  0.7108  0.1658
   22MOL   H57914481   6.674   0.129   5.855 -0.2417  0.5262 -1.5141
   22MOL   H58014482   6.815   0.149   5.950  0.8427 -2.4932 -0.7826
   22MOL   H58114483   6.961   0.093   5.737 -0.4980  0.5555  1.7062
   22MOL   H58214484   6.819   0.078   5.641  0.7237 -2.4658 -1.0393
   22MOL   H58314485   6.873   7.630   5.891 -0.2134  0.7443  0.0345
   22MOL   H58414486   6.746   7.589   5.770  0.0349  1.4715 -0.6666
   22MOL   H58514487   6.944   7.551   5.603 -1.7936 -2.3712 -0.5777
   22MOL   H58614488   7.049   7.583   5.728 -1.3548  2.6715  1.2164
   22MOL   H58714489   6.834   7.361   5.747 -1.2340  2.7072 -0.1389
   22MOL   H58814490   6.939   7.411   5.878 -0.9071 -3.0184  0.4674
   22MOL   H58914491   7.131   7.323   5.756  0.5801 -1.4406 -0.1340
   22MOL   H59014492   7.035   7.284   5.611 -2.8654 -0.7888  0.5222
   22MOL   H59114493   7.057   7.083   5.709 -1.6120 -1.4231  0.6103
   22MOL   H59214494   6.897   7.124   5.739  1.8522 -2.1698 -2.6833
   22MOL   H59314495   6.954   7.168   5.985  0.9098  0.1223  0.7460
   22MOL   H59414496   7.045   7.019   5.930 -1.6089 -0.9295 -0.6335
   22MOL   H59514497   7.124   7.174   5.936  0.1465  0.4231 -0.9169
   22MOL   C59614498   6.671   0.513   5.733 -0.4562  0.2569 -0.1966
   22MOL   C59714499   6.643   0.479   5.582  0.5000 -0.2319  0.1118
   22MOL   C59814500   6.683   0.583   5.479 -0.3786  0.0899 -0.3556
   22MOL   C59914501   6.609   0.719   5.494  0.5517 -0.4626 -0.2942
   22MOL   C60014502   6.678   0.831   5.416  1.0275 -0.7604  0.1340
   22MOL   C60114503   6.617   0.971   5.452  0.1647  0.2281  0.0308
   22MOL   C60214504   6.690   1.088   5.395 -0.1855 -0.3782 -0.2993
   22MOL   C60314505   6.623   1.223   5.441  0.2768  0.0214  0.5277
   22MOL   C60414506   6.721   1.336   5.476 -0.4284  1.1387  0.4250
   22MOL   C60514507   6.643   1.459   5.523  0.4791 -0.4105 -0.1675
   22MOL   C60614508   6.737   1.567   5.573  0.2650  0.7225  0.5487
   22MOL   H60714509   6.590   0.579   5.766 -0.1812  0.1591  0.6906
   22MOL   H60814510   6.762   0.573   5.738 -0.0806 -0.2422 -1.0068
   22MOL   H60914511   6.695   0.389   5.549 -1.5108 -0.9442 -1.1928
   22MOL   H61014512   6.664   0.548   5.378  0.2126  2.4399 -1.3282
   22MOL   H61114513   6.792   0.596   5.477  0.3576 -5.0257 -1.3570
   22MOL   H61214514   6.603   0.731   5.602 -2.7409 -0.8441 -0.3886
   22MOL   H61314515   6.506   0.717   5.460  0.7151 -0.3185 -0.8016
   22MOL   H61414516   6.686   0.815   5.309 -0.2101  0.0392 -0.0981
   22MOL   H61514517   6.783   0.825   5.446  0.5013 -1.2097  1.9610
   22MOL   H61614518   6.515   0.956   5.417 -0.1503  0.9414  0.6367
   22MOL   H61714519   6.609   0.973   5.560 -1.4807 -0.1935 -0.0672
   22MOL   H61814520   6.704   1.085   5.287 -1.4945 -0.3001 -0.4750
   22MOL   H61914521   6.789   1.081   5.440 -0.5888 -0.7692  0.5286
   22MOL   H62014522   6.574   1.204   5.536  0.2330  0.3015  0.5620
   22MOL   H62114523   6.545   1.260   5.374 -0.5305 -0.0759  1.4094
   22MOL   H62214524   6.794   1.311   5.553  1.2290  0.2521 -1.3955
   22MOL   H62314525   6.776   1.365   5.386 -1.8157  0.8236 -0.5523
   22MOL   H62414526   6.563   1.428   5.591  0.8557  0.8812  0.9026
   22MOL   H62514527   6.593   1.503   5.437  3.3801  1.8594 -0.7745
   22MOL   H62614528   6.671   1.651   5.592 -1.9922 -1.5324  2.9782
   22MOL   H62714529   6.782   1.535   5.667  1.0851 -0.4574 -0.2155
   22MOL   H62814530   6.820   1.592   5.506 -1.3250  0.7994 -1.4265
   22MOL   C62914531   6.495   0.438   5.560 -0.2080  0.1598 -0.2542
   22MOL   C63014532   6.449   0.395   5.414  1.2286  0.1243  0.0560
   22MOL   C63114533   6.497   0.263   5.367 -0.0211  0.3047 -0.3575
   22MOL   C63214534   6.397   0.197   5.271  0.1312  1.0180 -0.0028
   22MOL   C63314535   6.458   0.096   5.175  0.9608 -0.4682 -0.3513
   22MOL   C63414536   6.354   7.695   5.118  0.3829 -0.1157  0.4109
   22MOL   C63514537   6.405   7.618   4.993 -0.8077 -0.2008  0.2964
   22MOL   C63614538   6.298   7.536   4.917  0.5105 -0.0304 -0.2538
   22MOL   C63714539   6.241   7.426   5.006  0.4762  0.1867  1.0903
   22MOL   C63814540   6.141   7.334   4.937 -0.4242  0.0154 -0.5013
   22MOL   C63914541   6.083   7.225   5.036 -0.4055  0.2787  0.5420
   22MOL   H64014542   6.467   0.364   5.634  0.5319 -0.8770 -1.0033
   22MOL   H64114543   6.433   0.524   5.586 -0.1469  0.4299 -0.9765
   22MOL   H64214544   6.340   0.391   5.420  1.2860  1.3233  2.4869
   22MOL   H64314545   6.601   0.271   5.337  0.6405 -0.3248  1.6926
   22MOL   H64414546   6.504   0.196   5.453  0.8844  0.8668  0.0074
   22MOL   H64514547   6.348   0.276   5.213 -0.0407  3.2485  3.0993
   22MOL   H64614548   6.320   0.139   5.322  0.2645 -0.4010 -1.3517
   22MOL   H64714549   6.539   0.042   5.224  0.4211  1.1598  2.4282
   22MOL   H64814550   6.495   0.142   5.083  0.1574 -1.1432 -1.0112
   22MOL   H64914551   6.262   0.049   5.112  1.8639  2.1986 -1.1315
   22MOL   H65014552   6.328   7.635   5.205  1.2358  0.6327  1.1931
   22MOL   H65114553   6.486   7.559   5.037 -1.0107 -0.6042  0.1267
   22MOL   H65214554   6.448   7.685   4.919 -0.7915 -1.0154 -0.4480
   22MOL   H65314555   6.342   7.497   4.825  0.8543 -0.3131  0.0272
   22MOL   H65414556   6.214   7.600   4.890  0.6903 -0.3372 -1.6071
   22MOL   H65514557   6.192   7.465   5.095  0.0706  0.4020  0.7761
   22MOL   H65614558   6.334   7.377   5.034  0.3282 -0.2491  0.8149
   22MOL   H65714559   6.182   7.287   4.847  0.1955 -1.8368  0.7116
   22MOL   H65814560   6.062   7.386   4.883  0.2938 -0.0246 -1.5960
   22MOL   H65914561   6.019   7.148   4.993  1.5428 -1.2742  0.3611
   22MOL   H66014562   6.033   7.264   5.124 -2.1479 -0.1174 -0.2585
   22MOL   H66114563   6.167   7.172   5.082  0.0180  0.9019  0.4923
   22MOL   H66214564   6.484   0.476   5.349 -0.7824  0.7174 -0.3156
   23MOL     C114565   7.457   2.212   7.012 -0.4833 -0.5884 -0.5116
   23MOL     C214566   7.320   2.212   6.950  0.4902  0.0494 -0.5978
   23MOL     C314567   7.310   2.289   6.813 -0.5488 -0.3930  0.7709
   23MOL     C414568   7.391   2.214   6.700  0.0690  0.1052 -1.1461
   23MOL     C514569   7.383   2.283   6.570  0.4712 -0.4990  1.3310
   23MOL     C614570   7.240   2.328   6.519  0.1769  1.0144 -0.8348
   23MOL     C714571   7.238   2.395   6.383 -0.2471  0.2568  0.1275
   23MOL     C814572   7.135   2.519   6.385 -0.5312  1.0314  0.2560
   23MOL     C914573   7.131   2.597   6.254  1.0478  0.4441 -0.2282
   23MOL    C1014574   7.102   2.745   6.278 -0.5629  0.0033 -0.3195
   23MOL    C1114575   6.962   2.771   6.338  0.4606 -0.6434 -0.2632
   23MOL    H1214576   7.498   2.313   7.010 -0.1515 -0.7285 -1.4181
   23MOL    H1314577   7.529   2.157   6.950 -1.3935 -0.9246 -1.2763
   23MOL    H1414578   7.252   2.260   7.020  0.4049 -3.3558  1.7748
   23MOL    H1514579   7.343   2.393   6.824  1.1355 -0.8082 -0.1191
   23MOL    H1614580   7.204   2.292   6.787 -1.0614 -0.2625  2.7887
   23MOL    H1714581   7.340   2.117   6.690  2.0607 -1.1533  0.6498
   23MOL    H1814582   7.496   2.201   6.725  0.0630  0.2603 -1.0450
   23MOL    H1914583   7.443   2.374   6.577 -1.0838  0.6705 -0.1165
   23MOL    H2014584   7.437   2.220   6.499 -0.7594 -2.4768  2.1253
   23MOL    H2114585   7.185   2.391   6.589 -0.0281  0.6355 -0.6558
   23MOL    H2214586   7.180   2.237   6.519  1.4619  0.1679 -0.2816
   23MOL    H2314587   7.336   2.440   6.366  0.2926 -0.8488  0.2324
   23MOL    H2414588   7.215   2.323   6.304  2.4048 -1.4680  0.8664
   23MOL    H2514589   7.149   2.593   6.464 -2.0831 -1.1630  2.6885
   23MOL    H2614590   7.037   2.480   6.416  0.8021 -1.6585  1.2597
   23MOL    H2714591   7.068   2.555   6.175  1.9462 -3.9875  1.2839
   23MOL    H2814592   7.232   2.590   6.216  1.1771  0.6589  0.0743
   23MOL    H2914593   7.124   2.798   6.185  0.6231  0.0165 -0.0409
   23MOL    H3014594   7.168   2.790   6.352 -0.2602  0.3610 -0.8089
   23MOL    H3114595   6.880   2.725   6.282 -0.7788 -0.8593  1.6969
   23MOL    H3214596   6.951   2.737   6.441  0.3654  0.7764  0.2068
   23MOL    H3314597   6.935   2.877   6.330  0.0824 -0.7998 -1.1188
   23MOL    H3414598   7.451   2.178   7.115  1.4519 -0.0124 -0.1801
   23MOL    C3514599   7.276   2.062   6.945  0.2525  0.3708  0.4071
   23MOL    C3614600   7.228   1.992   7.071  0.3287 -0.3871 -0.1262
   23MOL    C3714601   7.100   2.050   7.120  0.4337 -0.5087  0.0721
   23MOL    C3814602   7.056   2.007   7.267 -0.3621 -1.0241  0.1600
   23MOL    C3914603   6.917   2.052   7.311  0.6808  0.3456  0.0838
   23MOL    C4014604   6.853   1.964   7.422 -0.4834 -0.1602 -0.0061
   23MOL    C4114605   6.716   2.009   7.468 -0.3014 -0.2845  0.0971
   23MOL    C4214606   6.665   1.954   7.603 -0.2589 -0.3036  0.1065
   23MOL    C4314607   6.518   1.981   7.625  0.7157 -0.0412  0.2502
   23MOL    C4414608   6.466   1.911   0.045 -0.2631 -0.5558  0.5120
   23MOL    C4514609   6.347   1.974   0.121 -0.4339 -0.6846 -0.1294
   23MOL    H4614610   7.360   2.002   6.909  0.2019  0.0271  0.8603
   23MOL    H4714611   7.201   2.053   6.866  1.0079 -0.5902 -0.2119
   23MOL    H4814612   7.293   2.015   7.156  0.6778  0.3284 -0.5812
   23MOL    H4914613   7.101   2.159   7.120  2.2293 -0.5166  1.3368
   23MOL    H5014614   7.022   2.026   7.047  0.3953  1.2893 -0.5126
   23MOL    H5114615   7.129   2.040   7.341  0.9184  0.3619 -1.6862
   23MOL    H5214616   7.058   1.899   7.281  3.8207 -0.8933  1.0915
   23MOL    H5314617   6.850   2.054   7.225  0.8901 -1.1560 -0.1365
   23MOL    H5414618   6.919   2.153   7.351 -1.4411 -0.2709  1.8741
   23MOL    H5514619   6.920   1.958   7.508 -0.1036 -0.0327 -0.2904
   23MOL    H5614620   6.838   1.860   7.393  0.6739 -0.1165 -0.8099
   23MOL    H5714621   6.721   2.116   7.485 -2.8033 -0.3066  1.3279
   23MOL    H5814622   6.643   2.004   7.386 -0.0370  3.1111 -0.3985
   23MOL    H5914623   6.726   1.987   7.687  1.3232 -2.6611 -0.0778
   23MOL    H6014624   6.679   1.846   7.609 -1.6657 -0.5953 -1.5463
   23MOL    H6114625   6.464   1.956   7.534  1.2419  1.0610 -0.3722
   23MOL    H6214626   6.515   2.088   7.646  0.6248 -0.1047  0.5682
   23MOL    H6314627   6.439   1.810   0.015 -1.0024  0.1096 -1.0981
   23MOL    H6414628   6.541   1.893   0.123 -3.5370 -1.7550  3.5128
   23MOL    H6514629   6.319   1.909   0.204  0.2480 -2.8361 -1.5500
   23MOL    H6614630   6.360   2.077   0.156  0.4552 -0.9787  0.4265
   23MOL    H6714631   6.261   1.978   0.054 -0.0759 -0.8700 -0.6044
   23MOL    C6814632   7.213   1.839   7.048  0.1060 -0.3838  0.2957
   23MOL    C6914633   7.346   1.757   7.035  0.0006 -0.1854  0.0730
   23MOL    C7014634   7.447   1.772   7.155 -0.2875  0.1258  1.0179
   23MOL    C7114635   7.403   1.722   7.294  0.2079 -0.3204  0.2335
   23MOL    C7214636   7.428   1.572   7.310  0.2317 -0.1414  0.0070
   23MOL    C7314637   7.540   1.544   7.406 -0.4995 -0.3402 -0.0038
   23MOL    C7414638   7.582   1.394   7.423 -0.3014 -0.5007  0.3027
   23MOL    C7514639   7.688   1.370   7.525 -0.4565  0.2145  0.3513
   23MOL    C7614640   0.008   1.216   7.530 -0.4972  1.0550  0.5483
   23MOL    C7714641   0.135   1.179   7.613 -0.2409 -0.4598 -0.3012
   23MOL    C7814642   0.114   1.210   0.057 -0.0140  0.4046 -0.3445
   23MOL    H7914643   7.166   1.808   6.955  0.9015 -0.3819 -0.1088
   23MOL    H8014644   7.141   1.799   7.119  1.1317 -0.8889  1.0478
   23MOL    H8114645   7.408   1.808   6.961  2.6166  2.0446  3.6311
   23MOL    H8214646   7.487   1.874   7.161  1.9570 -0.6513 -0.2075
   23MOL    H8314647   7.538   1.717   7.134 -0.3520  0.5901 -0.5999
   23MOL    H8414648   7.442   1.782   7.376  0.5484  0.4843 -0.5015
   23MOL    H8514649   7.295   1.737   7.294 -0.2792 -3.4940 -0.3571
   23MOL    H8614650   7.448   1.515   7.219  0.2458  0.0098 -0.0847
   23MOL    H8714651   7.340   1.518   7.345  0.7986  0.3761  2.2975
   23MOL    H8814652   7.625   1.603   7.371 -0.9345  0.4105  0.1815
   23MOL    H8914653   7.498   1.592   7.494 -0.8440 -1.1972  0.2988
   23MOL    H9014654   7.606   1.346   7.328  1.0959 -0.2955  0.5363
   23MOL    H9114655   7.487   1.356   7.460  0.9501 -1.1702  2.9946
   23MOL    H9214656   0.077   1.426   7.513 -0.8924  0.9916  0.6463
   23MOL    H9314657   7.657   1.400   7.626 -1.6372 -0.6442  0.2584
   23MOL    H9414658   7.622   1.167   7.569  0.1924  0.7270  1.7522
   23MOL    H9514659   0.027   1.185   7.428  0.9337 -0.8225  1.3588
   23MOL    H9614660   0.146   1.070   7.605  1.2127 -0.4680  1.5800
   23MOL    H9714661   0.229   1.223   7.581 -0.2106 -0.9242 -0.8636
   23MOL    H9814662   0.032   1.146   0.091  0.7090 -0.5205 -0.2935
   23MOL    H9914663   0.096   1.314   0.081  0.0986  0.5801 -1.0169
   23MOL   H10014664   0.203   1.192   0.117 -0.4224  0.0269  0.1601
   23MOL   C10114665   7.325   1.617   6.979 -0.3523 -0.6461 -0.1903
   23MOL   C10214666   7.296   1.609   6.827 -0.7015 -0.0892  0.2412
   23MOL   C10314667   7.230   1.475   6.777 -0.3231 -0.8165  0.2880
   23MOL   C10414668   7.123   1.483   6.671 -0.3611  0.5699 -0.6260
   23MOL   C10514669   7.080   1.344   6.628 -1.1002  0.2163  0.1049
   23MOL   C10614670   6.979   1.347   6.518  0.1895  0.3613  0.8412
   23MOL   C10714671   6.908   1.205   6.489 -0.6425 -0.5637 -0.2563
   23MOL   C10814672   7.005   1.102   6.425  0.0387  0.3410 -0.8405
   23MOL   C10914673   6.937   0.969   6.377  0.2104 -0.1806 -1.0350
   23MOL   C11014674   7.026   0.860   6.322 -0.6117 -0.0158  0.3783
   23MOL   C11114675   6.936   0.740   6.278 -0.1621  0.2303  0.2373
   23MOL   H11214676   7.417   1.560   6.996  0.8512  0.6061 -2.1937
   23MOL   H11314677   7.243   1.571   7.034 -1.1596 -0.5169 -1.2691
   23MOL   H11414678   7.236   1.692   6.790  1.2082  0.3179 -2.0674
   23MOL   H11514679   7.312   1.410   6.745 -0.4574 -0.7894 -0.1064
   23MOL   H11614680   7.184   1.433   6.866  2.3023 -1.0811  1.5783
   23MOL   H11714681   7.041   1.540   6.716  0.6801  1.1021  0.6601
   23MOL   H11814682   7.146   1.533   6.577  0.2436  3.3739  0.9594
   23MOL   H11914683   7.171   1.291   6.599 -1.2186 -0.2361  0.5480
   23MOL   H12014684   7.034   1.289   6.710 -1.0801  0.8420  0.5338
   23MOL   H12114685   6.906   1.423   6.545  0.6977  0.7733  1.0544
   23MOL   H12214686   7.021   1.382   6.424  1.6642  0.6292  1.5858
   23MOL   H12314687   6.827   1.235   6.423 -0.1043  0.7790 -0.3209
   23MOL   H12414688   6.869   1.167   6.584  0.0429  1.1074  0.7184
   23MOL   H12514689   7.040   1.146   6.331  1.7790 -0.0388 -0.3864
   23MOL   H12614690   7.100   1.093   6.477 -0.4846 -0.1803  0.0319
   23MOL   H12714691   6.880   0.926   6.459  2.5370 -0.7830  0.2964
   23MOL   H12814692   6.856   1.005   6.314 -1.8194 -1.4124  0.8186
   23MOL   H12914693   7.109   0.839   6.389  1.1281  0.1476 -1.6700
   23MOL   H13014694   7.067   0.901   6.230  0.8244 -0.6101  0.7374
   23MOL   H13114695   6.861   0.791   6.217  0.1613 -0.1917 -0.5217
   23MOL   H13214696   6.991   0.663   6.225  0.3804  0.3135  0.6868
   23MOL   H13314697   6.879   0.698   6.361 -1.0306  0.5755 -0.1666
   23MOL   C13414698   7.427   1.644   6.754 -0.5659  1.1257 -0.1489
   23MOL   C13514699   7.417   1.670   6.603 -0.4274  0.2368 -0.1050
   23MOL   C13614700   7.529   1.614   6.514  0.5855 -0.1002  0.1121
   23MOL   C13714701   7.527   1.468   6.492 -0.4361  0.4119 -0.2763
   23MOL   C13814702   7.425   1.409   6.394  0.1253 -0.1050  0.2364
   23MOL   C13914703   7.429   1.444   6.245  0.3131 -0.0667 -0.0266
   23MOL   C14014704   7.327   1.350   6.178 -0.3771  0.7323  0.2877
   23MOL   C14114705   7.312   1.373   6.025  0.7352 -0.4143 -0.1132
   23MOL   C14214706   7.271   1.514   5.974  0.0021  0.2841 -0.0556
   23MOL   C14314707   7.229   1.508   5.832  0.4566  0.4765 -0.1244
   23MOL   C14414708   7.161   1.630   5.785  0.5202 -0.1784 -0.0149
   23MOL   H14514709   7.463   1.744   6.778 -0.1355  1.1212 -0.7598
   23MOL   H14614710   7.513   1.585   6.784  0.3104  2.7897  0.6684
   23MOL   H14714711   7.327   1.613   6.578 -0.6190 -0.9452  3.0513
   23MOL   H14814712   7.624   1.642   6.559  0.4178 -1.3597  1.2786
   23MOL   H14914713   7.534   1.665   6.418  4.0384  2.1934  1.4020
   23MOL   H15014714   7.619   1.459   6.434  0.9904  2.7495  1.5320
   23MOL   H15114715   7.530   1.403   6.580 -0.0925  0.1006 -0.5150
   23MOL   H15214716   7.425   1.301   6.412 -2.1669 -0.1020  0.3872
   23MOL   H15314717   7.327   1.442   6.430 -0.0037  1.1301 -1.1930
   23MOL   H15414718   7.412   1.552   6.236 -0.3453 -0.2724 -1.3020
   23MOL   H15514719   7.532   1.431   6.210  0.4423 -0.1529  0.3878
   23MOL   H15614720   7.366   1.248   6.178 -0.2036  0.7235 -3.4966
   23MOL   H15714721   7.237   1.362   6.238 -0.3933 -0.9506  0.6316
   23MOL   H15814722   7.391   1.329   5.965 -0.3460 -0.2137 -1.7020
   23MOL   H15914723   7.223   1.319   5.994  1.0074 -0.0331 -1.5658
   23MOL   H16014724   7.192   1.557   6.034  0.2378  0.8230 -0.1294
   23MOL   H16114725   7.348   1.589   5.991 -0.2521  0.2851  1.1631
   23MOL   H16214726   7.313   1.476   5.769 -1.0596 -3.4498 -0.3180
   23MOL   H16314727   7.154   1.429   5.820 -1.2887  2.0373  0.4013
   23MOL   H16414728   7.143   1.613   5.679  0.9522 -2.2409  0.2171
   23MOL   H16514729   7.227   1.716   5.800 -0.1520 -0.0562  2.3728
   23MOL   H16614730   7.075   1.652   5.848  0.5036  1.4268 -0.5627
   23MOL   C16714731   7.377   1.821   6.575 -0.5227 -0.6104 -0.2793
   23MOL   C16814732   7.317   1.849   6.434  1.1257  0.3562  0.8123
   23MOL   C16914733   7.418   1.916   6.321 -0.3761  0.2572 -0.1378
   23MOL   C17014734   7.371   1.886   6.178  0.2591  0.1019  0.2885
   23MOL   C17114735   7.445   1.962   6.066  0.2362  0.0485  0.1326
   23MOL   C17214736   7.394   1.919   5.928  0.4612 -0.2709 -0.0286
   23MOL   C17314737   7.470   1.989   5.818  0.1835 -0.3059  0.3210
   23MOL   C17414738   7.418   1.945   5.679  0.1604  0.0531  0.0251
   23MOL   C17514739   7.504   1.823   5.628  0.6511  0.6992  0.2875
   23MOL   C17614740   7.459   1.763   5.489 -0.7853 -0.3870  0.4276
   23MOL   C17714741   7.565   1.657   5.430  0.4517  0.1466  0.6014
   23MOL   H17814742   7.298   1.837   6.648 -0.8842 -1.9427 -0.3612
   23MOL   H17914743   7.459   1.889   6.597 -2.0885  1.1717  0.1561
   23MOL   H18014744   7.286   1.757   6.384 -1.0614  0.5143  1.8140
   23MOL   H18114745   7.523   1.887   6.324 -0.2247  0.6311 -1.3212
   23MOL   H18214746   7.412   2.023   6.337 -0.1168  0.3551 -0.6777
   23MOL   H18314747   7.382   1.779   6.163 -0.2061  0.0307  0.4550
   23MOL   H18414748   7.263   1.901   6.171  0.4176  1.3072  0.2363
   23MOL   H18514749   7.552   1.944   6.067  0.1755 -0.2833  2.1518
   23MOL   H18614750   7.442   2.071   6.072 -1.5206 -0.0422  1.2532
   23MOL   H18714751   7.411   1.813   5.913  0.6328  0.2503 -4.0783
   23MOL   H18814752   7.286   1.933   5.923  0.6009  0.3828 -1.4886
   23MOL   H18914753   7.575   1.960   5.824  0.5205  0.8632  0.2459
   23MOL   H19014754   7.467   2.098   5.827 -1.1501 -0.2311 -0.7743
   23MOL   H19114755   7.310   1.927   5.677 -0.3086  2.7993 -2.0025
   23MOL   H19214756   7.439   2.026   5.609 -0.0656  0.1101  0.0228
   23MOL   H19314757   7.505   1.734   5.691 -0.3068  1.0999  0.8728
   23MOL   H19414758   7.612   1.841   5.618  0.8940 -1.4633 -1.4687
   23MOL   H19514759   7.441   1.838   5.412  2.0301 -0.2201 -0.1250
   23MOL   H19614760   7.360   1.720   5.503 -1.0216 -0.1087 -0.3923
   23MOL   H19714761   7.517   1.588   5.361  0.2849 -0.2452  1.1134
   23MOL   H19814762   7.589   1.591   5.513  0.1168 -0.5653  0.1346
   23MOL   H19914763   7.657   1.704   5.394  1.9030 -1.3242  2.3255
   23MOL   C20014764   7.183   1.937   6.448  0.6278  0.2497  0.1334
   23MOL   C20114765   7.049   1.852   6.457 -1.2514 -0.5343 -0.1226
   23MOL   C20214766   7.013   1.792   6.318 -0.5372  0.1594  0.1152
   23MOL   C20314767   6.900   1.685   6.323 -0.0432 -0.3289  0.1198
   23MOL   C20414768   6.910   1.586   6.215 -0.4289  0.3267  0.3238
   23MOL   C20514769   6.808   1.473   6.216 -0.1070 -0.1946 -0.5286
   23MOL   C20614770   6.840   1.378   6.098 -0.1854 -0.5498 -0.0897
   23MOL   C20714771   6.750   1.254   6.074 -0.2846  0.1610  0.2136
   23MOL   C20814772   6.812   1.160   5.971 -1.3006 -0.0330  0.4942
   23MOL   C20914773   6.737   1.035   5.954  0.4986 -0.2291 -0.1634
   23MOL   C21014774   6.811   0.933   5.873 -0.0377  0.1732  0.0257
   23MOL   H21114775   7.189   2.011   6.529 -0.7510 -0.8424  1.2582
   23MOL   H21214776   7.160   2.003   6.364 -1.3980 -1.7933 -0.9426
   23MOL   H21314777   7.064   1.777   6.536  1.0847  0.0437  0.0279
   23MOL   H21414778   7.106   1.753   6.277 -0.1464  1.1860  0.0246
   23MOL   H21514779   6.984   1.868   6.246  1.3041  0.0761 -0.7263
   23MOL   H21614780   6.799   1.724   6.335  0.3003  0.8064 -0.5653
   23MOL   H21714781   6.906   1.627   6.415  0.2004  2.5857  2.0206
   23MOL   H21814782   7.008   1.538   6.221 -1.0644 -0.8302  2.1832
   23MOL   H21914783   6.901   1.640   6.121 -0.8680  1.4685  1.0147
   23MOL   H22014784   6.814   1.421   6.312  0.3611  0.8140 -0.0121
   23MOL   H22114785   6.708   1.515   6.212 -0.5139 -1.1090 -0.2016
   23MOL   H22214786   6.940   1.341   6.121 -0.0545  0.1284  0.4203
   23MOL   H22314787   6.844   1.433   6.004 -1.7565  0.9074  0.6691
   23MOL   H22414788   6.645   1.276   6.055 -0.6300 -1.0554  0.6672
   23MOL   H22514789   6.725   1.191   6.158  0.3313 -2.8233 -1.7434
   23MOL   H22614790   6.915   1.137   5.999 -1.6969  0.4335  2.4517
   23MOL   H22714791   6.817   1.208   5.873  0.4224  0.4885  0.8214
   23MOL   H22814792   6.717   0.982   6.048  1.3212  0.2654  0.3081
   23MOL   H22914793   6.638   1.065   5.922  0.8283  2.1692  0.9072
   23MOL   H23014794   6.779   0.832   5.898  0.1942 -0.0008 -0.3679
   23MOL   H23114795   6.915   0.928   5.906 -0.3796  1.5311  1.3892
   23MOL   H23214796   6.806   0.953   5.766  2.5561  1.4032  0.0921
   23MOL   C23314797   6.935   1.955   6.493 -0.2008 -0.7487  0.2225
   23MOL   C23414798   6.934   2.022   6.633 -0.3794 -0.7446 -0.3399
   23MOL   C23514799   6.928   1.929   6.752 -0.3856  0.5316 -0.0263
   23MOL   C23614800   6.812   1.834   6.741 -1.3950 -0.2473  0.1422
   23MOL   C23714801   6.801   1.738   6.859  0.2672  0.1279  0.4553
   23MOL   C23814802   6.711   1.794   6.966 -0.3422 -0.2799 -0.3680
   23MOL   C23914803   6.719   1.703   7.089 -0.1751 -0.5749 -0.2090
   23MOL   C24014804   6.614   1.730   7.194  0.4132  0.1775  0.8366
   23MOL   C24114805   6.621   1.627   7.310 -0.0368 -0.1082  0.1185
   23MOL   C24214806   6.500   1.655   7.406  0.6447 -0.2941 -0.0315
   23MOL   C24314807   6.519   1.565   7.537  0.2327 -0.9908  0.1645
   23MOL   H24414808   6.841   1.905   6.472 -0.5852 -0.5474  1.4420
   23MOL   H24514809   6.937   2.035   6.419  0.6404 -0.1456  0.8865
   23MOL   H24614810   7.021   2.087   6.637 -1.4737  0.8680 -2.2842
   23MOL   H24714811   7.015   1.863   6.750 -0.4041  0.4563  1.0190
   23MOL   H24814812   6.928   1.986   6.845 -0.5054  0.0712  0.2630
   23MOL   H24914813   6.834   1.784   6.646  0.0410  0.5384  0.0456
   23MOL   H25014814   6.721   1.894   6.740 -0.6672  0.9210  2.3868
   23MOL   H25114815   6.900   1.726   6.902  0.7051  0.4073 -0.4547
   23MOL   H25214816   6.763   1.642   6.826  1.1436 -1.6941  4.4907
   23MOL   H25314817   6.608   1.807   6.935  0.4152  1.2837 -2.3509
   23MOL   H25414818   6.749   1.895   6.981  1.5300 -0.6589 -2.2247
   23MOL   H25514819   6.708   1.604   7.045 -2.0246 -0.7007  0.4779
   23MOL   H25614820   6.818   1.700   7.134 -0.6041 -0.3680  0.7852
   23MOL   H25714821   6.645   1.830   7.227  2.6571  0.0508 -0.7528
   23MOL   H25814822   6.516   1.721   7.147 -0.0907  1.0829  1.6930
   23MOL   H25914823   6.627   1.523   7.279  1.7129 -0.0354  0.1463
   23MOL   H26014824   6.714   1.643   7.364 -0.5419  0.6620  0.7740
   23MOL   H26114825   6.405   1.633   7.358  0.6283  0.5107 -0.3790
   23MOL   H26214826   6.500   1.760   7.437 -3.0470  0.7014 -3.0553
   23MOL   H26314827   6.442   1.588   7.610 -0.7398 -0.7283 -0.9322
   23MOL   H26414828   6.619   1.566   7.579  0.7374  0.7945 -1.0047
   23MOL   H26514829   6.501   1.460   7.514 -0.0369 -1.2967  1.7448
   23MOL   C26614830   6.823   2.124   6.625  0.1224  0.1194  0.5480
   23MOL   C26714831   6.866   2.265   6.569  0.4697  0.7684  0.2966
   23MOL   C26814832   6.898   2.364   6.689 -0.4167 -0.0929  0.0068
   23MOL   C26914833   6.775   2.437   6.754  0.3132  0.0523  0.0746
   23MOL   C27014834   6.814   2.532   6.871  0.4787  0.1204  1.3968
   23MOL   C27114835   6.909   2.471   6.977 -0.2795 -0.7061 -0.1367
   23MOL   C27214836   6.940   2.550   7.107  0.4615  1.1421  0.1573
   23MOL   C27314837   7.031   2.481   7.213 -0.1934 -0.7425 -0.2346
   23MOL   C27414838   7.074   2.574   7.326  0.1727  0.2270 -1.0457
   23MOL   C27514839   7.149   2.503   7.436  0.1313  0.2581 -0.2418
   23MOL   C27614840   7.185   2.599   7.561 -0.0718  0.2069  0.5561
   23MOL   H27714841   6.781   2.137   6.725 -2.1537  0.2720 -0.4003
   23MOL   H27814842   6.734   2.089   6.572  1.5731  0.5007 -2.1801
   23MOL   H27914843   6.959   2.252   6.513  0.8183 -1.2856  1.2980
   23MOL   H28014844   6.944   2.309   6.771 -0.9888  0.2487  0.5708
   23MOL   H28114845   6.968   2.438   6.650 -2.6160  0.7369 -2.4827
   23MOL   H28214846   6.709   2.369   6.809  1.7771  0.7519  2.7753
   23MOL   H28314847   6.720   2.507   6.691  0.2622  1.3718  1.5555
   23MOL   H28414848   6.734   2.571   6.934  0.6775 -0.2431  1.8798
   23MOL   H28514849   6.861   2.619   6.827 -0.0290 -0.4647 -0.3352
   23MOL   H28614850   7.000   2.439   6.927  2.0583  3.3239  1.3065
   23MOL   H28714851   6.856   2.380   7.007 -2.3592  1.2634  2.3857
   23MOL   H28814852   6.980   2.648   7.082  2.2722  0.8998  1.9985
   23MOL   H28914853   6.846   2.575   7.157 -0.7352  0.8141 -1.8721
   23MOL   H29014854   7.121   2.452   7.158  1.7132  2.4895  1.0530
   23MOL   H29114855   6.977   2.392   7.243 -0.3528 -1.1915 -1.8125
   23MOL   H29214856   7.129   2.655   7.277  0.7838  0.2603 -0.3142
   23MOL   H29314857   6.986   2.621   7.368 -0.3856 -1.7208 -0.0091
   23MOL   H29414858   7.230   2.449   7.385 -1.9334 -0.6283 -2.6996
   23MOL   H29514859   7.080   2.426   7.467  0.2317  0.8879  1.6094
   23MOL   H29614860   7.208   2.532   7.644  0.6665  1.3247  1.2730
   23MOL   H29714861   7.109   2.673   7.582  2.8497  3.4949  0.0129
   23MOL   H29814862   7.272   2.663   7.543 -0.4809 -0.0543 -2.4572
   23MOL   C29914863   6.747   2.307   6.483 -0.0503 -0.0487 -0.1894
   23MOL   C30014864   6.748   2.253   6.341  0.3942 -1.0472 -0.1928
   23MOL   C30114865   6.856   2.317   6.250 -0.2498  0.1966 -0.2480
   23MOL   C30214866   6.877   2.256   6.108  0.4158 -0.4738  0.4843
   23MOL   C30314867   6.936   2.116   6.127 -0.0054 -0.0820  0.4086
   23MOL   C30414868   6.984   2.052   5.994 -0.1562 -0.7503 -0.3275
   23MOL   C30514869   6.869   2.004   5.914 -0.3299 -0.5696 -0.4670
   23MOL   C30614870   6.788   1.888   5.978 -0.0820 -0.4893 -0.0999
   23MOL   C30714871   6.698   1.808   5.883  0.1166  0.3677 -0.1296
   23MOL   C30814872   6.618   1.712   5.964  0.2097  0.0065 -1.1706
   23MOL   C30914873   6.503   1.639   5.892 -0.2184 -0.0256  0.2107
   23MOL   H31014874   6.744   2.415   6.472 -1.4311 -0.0717 -0.1279
   23MOL   H31114875   6.654   2.290   6.538  0.3079  0.9332  0.7182
   23MOL   H31214876   6.769   2.147   6.358 -1.0188 -1.3062  0.0306
   23MOL   H31314877   6.827   2.421   6.241 -1.9322 -0.1931  0.5431
   23MOL   H31414878   6.955   2.329   6.295  0.1252  0.3378 -1.1000
   23MOL   H31514879   6.794   2.276   6.040  0.8075  0.2043  0.1936
   23MOL   H31614880   6.960   2.311   6.063 -2.0166  2.0071 -1.1033
   23MOL   H31714881   7.020   2.116   6.197 -0.9764 -0.4759  1.5752
   23MOL   H31814882   6.872   2.040   6.170  1.2023 -1.7507 -0.6778
   23MOL   H31914883   7.059   1.978   6.023  1.2954  1.3628  1.4936
   23MOL   H32014884   7.055   2.113   5.937  0.5529  0.2761  1.5846
   23MOL   H32114885   6.800   2.076   5.869  1.6014  1.5298 -0.1173
   23MOL   H32214886   6.914   1.963   5.823  0.1431  0.2896 -0.6254
   23MOL   H32314887   6.724   1.939   6.050 -2.0444  0.6355 -2.6078
   23MOL   H32414888   6.856   1.820   6.030 -1.1754 -0.0327  1.9976
   23MOL   H32514889   6.753   1.748   5.810 -1.7606 -1.2748 -0.2290
   23MOL   H32614890   6.635   1.885   5.835  1.0988  0.2144 -1.7119
   23MOL   H32714891   6.575   1.767   6.047  0.6070 -0.2890 -0.7701
   23MOL   H32814892   6.684   1.631   5.993 -0.4353 -0.3032 -0.5719
   23MOL   H32914893   6.423   1.706   5.861 -0.8136 -0.7100  0.2605
   23MOL   H33014894   6.548   1.586   5.808  1.5256  0.6822  0.6820
   23MOL   H33114895   6.454   1.578   5.968 -1.5991 -0.8533 -1.3175
   23MOL   C33214896   6.607   2.276   6.270  0.6439  0.0562 -0.4071
   23MOL   C33314897   6.483   2.207   6.327  0.0854  0.2622  0.1657
   23MOL   C33414898   6.493   2.060   6.308  0.7038  0.6224 -0.3528
   23MOL   C33514899   6.447   1.983   6.431 -0.2907  0.1019 -0.1120
   23MOL   C33614900   6.479   1.832   6.409  1.0400  0.3918  0.6377
   23MOL   C33714901   6.412   1.761   6.529 -0.0134 -0.0414 -0.1849
   23MOL   C33814902   6.477   1.618   6.540  0.2286  0.4387  0.1874
   23MOL   C33914903   6.443   1.523   6.421 -0.1554 -0.1509  0.9795
   23MOL   C34014904   6.491   1.377   6.440 -0.8730 -0.1688  0.5134
   23MOL   C34114905   6.439   1.296   6.319  0.4325 -0.3447 -0.7961
   23MOL   C34214906   6.477   1.142   6.340 -0.5891 -0.2514 -0.2773
   23MOL   H34314907   6.586   2.382   6.281  0.0134 -0.1766  0.6379
   23MOL   H34414908   6.616   2.259   6.163  2.1190 -1.5254 -0.0586
   23MOL   H34514909   6.479   2.231   6.433  1.1527 -0.4580  0.3779
   23MOL   H34614910   6.592   2.025   6.277 -0.3087 -3.2975  0.5631
   23MOL   H34714911   6.426   2.027   6.229  1.8544 -0.9879 -0.7073
   23MOL   H34814912   6.499   2.010   6.523  1.1841  2.6832 -1.6251
   23MOL   H34914913   6.340   2.004   6.433  0.1018  2.3595 -0.9101
   23MOL   H35014914   6.441   1.796   6.313  1.4593 -1.9976  1.3579
   23MOL   H35114915   6.587   1.823   6.407  0.9667 -0.3816 -0.9193
   23MOL   H35214916   6.303   1.753   6.523 -0.0987 -0.7766  1.7524
   23MOL   H35314917   6.424   1.805   6.628  0.5930  0.8697 -0.6611
   23MOL   H35414918   6.435   1.572   6.629  1.3987 -0.5239  0.2522
   23MOL   H35514919   6.584   1.615   6.556 -0.1256 -3.6117  2.7251
   23MOL   H35614920   6.335   1.537   6.414  0.1499  3.8818  2.6812
   23MOL   H35714921   6.487   1.577   6.337 -0.6248  0.0112  0.8370
   23MOL   H35814922   6.471   1.341   6.541  1.9251 -0.9572  0.8288
   23MOL   H35914923   6.600   1.376   6.439 -0.8183 -2.8058  2.9447
   23MOL   H36014924   6.501   1.332   6.236  1.1696  2.2235  0.8155
   23MOL   H36114925   6.337   1.324   6.292 -0.0709 -1.0370  0.3468
   23MOL   H36214926   6.403   1.082   6.288  1.1022  0.0077 -3.0590
   23MOL   H36314927   6.572   1.113   6.296 -0.0548  2.2396 -0.8546
   23MOL   H36414928   6.471   1.112   6.445  0.2994  0.3403 -0.0510
   23MOL   C36514929   6.351   2.266   6.263  0.5248 -0.6624 -0.5885
   23MOL   C36614930   6.310   2.400   6.326 -0.0266  0.0011  0.2472
   23MOL   C36714931   6.272   2.502   6.214 -0.3882  0.6409  0.1210
   23MOL   C36814932   6.389   2.584   6.158 -0.2662  0.3949  0.1055
   23MOL   C36914933   6.463   2.672   6.268 -1.0069  0.6934  0.2431
   23MOL   C37014934   6.571   2.777   6.216 -0.1458 -0.2319  0.3928
   23MOL   C37114935   6.508   2.898   6.157 -1.0988 -0.5272 -0.0454
   23MOL   C37214936   6.610   2.989   6.081  0.4214 -0.6004  0.1490
   23MOL   C37314937   6.559   3.124   6.028 -0.1402 -0.5038  0.0259
   23MOL   C37414938   6.667   3.189   5.948  1.1855  0.3750  0.4866
   23MOL   C37514939   6.637   3.326   5.897 -0.1730 -0.3964  0.5711
   23MOL   H37614940   6.370   2.279   6.157  2.4578 -1.5018 -0.3677
   23MOL   H37714941   6.272   2.191   6.273 -0.9511  0.4829 -3.1064
   23MOL   H37814942   6.395   2.447   6.377 -0.5992  0.9638  0.3114
   23MOL   H37914943   6.179   2.554   6.239 -0.9288 -0.0343 -0.4848
   23MOL   H38014944   6.241   2.446   6.126 -0.2405  2.6074 -1.2214
   23MOL   H38114945   6.354   2.665   6.094 -0.0002 -0.3308 -0.9482
   23MOL   H38214946   6.457   2.516   6.108 -1.1271 -2.2648  2.4118
   23MOL   H38314947   6.508   2.626   6.356 -0.1925  0.7573 -0.1299
   23MOL   H38414948   6.381   2.728   6.313 -1.5532  1.2787 -1.4317
   23MOL   H38514949   6.645   2.729   6.153  1.6943  0.0797  2.2525
   23MOL   H38614950   6.620   2.806   6.309  0.8997 -1.2230  0.1619
   23MOL   H38714951   6.424   2.868   6.094 -0.8559 -0.3493 -0.4592
   23MOL   H38814952   6.467   2.960   6.236 -1.5690  0.0039 -0.6951
   23MOL   H38914953   6.643   2.922   6.001  1.0491  0.6623 -0.6643
   23MOL   H39014954   6.692   3.001   6.152  0.6213 -2.2868  0.2255
   23MOL   H39114955   6.468   3.115   5.968  0.5357  2.1935 -1.5025
   23MOL   H39214956   6.530   3.180   6.117  1.3557  1.2234 -0.5499
   23MOL   H39314957   6.754   3.201   6.013  0.7097  0.6930  1.0634
   23MOL   H39414958   6.695   3.136   5.856 -2.1543  0.4821 -0.6655
   23MOL   H39514959   6.534   3.336   5.863 -0.1888 -0.2694  0.6539
   23MOL   H39614960   6.701   3.365   5.818  0.8799 -1.3483  0.9359
   23MOL   H39714961   6.651   3.399   5.977  0.4425 -2.0837  2.0400
   23MOL   C39814962   6.195   2.375   6.421  0.7953 -0.4632  0.8309
   23MOL   C39914963   6.167   2.499   6.514 -0.2968 -0.1955  0.2365
   23MOL   C40014964   6.287   2.499   6.614 -0.4289  0.4552 -0.2187
   23MOL   C40114965   6.330   2.640   6.660 -0.4117  0.4404 -0.0029
   23MOL   C40214966   6.453   2.647   6.750  0.4951  0.5563 -0.5398
   23MOL   C40314967   6.513   2.783   6.757  0.9347 -0.2030  0.5701
   23MOL   C40414968   6.594   2.819   6.625  0.4038  0.6369 -0.1757
   23MOL   C40514969   6.644   2.960   6.653 -0.5365  0.0442 -0.6837
   23MOL   C40614970   6.732   3.015   6.538 -0.5545 -0.4491  0.3016
   23MOL   C40714971   6.785   3.160   6.553  0.0773  0.8895 -0.2433
   23MOL   C40814972   6.833   3.217   6.419 -0.2485 -0.3438  0.3758
   23MOL   H40914973   6.222   2.292   6.487  2.2339  1.0868  2.2629
   23MOL   H41014974   6.107   2.348   6.363  0.3682 -0.2356  1.3670
   23MOL   H41114975   6.161   2.582   6.444 -0.7112 -0.6310 -0.2541
   23MOL   H41214976   6.376   2.451   6.574 -1.2252 -1.1049 -0.1366
   23MOL   H41314977   6.247   2.451   6.703 -0.7836 -0.7941 -1.0438
   23MOL   H41414978   6.353   2.704   6.575  1.8094 -1.0331 -0.5449
   23MOL   H41514979   6.249   2.688   6.715 -0.9251 -2.4413  1.8386
   23MOL   H41614980   6.430   2.598   6.845  0.7911  1.3230 -0.0645
   23MOL   H41714981   6.524   2.578   6.704  1.9121  1.8525 -0.3688
   23MOL   H41814982   6.567   2.793   6.851  0.1657  1.3005  0.8757
   23MOL   H41914983   6.435   2.858   6.772  2.2967  1.0831  1.3106
   23MOL   H42014984   6.671   2.743   6.622  2.2232  2.3825  0.7364
   23MOL   H42114985   6.533   2.823   6.535  1.8645  0.2313 -1.2090
   23MOL   H42214986   6.705   2.982   6.740 -3.5769  2.6094  0.9208
   23MOL   H42314987   6.558   3.026   6.666 -0.6910  0.1695 -2.2250
   23MOL   H42414988   6.823   2.957   6.523  1.8720  3.0331  0.8440
   23MOL   H42514989   6.677   3.006   6.444 -0.6450  2.0389  0.0829
   23MOL   H42614990   6.857   3.174   6.634 -0.6503 -0.9285  0.7541
   23MOL   H42714991   6.703   3.225   6.586 -0.1900 -0.5020  1.9694
   23MOL   H42814992   6.924   3.165   6.389 -0.2770  0.4312 -1.1055
   23MOL   H42914993   6.858   3.322   6.433  2.5729 -0.7425 -1.4031
   23MOL   H43014994   6.761   3.207   6.338 -0.5622  0.0610  0.6005
   23MOL   C43114995   6.034   2.479   6.589 -0.2207  0.5567  0.5327
   23MOL   C43214996   5.911   2.507   6.510  0.0947 -0.8374  0.2602
   23MOL   C43314997   5.891   2.656   6.499  0.1616  0.6010  0.1193
   23MOL   C43414998   5.851   2.734   6.627 -0.1970 -0.8724 -0.7861
   23MOL   C43514999   5.878   2.882   6.627 -0.2983  1.0869 -0.1144
   23MOL   C43615000   5.830   2.951   6.497 -0.7645  0.3604  0.6444
   23MOL   C43715001   5.868   3.101   6.497 -0.0774 -0.5267  0.0764
   23MOL   C43815002   5.834   3.177   6.371  0.5543  0.5244 -0.2608
   23MOL   C43915003   5.905   3.315   6.364  0.4885 -0.9865 -0.5688
   23MOL   C44015004   5.855   3.407   6.251 -0.5917 -0.6306 -0.0017
   23MOL   C44115005   5.948   3.525   6.233  0.2998 -0.0438  0.3850
   23MOL   H44215006   6.020   2.515   6.691 -1.6108  2.4619 -0.3096
   23MOL   H44315007   6.029   2.373   6.610 -1.4702  0.4278 -0.3643
   23MOL   H44415008   5.918   2.473   6.407  1.3485  1.5646 -0.5021
   23MOL   H44515009   5.981   2.704   6.460 -0.4113 -0.0898 -2.1295
   23MOL   H44615010   5.819   2.663   6.418  1.1374  0.6120 -0.7563
   23MOL   H44715011   5.905   2.708   6.718  0.8045 -0.2657 -1.1931
   23MOL   H44815012   5.746   2.710   6.646 -0.2174 -0.6658 -0.6317
   23MOL   H44915013   5.987   2.892   6.624  0.0351 -1.8273  0.7542
   23MOL   H45015014   5.839   2.931   6.716 -1.1926  0.2553 -0.0475
   23MOL   H45115015   5.723   2.936   6.484 -0.3766 -2.6783  0.5304
   23MOL   H45215016   5.879   2.903   6.412 -1.9099 -1.1147  0.7837
   23MOL   H45315017   5.976   3.107   6.512  0.5292 -0.5846 -3.6881
   23MOL   H45415018   5.814   3.148   6.579 -0.0346 -0.8178  0.2711
   23MOL   H45515019   5.845   3.121   6.278 -1.7762 -1.2500  0.4906
   23MOL   H45615020   5.728   3.197   6.390  0.6403  2.1090 -1.2955
   23MOL   H45715021   6.007   3.281   6.343  0.1661 -0.3343 -3.5286
   23MOL   H45815022   5.911   3.367   6.459 -0.9156 -2.1882  0.1749
   23MOL   H45915023   5.760   3.447   6.287 -0.1761 -0.0827  0.5040
   23MOL   H46015024   5.849   3.356   6.155  1.7396 -1.1027  0.0917
   23MOL   H46115025   6.053   3.503   6.212  0.5532  2.6053 -1.5227
   23MOL   H46215026   5.930   3.585   6.143  0.6479 -1.7487 -0.8508
   23MOL   H46315027   5.936   3.589   6.320 -0.2531 -0.5616  0.6923
   23MOL   C46415028   5.787   2.427   6.561  0.2235  0.1145  0.2478
   23MOL   C46515029   5.788   2.271   6.533  0.5720 -0.4024  0.2513
   23MOL   C46615030   5.722   2.187   6.647 -0.2932  0.2847  0.4545
   23MOL   C46715031   5.574   2.199   6.664 -0.1138  0.1159  1.2706
   23MOL   C46815032   5.504   2.122   6.777  0.0494  0.3146 -0.5541
   23MOL   C46915033   5.354   2.143   6.772 -0.4143 -0.2576 -0.5685
   23MOL   C47015034   5.278   2.023   6.830 -0.0919 -0.3267  0.4053
   23MOL   C47115035   5.130   2.037   6.812  0.1416 -0.5359 -0.3135
   23MOL   C47215036   5.064   2.149   6.899  0.5624  0.4055  0.5974
   23MOL   C47315037   4.911   2.130   6.895 -0.5913 -0.3384 -0.1353
   23MOL   C47415038   4.842   2.263   6.926 -0.4699  0.6462  0.9028
   23MOL   H47515039   5.706   2.452   6.492  0.9657  0.6152 -0.4646
   23MOL   H47615040   5.764   2.447   6.665 -0.6269 -1.5930  0.3875
   23MOL   H47715041   5.892   2.242   6.548  0.3756 -0.9383  0.5783
   23MOL   H47815042   5.771   2.214   6.740 -0.4736 -2.0318  1.2682
   23MOL   H47915043   5.748   2.084   6.622 -4.2351 -0.9288  1.1522
   23MOL   H48015044   5.548   2.301   6.693 -0.6271  0.1722  0.6179
   23MOL   H48115045   5.521   2.184   6.570  1.7040  1.5595 -0.0164
   23MOL   H48215046   5.540   2.146   6.877  1.9908 -1.6083 -0.7422
   23MOL   H48315047   5.531   2.016   6.771  0.2464  0.2114  1.8067
   23MOL   H48415048   5.320   2.238   6.814  1.0186 -1.1899  2.8991
   23MOL   H48515049   5.327   2.157   6.668  2.6947  1.9198 -1.1638
   23MOL   H48615050   5.300   1.928   6.783 -2.4309 -0.6086 -0.1889
   23MOL   H48715051   5.300   2.005   6.935  0.4476 -0.7613  0.2139
   23MOL   H48815052   5.111   2.054   6.706 -1.1190 -0.4536 -0.0860
   23MOL   H48915053   5.098   1.936   6.838 -0.2619 -0.7433 -1.5710
   23MOL   H49015054   5.106   2.148   7.000  2.3246  0.6701 -0.1167
   23MOL   H49115055   5.082   2.248   6.856 -2.2232  1.2503  1.2777
   23MOL   H49215056   4.873   2.102   6.797 -0.5924 -0.5330 -0.0777
   23MOL   H49315057   4.885   2.054   6.968  0.1317 -1.3485 -0.9048
   23MOL   H49415058   4.889   2.322   7.004  2.5280  2.9184 -2.4815
   23MOL   H49515059   4.735   2.243   6.930 -0.4972  0.3087 -0.9596
   23MOL   H49615060   4.840   2.336   6.845  1.7801  0.4930  0.6753
   23MOL   C49715061   5.747   2.236   6.390 -0.3432 -0.2813 -0.2664
   23MOL   C49815062   5.758   2.088   6.337  0.3219 -0.1976 -0.3841
   23MOL   C49915063   5.907   2.042   6.333 -0.1167 -0.2370 -0.0601
   23MOL   C50015064   5.939   1.892   6.310  0.1249 -0.8209  0.6367
   23MOL   C50115065   6.085   1.863   6.324  0.4562  0.3345  0.2951
   23MOL   C50215066   6.117   1.724   6.267 -0.1585 -0.5240  0.8593
   23MOL   C50315067   6.137   1.722   6.119 -0.5247 -0.2432 -0.1434
   23MOL   C50415068   6.164   1.585   6.065  0.0729  0.1992 -0.7835
   23MOL   C50515069   6.057   1.472   6.087  0.2601  0.0842  0.2880
   23MOL   C50615070   6.096   1.334   6.029  0.8904  0.2330  0.7415
   23MOL   C50715071   6.123   1.342   5.874 -0.0584  0.8601  0.2832
   23MOL   H50815072   5.646   2.276   6.381 -0.3557  0.1216  1.4996
   23MOL   H50915073   5.808   2.291   6.319  0.0090 -0.8551 -0.4135
   23MOL   H51015074   5.719   2.023   6.415 -0.9303  1.3894  0.3375
   23MOL   H51115075   5.945   2.071   6.431  2.6100 -2.3945 -0.4212
   23MOL   H51215076   5.964   2.106   6.265 -1.6604  1.9398  0.6469
   23MOL   H51315077   5.898   1.854   6.217  0.6431 -0.4494  0.2510
   23MOL   H51415078   5.886   1.835   6.386 -1.5715 -0.9736 -0.6363
   23MOL   H51515079   6.137   1.941   6.269  2.4607 -1.1905 -0.0366
   23MOL   H51615080   6.123   1.874   6.426  2.4146  0.8037 -0.4560
   23MOL   H51715081   6.214   1.697   6.310 -0.2594  0.1657  1.5282
   23MOL   H51815082   6.040   1.661   6.312  0.4162 -1.1030  1.0511
   23MOL   H51915083   6.055   1.776   6.071 -0.4189  0.1884  0.1574
   23MOL   H52015084   6.219   1.790   6.097  1.3301 -2.1781  0.7083
   23MOL   H52115085   6.260   1.555   6.107 -0.5499  1.0758  1.2970
   23MOL   H52215086   6.184   1.603   5.959 -0.1909  2.2196 -0.5160
   23MOL   H52315087   5.957   1.501   6.054  0.4184  0.0794 -0.2080
   23MOL   H52415088   6.045   1.445   6.192  1.3077  0.2064  0.4405
   23MOL   H52515089   6.018   1.260   6.049  2.1918 -1.7767 -1.4356
   23MOL   H52615090   6.189   1.307   6.079  0.9933  0.6350  0.7661
   23MOL   H52715091   6.199   1.420   5.873  2.6521 -1.7314 -0.4092
   23MOL   H52815092   6.035   1.375   5.819  0.1070  2.7153  1.0803
   23MOL   H52915093   6.168   1.251   5.836 -1.7684  1.1774 -2.6594
   23MOL   C53015094   5.688   2.073   6.202  0.1231 -0.5209  0.3467
   23MOL   C53115095   5.532   2.056   6.198 -0.3083 -0.5140  0.2489
   23MOL   C53215096   5.502   1.920   6.259  0.1341  0.4877  0.6427
   23MOL   C53315097   5.416   1.915   6.388  0.0237 -0.2022 -0.4688
   23MOL   C53415098   5.373   1.768   6.430 -0.1053 -0.4162 -0.4035
   23MOL   C53515099   5.260   1.740   6.522 -0.2883 -0.4028 -0.3226
   23MOL   C53615100   5.126   1.790   6.465  0.0027  0.6525  0.4517
   23MOL   C53715101   5.006   1.788   6.571 -0.2450  0.2936 -0.5651
   23MOL   C53815102   4.960   1.640   6.583 -0.5406 -0.8432 -0.1041
   23MOL   C53915103   4.848   1.620   6.679  0.2354 -0.6366 -0.2202
   23MOL   C54015104   4.767   1.489   6.648 -0.2387  0.1849 -0.5952
   23MOL   H54115105   5.694   2.170   6.152 -1.6553 -0.2338  0.6450
   23MOL   H54215106   5.733   1.991   6.146  1.2429  1.2949 -1.4777
   23MOL   H54315107   5.477   2.137   6.246 -0.3568  0.2364 -1.0597
   23MOL   H54415108   5.601   1.878   6.277 -0.9359 -1.0823  3.0965
   23MOL   H54515109   5.459   1.855   6.183 -0.1543  1.4694 -0.0422
   23MOL   H54615110   5.321   1.968   6.377 -2.1448 -4.0095 -1.0393
   23MOL   H54715111   5.471   1.960   6.471 -1.3101  1.5788 -0.5143
   23MOL   H54815112   5.459   1.714   6.470 -0.0715 -1.8196 -2.2773
   23MOL   H54915113   5.351   1.721   6.334  2.1296  0.5917 -1.4520
   23MOL   H55015114   5.274   1.787   6.620 -1.5336  0.1105 -0.3773
   23MOL   H55115115   5.259   1.634   6.548  0.9681 -0.4758 -0.5387
   23MOL   H55215116   5.099   1.724   6.382 -0.1438  0.1086  0.9294
   23MOL   H55315117   5.130   1.891   6.423 -0.7082  1.5200  2.4184
   23MOL   H55415118   4.922   1.845   6.532  0.2127 -0.4277 -2.6709
   23MOL   H55515119   5.052   1.824   6.663  0.7960 -0.8118 -0.6350
   23MOL   H55615120   5.025   1.554   6.595 -0.1671 -0.4575  0.6968
   23MOL   H55715121   4.925   1.601   6.488  0.1703  2.2694 -1.7328
   23MOL   H55815122   4.782   1.708   6.678  0.2840 -0.5977  0.0023
   23MOL   H55915123   4.897   1.610   6.776 -1.6592 -1.7323  0.6575
   23MOL   H56015124   4.681   1.473   6.714 -1.5494 -0.5741 -2.4246
   23MOL   H56115125   4.725   1.482   6.548  2.0797 -1.5854 -1.4822
   23MOL   H56215126   4.833   1.405   6.664 -0.9375 -0.0760  1.0101
   23MOL   C56315127   5.479   2.062   6.050 -0.0936  0.3979  0.7094
   23MOL   C56415128   5.328   2.090   6.038  0.4124 -0.4520 -0.5758
   23MOL   C56515129   5.276   2.013   5.922  0.7151  0.9102  0.6061
   23MOL   C56615130   5.269   2.083   5.779  0.1074 -0.0877 -0.4695
   23MOL   C56715131   5.294   1.984   5.659 -0.0285 -0.5094  0.7236
   23MOL   C56815132   5.182   1.874   5.647 -0.8597 -0.7785 -0.4926
   23MOL   C56915133   5.207   1.797   5.523 -0.2995 -0.0922 -0.2357
   23MOL   C57015134   5.276   1.668   5.555 -0.0409  0.6036 -0.5285
   23MOL   C57115135   5.177   1.567   5.619  0.1213 -0.0991 -0.5145
   23MOL   C57215136   5.240   1.436   5.649 -0.6198  0.5297 -0.0430
   23MOL   C57315137   5.359   1.417   5.740 -0.3754  0.9420 -0.1257
   23MOL   H57415138   5.504   1.976   5.988  0.0032  1.1665 -0.3334
   23MOL   H57515139   5.531   2.146   6.006 -0.7213  0.1940 -0.4456
   23MOL   H57615140   5.286   2.046   6.129  1.1487  1.0278  0.5044
   23MOL   H57715141   5.173   1.986   5.945  0.3682  1.3730 -0.3553
   23MOL   H57815142   5.318   1.913   5.913 -3.0669 -0.6778 -0.8626
   23MOL   H57915143   5.340   2.165   5.768  0.9165 -0.8181 -0.7483
   23MOL   H58015144   5.171   2.131   5.772  0.8913  2.3094  3.5811
   23MOL   H58115145   5.397   1.950   5.665  0.3227  0.9714  3.5542
   23MOL   H58215146   5.286   2.044   5.568  1.3316  1.9227  2.1727
   23MOL   H58315147   5.174   1.810   5.736  2.2043 -0.2813  0.1850
   23MOL   H58415148   5.082   1.917   5.642 -0.2083  0.5778 -2.4310
   23MOL   H58515149   5.112   1.768   5.478 -0.1770  0.1058 -0.6208
   23MOL   H58615150   5.263   1.849   5.445  0.0216 -0.7830 -0.4738
   23MOL   H58715151   5.361   1.688   5.620  0.2686 -2.3092  0.0225
   23MOL   H58815152   5.323   1.636   5.462  0.5129  2.0678 -0.7671
   23MOL   H58915153   5.094   1.550   5.549 -1.4508  0.9442  1.0619
   23MOL   H59015154   5.133   1.612   5.708 -0.4509 -2.5146  0.4921
   23MOL   H59115155   5.252   1.372   5.561  0.6987 -0.5127  0.8745
   23MOL   H59215156   5.171   1.383   5.714 -1.4963  0.5040 -0.9770
   23MOL   H59315157   5.365   1.309   5.753 -0.2596  1.1648  1.7118
   23MOL   H59415158   5.454   1.455   5.702  2.5854 -4.5207  1.3440
   23MOL   H59515159   5.333   1.456   5.838 -1.8529  2.1034 -0.9515
   23MOL   C59615160   5.282   2.240   6.047  0.4809 -0.0685  0.4087
   23MOL   C59715161   5.131   2.271   6.034  0.5769  0.3781  0.1343
   23MOL   C59815162   5.113   2.418   5.988 -0.3853  0.0836  0.7510
   23MOL   C59915163   5.129   2.448   5.838 -0.3931 -0.0457 -0.0841
   23MOL   C60015164   5.081   2.589   5.802  0.4632  0.2339 -0.6648
   23MOL   C60115165   5.077   2.622   5.656 -0.1655  0.1635  0.9564
   23MOL   C60215166   5.060   2.772   5.626 -0.1600 -0.3274  0.0198
   23MOL   C60315167   5.033   2.804   5.481  0.7367  1.1033 -0.8636
   23MOL   C60415168   5.051   2.952   5.456  0.1740 -0.6853  0.6275
   23MOL   C60515169   5.017   2.999   5.317  0.0855  0.4632 -0.9011
   23MOL   C60615170   5.066   2.913   5.199  0.1047 -0.1672  0.5651
   23MOL   H60715171   5.322   2.274   6.143  2.8505  1.4190 -1.0611
   23MOL   H60815172   5.332   2.303   5.974 -0.3120 -1.0506 -0.9910
   23MOL   H60915173   5.088   2.203   5.961  0.5415  1.7184 -1.1241
   23MOL   H61015174   5.181   2.472   6.053  0.5580 -1.5094  1.1373
   23MOL   H61115175   5.012   2.446   6.017 -0.6789 -1.2310  1.0229
   23MOL   H61215176   5.082   2.375   5.772 -0.4639 -0.7970  0.8021
   23MOL   H61315177   5.233   2.433   5.810 -1.2695 -2.6425 -2.1144
   23MOL   H61415178   5.145   2.662   5.851  0.9811 -1.1476  0.7687
   23MOL   H61515179   4.985   2.608   5.850  0.6572  1.9286 -0.9405
   23MOL   H61615180   5.162   2.580   5.604  0.6515  1.6640  1.0637
   23MOL   H61715181   4.982   2.576   5.628 -0.1202  1.3223 -1.1941
   23MOL   H61815182   5.149   2.824   5.659 -0.0437  0.2887 -1.2545
   23MOL   H61915183   4.971   2.815   5.672  0.0137 -0.3337  0.3618
   23MOL   H62015184   4.930   2.782   5.455  0.6750  1.1771 -0.6814
   23MOL   H62115185   5.093   2.738   5.418  1.4265 -0.3633  1.2444
   23MOL   H62215186   4.988   3.009   5.525  1.8854 -0.1498  1.7731
   23MOL   H62315187   5.152   2.985   5.479  0.4082 -0.1529 -1.1058
   23MOL   H62415188   5.031   3.107   5.315 -0.7608  0.6078  0.4145
   23MOL   H62515189   4.911   2.976   5.312  0.2241 -0.2132 -0.7934
   23MOL   H62615190   5.024   2.943   5.102  0.4356  0.2900  0.5602
   23MOL   H62715191   5.174   2.913   5.180  0.2429 -2.2190  1.3113
   23MOL   H62815192   5.047   2.807   5.215  0.1554 -0.5828 -1.8629
   23MOL   C62915193   5.059   2.249   6.165  0.3304 -0.0714 -0.1487
   23MOL   C63015194   4.908   2.219   6.143 -0.3224 -0.5920  0.5490
   23MOL   C63115195   4.854   2.141   6.268  0.2317  0.8697 -0.4179
   23MOL   C63215196   4.712   2.084   6.257  0.3057 -0.2822  0.3111
   23MOL   C63315197   4.687   1.937   6.317  0.5065 -0.1522  0.1466
   23MOL   C63415198   4.779   1.833   6.251 -0.4153  0.0452 -0.0137
   23MOL   C63515199   4.754   1.684   6.273 -0.2547 -0.3267 -0.1851
   23MOL   C63615200   4.653   1.608   6.191 -0.1102 -0.0428 -0.2601
   23MOL   C63715201   4.650   1.454   6.212 -0.0418 -0.1336 -0.0038
   23MOL   C63815202   4.583   1.376   6.103  0.4419  0.3310 -0.4287
   23MOL   C63915203   4.585   1.228   6.147  0.0449 -0.0354  0.1568
   23MOL   H64015204   5.104   2.166   6.219 -1.0772  0.2087  1.4932
   23MOL   H64115205   5.065   2.339   6.227  1.4780 -0.0131 -0.3300
   23MOL   H64215206   4.840   2.297   6.108 -0.9617 -2.1495 -1.8191
   23MOL   H64315207   4.931   2.073   6.304  1.4560  1.6934 -1.4371
   23MOL   H64415208   4.856   2.198   6.361 -3.1092 -1.5403  1.2373
   23MOL   H64515209   4.679   2.097   6.154  0.4464  1.8527  0.5135
   23MOL   H64615210   4.643   2.143   6.318  1.1851  1.5587 -0.4547
   23MOL   H64715211   4.581   1.921   6.298  0.3813 -0.3133  0.9519
   23MOL   H64815212   4.706   1.941   6.424  0.3657  0.4398  0.1541
   23MOL   H64915213   4.876   1.856   6.295  0.2564 -0.5198 -1.1948
   23MOL   H65015214   4.785   1.853   6.144  1.1977  1.1516  0.2625
   23MOL   H65115215   4.734   1.672   6.380  2.1360  0.4288  0.3732
   23MOL   H65215216   4.850   1.633   6.260  0.5680  1.2343 -0.2675
   23MOL   H65315217   4.699   1.617   6.092 -0.0927 -2.3278 -0.4900
   23MOL   H65415218   4.556   1.658   6.193 -0.5888 -0.9670 -0.3957
   23MOL   H65515219   4.591   1.436   6.302  1.9431  2.1867  1.8354
   23MOL   H65615220   4.752   1.422   6.234  0.2574  2.1874  2.2683
   23MOL   H65715221   4.638   1.385   6.010  3.1664 -1.3515  0.9376
   23MOL   H65815222   4.482   1.407   6.079 -0.4125 -2.2646 -0.3545
   23MOL   H65915223   4.516   1.180   6.078  0.5721 -0.8997  0.2261
   23MOL   H66015224   4.544   1.213   6.247  0.8516 -2.0310  0.2128
   23MOL   H66115225   4.684   1.182   6.138  0.9418  2.1688 -1.6611
   23MOL   H66215226   4.907   2.147   6.062  1.9422 -0.8106  0.6880
   24MOL     C115227   4.405   6.893   0.528  0.1754 -0.0389 -0.1927
   24MOL     C215228   4.283   6.916   0.625 -0.0173  0.2747  0.4691
   24MOL     C315229   4.153   6.839   0.577 -0.5314 -0.6165 -0.4093
   24MOL     C415230   4.128   6.693   0.617  0.1729  0.3738  0.1807
   24MOL     C515231   3.995   6.630   0.570 -0.5563 -0.5572  0.4611
   24MOL     C615232   3.998   6.586   0.426 -0.4225  1.0611 -0.2457
   24MOL     C715233   3.860   6.536   0.384 -0.6323 -0.4570 -0.3404
   24MOL     C815234   3.838   6.548   0.238  0.4122  0.2030  0.3564
   24MOL     C915235   3.696   6.507   0.193  0.1035  0.4023 -0.4006
   24MOL    C1015236   3.674   6.537   0.046 -0.8204 -0.4108  0.3481
   24MOL    C1115237   3.658   6.687   0.004 -0.1465 -0.0816 -0.5902
   24MOL    H1215238   4.421   6.786   0.511 -0.4442  0.0377 -1.3534
   24MOL    H1315239   4.493   6.949   0.559 -1.3138  2.0152  0.4152
   24MOL    H1415240   4.257   7.020   0.602  0.4483  0.1333 -0.7647
   24MOL    H1515241   4.154   6.839   0.468  0.7346 -1.0682 -0.4068
   24MOL    H1615242   4.068   6.890   0.622  2.3614  1.2569  3.1602
   24MOL    H1715243   4.127   6.667   0.723 -1.9488 -1.1416 -0.1910
   24MOL    H1815244   4.204   6.629   0.571 -2.5894 -2.1109 -1.0726
   24MOL    H1915245   3.982   6.537   0.626  2.0625 -1.0656  0.3033
   24MOL    H2015246   3.912   6.695   0.596  1.1701  1.8066  0.2338
   24MOL    H2115247   4.059   6.497   0.410  0.3687  1.8703 -1.9019
   24MOL    H2215248   4.040   6.664   0.362  0.6150 -1.1527 -2.3442
   24MOL    H2315249   3.842   6.436   0.424 -0.6635 -0.0396  0.7082
   24MOL    H2415250   3.785   6.603   0.426 -0.3994 -0.6917  0.4480
   24MOL    H2515251   3.908   6.482   0.186  0.4592 -0.7750  1.6417
   24MOL    H2615252   3.860   6.647   0.199  0.2698 -0.2788 -0.9923
   24MOL    H2715253   3.624   6.570   0.246 -0.6574 -0.2137 -0.7133
   24MOL    H2815254   3.686   6.400   0.210 -1.5721  0.9046  1.9436
   24MOL    H2915255   3.578   6.485   0.044 -0.4895 -1.0882  1.2945
   24MOL    H3015256   3.735   6.476   7.682  1.2820 -0.8393  2.5393
   24MOL    H3115257   3.581   6.743   0.056 -1.0503 -1.9454  0.1492
   24MOL    H3215258   3.746   6.751   7.701  0.9571 -1.0990  3.2091
   24MOL    H3315259   3.611   6.688   7.609 -0.1975 -1.2395 -0.5880
   24MOL    H3415260   4.391   6.930   0.427 -0.0634 -0.6099 -0.3715
   24MOL    C3515261   4.307   6.898   0.778  0.8060 -0.4959  0.1177
   24MOL    C3615262   4.244   7.007   0.866  0.3976  0.4703 -0.0258
   24MOL    C3715263   4.243   6.962   1.004  0.1223  0.2592 -0.3215
   24MOL    C3815264   4.148   7.047   1.084  0.3284  0.2769 -0.2514
   24MOL    C3915265   3.995   7.032   1.049  0.2098 -0.2217  0.3571
   24MOL    C4015266   3.894   7.050   1.170 -0.6818 -0.3926  0.3533
   24MOL    C4115267   3.886   7.194   1.226  0.0164 -0.2122  0.0195
   24MOL    C4215268   3.754   7.228   1.312 -0.0389 -0.2211  0.0223
   24MOL    C4315269   3.622   7.194   1.239  0.1627  0.1978  0.4971
   24MOL    C4415270   3.503   7.245   1.326 -0.3212  0.4143 -0.0183
   24MOL    C4515271   3.485   7.398   1.302 -0.3848  0.0450  0.1651
   24MOL    H4615272   4.413   6.907   0.800  0.5138  0.6041  1.1316
   24MOL    H4715273   4.269   6.800   0.808 -0.8878  0.1703  0.2036
   24MOL    H4815274   4.141   7.023   0.833 -0.3835  2.1856  3.1260
   24MOL    H4915275   4.230   6.854   1.008 -1.4275  0.4832  1.2596
   24MOL    H5015276   4.347   6.966   1.039 -0.6660  1.1414  2.0027
   24MOL    H5115277   4.180   7.152   1.083  1.2951  0.0106  1.2133
   24MOL    H5215278   4.159   7.037   1.192  0.4251  0.0095 -0.2863
   24MOL    H5315279   3.969   6.941   0.995  0.5250 -0.6711  0.9513
   24MOL    H5415280   3.973   7.116   0.984  2.8301 -1.0699 -1.7185
   24MOL    H5515281   3.920   6.981   1.250  1.5263  1.0573  0.9041
   24MOL    H5615282   3.796   7.022   1.132  0.0279  2.4545 -3.8562
   24MOL    H5715283   3.978   7.219   1.277 -1.2942  0.1525  2.2744
   24MOL    H5815284   3.890   7.267   1.145  0.2217  0.7610  0.8943
   24MOL    H5915285   3.765   7.334   1.337  0.1328 -0.7156  2.1560
   24MOL    H6015286   3.761   7.180   1.409  0.2630  0.7542  0.4885
   24MOL    H6115287   3.613   7.086   1.221 -0.0540  0.1519  0.8875
   24MOL    H6215288   3.631   7.236   1.139 -0.6778 -0.3614  0.1823
   24MOL    H6315289   3.413   7.187   1.310  1.1269 -1.3149 -2.2212
   24MOL    H6415290   3.538   7.239   1.429 -1.4548  0.0371  0.3527
   24MOL    H6515291   3.400   7.437   1.357 -0.7166 -0.1333 -0.2161
   24MOL    H6615292   3.573   7.451   1.337  1.8545 -2.7753 -1.0079
   24MOL    H6715293   3.479   7.418   1.194  2.4102 -1.2238 -0.2508
   24MOL    C6815294   4.317   7.143   0.839  0.1251  0.1075 -0.4966
   24MOL    C6915295   4.226   7.275   0.823  0.1070  0.2621  0.3052
   24MOL    C7015296   4.294   7.406   0.882  0.7493  0.5824 -0.0147
   24MOL    C7115297   4.322   7.401   1.037 -0.4734  0.4476 -0.1132
   24MOL    C7215298   4.337   7.541   1.098  0.4864  0.0735  0.1114
   24MOL    C7315299   4.361   7.522   1.253 -0.7696 -0.5659  0.4991
   24MOL    C7415300   4.402   7.657   1.317  0.4729 -0.2587  1.0157
   24MOL    C7515301   4.455   7.661   1.459  0.4494  0.2163 -0.5466
   24MOL    C7615302   4.383   7.577   1.567 -0.0235 -0.1553 -0.6509
   24MOL    C7715303   4.425   7.623   1.717  0.1478 -0.1404  0.3765
   24MOL    C7815304   4.323   7.587   1.822  0.5528 -1.3537 -0.3539
   24MOL    H7915305   4.376   7.139   0.748 -0.1766 -2.4894 -0.6313
   24MOL    H8015306   4.387   7.163   0.920 -0.6452 -0.9505  0.4608
   24MOL    H8115307   4.129   7.258   0.869  0.0877  1.3514  0.6897
   24MOL    H8215308   4.240   7.498   0.861  2.7482  2.0278  1.0463
   24MOL    H8315309   4.390   7.429   0.835  1.6257 -0.3081  1.2969
   24MOL    H8415310   4.250   7.347   1.100 -0.5064  0.3761 -0.2124
   24MOL    H8515311   4.410   7.339   1.053  0.3337  1.8492  0.9546
   24MOL    H8615312   4.247   7.600   1.082  1.2357  1.2778  0.3277
   24MOL    H8715313   4.413   7.599   1.045  0.0638 -1.9961 -2.9053
   24MOL    H8815314   4.268   7.485   1.294 -2.8745 -0.7845 -4.1885
   24MOL    H8915315   4.436   7.446   1.275  0.4579  0.6727  0.7115
   24MOL    H9015316   4.317   0.021   1.319  2.3102  2.1359  0.3529
   24MOL    H9115317   4.478   0.003   1.256 -0.3414 -1.7909 -1.3082
   24MOL    H9215318   4.558   7.625   1.452  0.6166  0.4006  0.8567
   24MOL    H9315319   4.456   0.062   1.492 -0.9211 -0.0906  0.4908
   24MOL    H9415320   4.276   7.592   1.554  0.0065 -0.3319 -1.1177
   24MOL    H9515321   4.391   7.469   1.557 -0.8838 -0.2913  0.1433
   24MOL    H9615322   4.528   7.591   1.733  0.4738  0.1521 -1.0788
   24MOL    H9715323   4.441   0.027   1.714  1.6718 -0.3936 -2.0680
   24MOL    H9815324   4.239   7.655   1.808  0.0238 -2.2458 -1.5928
   24MOL    H9915325   4.353   7.596   1.927  0.0256  1.9552 -0.4427
   24MOL   H10015326   4.275   7.489   1.812 -0.2323 -0.9976 -0.0855
   24MOL   C10115327   4.185   7.298   0.675 -0.0057 -0.4510  0.1675
   24MOL   C10215328   4.084   7.419   0.647 -0.2878  0.3817 -0.1613
   24MOL   C10315329   3.955   7.414   0.729 -0.3883  0.6525  0.6277
   24MOL   C10415330   3.869   7.298   0.689 -0.2827  1.0873 -0.2547
   24MOL   C10515331   3.743   7.292   0.771  0.0807 -0.1393  0.2775
   24MOL   C10615332   3.625   7.373   0.720  0.3982 -0.4326  0.3910
   24MOL   C10715333   3.520   7.391   0.838 -0.1524 -0.3313  0.1154
   24MOL   C10815334   3.407   7.483   0.800 -0.8192 -0.1473  0.2148
   24MOL   C10915335   3.295   7.474   0.912 -0.0900  0.3059  0.0944
   24MOL   C11015336   3.163   7.544   0.867  0.3149  0.0020  0.0686
   24MOL   C11115337   3.070   7.555   0.990  0.0577 -0.2115  0.3255
   24MOL   H11215338   4.284   7.317   0.633 -0.3270  0.7519 -0.0625
   24MOL   H11315339   4.134   7.215   0.628 -0.6489  1.1215 -1.9862
   24MOL   H11415340   4.138   7.508   0.682  0.2615 -0.9006  2.3298
   24MOL   H11515341   3.972   7.404   0.836 -2.0844  2.0048  1.0376
   24MOL   H11615342   3.905   7.508   0.706  2.4597  1.5274 -2.3113
   24MOL   H11715343   3.842   7.322   0.586  3.3669  1.3236 -1.2260
   24MOL   H11815344   3.929   7.208   0.697 -1.0894  0.6487  0.8604
   24MOL   H11915345   3.717   7.186   0.778  0.8159 -0.3602 -0.3766
   24MOL   H12015346   3.770   7.318   0.874  0.3380 -2.1257  0.7472
   24MOL   H12115347   3.682   7.462   0.696 -0.2285 -0.0264  0.4117
   24MOL   H12215348   3.574   7.334   0.631 -0.0592  1.5171 -0.2195
   24MOL   H12315349   3.560   7.411   0.937  1.0737 -1.9504 -0.0161
   24MOL   H12415350   3.467   7.296   0.845 -0.2878 -0.4856 -2.3005
   24MOL   H12515351   3.442   7.586   0.793  2.5735 -1.2273  0.3718
   24MOL   H12615352   3.370   7.456   0.701 -0.3524  0.1590 -0.0484
   24MOL   H12715353   3.265   7.373   0.941  1.8497 -0.4451 -0.3839
   24MOL   H12815354   3.324   7.516   1.008 -2.6040 -1.8786  1.8861
   24MOL   H12915355   3.121   7.486   0.784 -2.8379 -2.1245  3.0201
   24MOL   H13015356   3.189   7.640   0.821  0.2387  0.2438  0.5258
   24MOL   H13115357   3.098   7.638   1.055  1.4211  1.6054 -2.5351
   24MOL   H13215358   2.967   7.580   0.965 -0.4882 -1.4842  1.2141
   24MOL   H13315359   3.085   7.466   1.053  0.0155  1.0284  2.1343
   24MOL   C13415360   4.050   7.435   0.489  0.1630 -0.3833  0.9867
   24MOL   C13515361   4.181   7.481   0.414  0.4410 -0.4521 -0.4699
   24MOL   C13615362   4.171   7.629   0.387 -0.0679  1.3931  0.7927
   24MOL   C13715363   4.058   7.676   0.282 -0.0074  0.2631 -0.1648
   24MOL   C13815364   4.021   0.123   0.306 -0.2906  0.0008 -0.6503
   24MOL   C13915365   3.903   0.167   0.223  0.3293  0.0731  0.0542
   24MOL   C14015366   3.866   0.308   0.260 -0.4779  0.4657 -0.6796
   24MOL   C14115367   3.751   0.364   0.171 -0.5683 -0.3875 -0.7406
   24MOL   C14215368   3.722   0.512   0.176 -0.1306  0.2166  0.0452
   24MOL   C14315369   3.683   0.559   0.313  0.7711  0.2145  0.5713
   24MOL   C14415370   3.545   0.514   0.369  0.4754  0.0366  0.2462
   24MOL   H14515371   4.015   7.343   0.442  3.1141 -2.1791  2.1708
   24MOL   H14615372   3.969   7.507   0.474  1.0594  1.0167  2.6157
   24MOL   H14715373   4.263   7.470   0.485 -0.9284 -1.0761  1.0483
   24MOL   H14815374   4.268   7.671   0.360  0.6123 -1.5968 -1.7738
   24MOL   H14915375   4.151   7.670   0.485  0.5462 -0.1748  1.6014
   24MOL   H15015376   4.072   7.660   0.175  2.0470  0.0170  0.1104
   24MOL   H15115377   3.966   7.619   0.282 -0.2329  0.6278  0.2861
   24MOL   H15215378   3.992   0.132   0.411  1.6700 -0.2618 -0.0514
   24MOL   H15315379   4.106   0.186   0.282  0.0439  0.3892  1.4497
   24MOL   H15415380   3.917   0.167   0.114 -1.4947 -2.4060 -0.2284
   24MOL   H15515381   3.821   0.100   0.250 -0.7782  1.7428  0.9526
   24MOL   H15615382   3.830   0.312   0.363  1.3108 -2.6214  0.1273
   24MOL   H15715383   3.948   0.376   0.241  1.3614 -0.6935  2.7288
   24MOL   H15815384   3.767   0.336   0.067  0.2288  1.7601 -1.2239
   24MOL   H15915385   3.658   0.310   0.187 -0.3882 -0.3052  0.6456
   24MOL   H16015386   3.812   0.567   0.147 -0.1648 -0.0119 -0.5065
   24MOL   H16115387   3.648   0.533   0.099 -1.8517  0.9170  1.8503
   24MOL   H16215388   3.752   0.528   0.392  0.5506  0.9012  1.0352
   24MOL   H16315389   3.693   0.667   0.321  1.0868  0.0902  2.0778
   24MOL   H16415390   3.535   0.530   0.476 -1.2709  0.5690  0.0194
   24MOL   H16515391   3.527   0.408   0.353  1.8518 -0.4029  1.5815
   24MOL   H16615392   3.475   0.569   0.305  1.2613 -1.2167 -1.7338
   24MOL   C16715393   4.205   7.400   0.282  0.5459  0.6048  0.6684
   24MOL   C16815394   4.252   7.252   0.297  0.4588  0.1112  0.2623
   24MOL   C16915395   4.403   7.246   0.277  0.2184 -0.2475  0.7389
   24MOL   C17015396   4.488   7.300   0.395  0.5564 -0.7200  0.3169
   24MOL   C17115397   4.637   7.260   0.387  0.0455 -0.2764  0.4671
   24MOL   C17215398   4.725   7.328   0.490 -0.6989 -0.6979  0.3963
   24MOL   C17315399   4.865   7.274   0.496  0.1897  0.1531 -0.6553
   24MOL   C17415400   4.942   7.310   0.623  0.1438  0.1358  0.2177
   24MOL   C17515401   5.071   7.228   0.637  0.2159 -0.4283 -0.2575
   24MOL   C17615402   5.131   7.218   0.776  0.6672 -0.0456  0.0721
   24MOL   C17715403   5.290   7.212   0.761  1.2300 -0.2316  0.3378
   24MOL   H17815404   4.110   7.407   0.228 -0.8105 -2.7804  2.4966
   24MOL   H17915405   4.267   7.455   0.211  0.7122 -0.4235  0.0097
   24MOL   H18015406   4.223   7.203   0.390 -0.7453  1.0138  0.3698
   24MOL   H18115407   4.423   7.291   0.180 -2.5798  1.7671  1.0524
   24MOL   H18215408   4.419   7.139   0.265 -0.1601 -0.3416  1.0704
   24MOL   H18315409   4.472   7.406   0.413  0.3103 -0.9803  1.6310
   24MOL   H18415410   4.451   7.250   0.484 -0.6261 -0.3888  0.0197
   24MOL   H18515411   4.674   7.297   0.292  0.0338  0.1723  0.6356
   24MOL   H18615412   4.654   7.152   0.388 -2.9717 -0.7941  0.5622
   24MOL   H18715413   4.725   7.435   0.467  0.6987 -0.8194 -0.2317
   24MOL   H18815414   4.675   7.302   0.583  0.9468  0.5747  1.6721
   24MOL   H18915415   4.937   7.307   0.422 -1.4380 -0.1235 -2.3901
   24MOL   H19015416   4.863   7.165   0.500 -2.8771  0.1326 -1.7383
   24MOL   H19115417   4.965   7.416   0.625  0.8446 -0.0319  2.5633
   24MOL   H19215418   4.876   7.293   0.709 -1.9989 -0.8217 -1.5764
   24MOL   H19315419   5.133   7.253   0.551  0.3498 -0.8302 -0.2795
   24MOL   H19415420   5.042   7.124   0.621 -3.3824  0.6917 -1.5741
   24MOL   H19515421   5.097   7.133   0.835 -1.0766 -0.0545 -0.9243
   24MOL   H19615422   5.106   7.308   0.832 -0.0626  1.0274 -1.9357
   24MOL   H19715423   5.343   7.189   0.854  0.1359 -1.2130  0.7401
   24MOL   H19815424   5.333   7.306   0.729 -1.8188  0.6876 -1.3041
   24MOL   H19915425   5.305   7.132   0.689  0.7012 -1.3316  1.4134
   24MOL   C20015426   4.189   7.168   0.176  0.2948 -0.5019  0.1397
   24MOL   C20115427   4.034   7.152   0.183  0.3349  0.4944 -0.3474
   24MOL   C20215428   4.007   7.042   0.285 -0.4251  0.5335 -0.2920
   24MOL   C20315429   3.852   7.010   0.307 -0.3585  0.2687 -0.2602
   24MOL   C20415430   3.820   6.910   0.416  0.0082  0.9990  0.8516
   24MOL   C20515431   3.669   6.892   0.439 -0.1375 -0.2580  0.0127
   24MOL   C20615432   3.593   7.012   0.504  0.0533 -0.2967  0.1935
   24MOL   C20715433   3.445   7.001   0.495 -0.1393 -0.9071 -0.3960
   24MOL   C20815434   3.368   7.098   0.594 -0.2093  0.0224  0.0013
   24MOL   C20915435   3.220   7.083   0.601 -0.3488  0.0172  0.5385
   24MOL   C21015436   3.161   7.188   0.695  0.1432  0.0820  0.0810
   24MOL   H21115437   4.229   7.212   0.086  1.8996 -0.0936  1.0405
   24MOL   H21215438   4.229   7.067   0.177  1.2002 -0.1652 -1.7060
   24MOL   H21315439   3.984   7.237   0.229  1.2629  0.3589  0.9110
   24MOL   H21415440   4.055   7.064   0.380  1.6443  2.6710 -1.7824
   24MOL   H21515441   4.059   6.961   0.236 -0.4079 -0.1204  0.7914
   24MOL   H21615442   3.819   6.964   0.213  3.9644 -2.6969 -0.4858
   24MOL   H21715443   3.794   7.101   0.318 -2.2743 -0.7349 -1.5395
   24MOL   H21815444   3.861   6.941   0.512 -2.3042  1.2258  1.7945
   24MOL   H21915445   3.872   6.820   0.384  0.9759  1.4455  1.1478
   24MOL   H22015446   3.623   6.844   0.353  1.2762 -0.7927 -0.4567
   24MOL   H22115447   3.671   6.813   0.515 -0.7599  0.9040  1.2685
   24MOL   H22215448   3.620   7.098   0.444  0.8338 -0.5092  0.2384
   24MOL   H22315449   3.623   7.032   0.607 -1.3916 -1.3590  0.8474
   24MOL   H22415450   3.406   6.899   0.500  0.9929 -1.4437 -2.0037
   24MOL   H22515451   3.432   7.016   0.388  1.6215 -1.6867 -0.7518
   24MOL   H22615452   3.393   7.202   0.571 -0.3600 -0.3664 -1.9691
   24MOL   H22715453   3.414   7.069   0.689 -1.1223  1.1905  0.8256
   24MOL   H22815454   3.181   7.095   0.500  0.1369  0.3207  0.3809
   24MOL   H22915455   3.195   6.988   0.648  0.0564  0.6014  1.9620
   24MOL   H23015456   3.207   7.187   0.794  0.7376 -3.0906 -0.1547
   24MOL   H23115457   3.054   7.176   0.716  0.7648 -0.0370  3.5560
   24MOL   H23215458   3.169   7.287   0.651 -2.3686 -0.7902 -2.5079
   24MOL   C23315459   3.984   7.132   0.046 -0.4749 -0.5973  0.5864
   24MOL   C23415460   3.978   7.259   7.657 -0.3818 -0.6922 -0.0397
   24MOL   C23515461   3.849   7.335   7.675  0.6721  0.0650  0.2947
   24MOL   C23615462   3.845   7.462   7.599  0.5043  0.1451  0.2337
   24MOL   C23715463   3.734   7.568   7.651  0.2936  0.0557  0.3515
   24MOL   C23815464   3.733   7.697   7.564 -0.1274  0.1958  0.2281
   24MOL   C23915465   3.626   0.086   7.617  0.2205 -0.0175  0.5181
   24MOL   C24015466   3.619   0.213   7.531  0.0823 -0.2325  0.0339
   24MOL   C24115467   3.500   0.301   7.561  0.3955 -0.6304  0.2158
   24MOL   C24215468   3.499   0.440   7.481 -0.0789 -0.2866  0.2456
   24MOL   C24315469   3.465   0.425   7.328 -0.3650 -0.1255 -0.1313
   24MOL   H24415470   3.885   7.088   0.037 -0.6524 -0.5154  1.9468
   24MOL   H24515471   4.056   7.063   0.003  0.8424  0.8378  0.4299
   24MOL   H24615472   4.048   7.333   7.695 -1.2829  0.1050  0.1014
   24MOL   H24715473   3.764   7.268   7.658 -0.3842  1.2541  0.8010
   24MOL   H24815474   3.844   7.359   0.078 -2.4910  1.9301 -0.2152
   24MOL   H24915475   3.821   7.445   7.495 -1.3488  0.7298  0.5495
   24MOL   H25015476   3.941   7.514   7.607  0.4794  0.6823 -2.5260
   24MOL   H25115477   3.745   7.594   0.053  0.5829  0.6833  0.1662
   24MOL   H25215478   3.632   7.530   7.651 -0.2568  1.5211  0.1574
   24MOL   H25315479   3.730   7.676   7.458 -1.1288 -0.4887  0.3802
   24MOL   H25415480   3.830   0.042   7.573  0.3868 -0.8518  0.3854
   24MOL   H25515481   3.534   0.027   7.623 -1.1909  1.7345 -2.5779
   24MOL   H25615482   3.651   0.108   0.017 -0.9321 -2.2332  1.2944
   24MOL   H25715483   3.707   0.278   7.537  0.0406 -0.0989 -0.7099
   24MOL   H25815484   3.601   0.183   7.428  3.0812  1.5772 -1.0907
   24MOL   H25915485   3.416   0.237   7.532 -0.3538  0.4066  0.0425
   24MOL   H26015486   3.482   0.331   7.664 -0.0069 -0.3654  0.0726
   24MOL   H26115487   3.600   0.481   7.489  0.0707 -0.7170  0.5810
   24MOL   H26215488   3.425   0.502   7.532 -0.5493 -1.6748  1.3067
   24MOL   H26315489   3.479   0.515   7.267  0.9957 -0.2460 -0.0184
   24MOL   H26415490   3.363   0.389   7.318 -0.1188 -0.7795 -0.2710
   24MOL   H26515491   3.530   0.348   7.288  1.7315 -0.0035  2.9217
   24MOL   C26615492   4.021   7.235   7.509 -0.0032 -0.0830 -0.2441
   24MOL   C26715493   4.175   7.243   7.485 -0.2190  0.2424  0.7562
   24MOL   C26815494   4.222   7.393   7.497 -0.5730  0.3080 -0.1710
   24MOL   C26915495   4.364   7.426   7.497 -0.2556 -0.8976  0.1460
   24MOL   C27015496   4.405   7.576   7.509 -0.2596  0.2334 -0.6474
   24MOL   C27115497   4.491   7.613   7.643 -0.9424  0.1852 -0.9105
   24MOL   C27215498   4.626   7.536   7.645  0.5852 -0.1647 -0.3426
   24MOL   C27315499   4.691   7.560   0.078  0.4349  0.5325  0.1896
   24MOL   C27415500   4.826   7.484   0.084 -0.3098 -0.4073  0.1216
   24MOL   C27515501   4.917   7.521   0.202 -0.4367 -0.4267  0.0663
   24MOL   C27615502   5.065   7.473   0.200 -0.1346 -0.0057 -0.0786
   24MOL   H27715503   3.975   7.305   7.439 -0.2429 -0.0461 -0.0507
   24MOL   H27815504   3.979   7.137   7.483 -1.0173  0.2578  0.1212
   24MOL   H27915505   4.234   7.192   7.562 -1.4985 -0.6111  1.1839
   24MOL   H28015506   4.159   7.435   7.418  0.2729  0.3554 -0.8201
   24MOL   H28115507   4.180   7.432   7.590 -1.9803  0.3991 -0.8257
   24MOL   H28215508   4.412   7.373   7.414  3.0283  2.3535 -0.1757
   24MOL   H28315509   4.403   7.377   7.586 -1.1120 -1.3143  0.2956
   24MOL   H28415510   4.317   7.640   7.501  0.4968  1.5561  1.3945
   24MOL   H28515511   4.463   7.594   7.418  1.2476 -2.8950 -0.3471
   24MOL   H28615512   4.428   7.577   0.021  0.6133  0.1172  0.2973
   24MOL   H28715513   4.495   0.014   7.676  0.9981 -0.6618  1.7423
   24MOL   H28815514   4.605   7.429   7.643  0.3944 -0.1644  0.9365
   24MOL   H28915515   4.699   7.552   7.566  0.3611  1.6979 -0.2013
   24MOL   H29015516   4.624   7.536   0.161  1.3619 -0.7308  0.5810
   24MOL   H29115517   4.702   7.667   0.089 -0.1609  0.6897 -0.6340
   24MOL   H29215518   4.803   7.377   0.079  1.5746 -0.8400  0.3732
   24MOL   H29315519   4.889   7.509   7.702  1.0005 -0.3353  1.0898
   24MOL   H29415520   4.874   7.496   0.299  0.9388 -1.8165  0.3478
   24MOL   H29515521   4.935   7.628   0.203 -2.1821 -0.1172 -0.7541
   24MOL   H29615522   5.111   7.524   0.284 -0.6890  1.0186 -0.3869
   24MOL   H29715523   5.114   7.502   0.106 -1.6645 -1.8058 -1.4772
   24MOL   H29815524   5.078   7.368   0.226  3.4686 -0.2909 -2.6222
   24MOL   C29915525   4.211   7.179   7.343 -0.3394  0.8401  0.4013
   24MOL   C30015526   4.242   7.026   7.355 -0.0282  0.3304  0.1437
   24MOL   C30115527   4.392   6.999   7.369 -0.3836  0.2820  0.5914
   24MOL   C30215528   4.465   7.058   7.497  0.2545 -0.4479 -0.9600
   24MOL   C30315529   4.614   7.029   7.491 -0.1040  0.1316  0.3189
   24MOL   C30415530   4.686   7.089   7.617 -0.1662 -0.2574  0.2021
   24MOL   C30515531   4.813   7.017   7.657  0.2666  0.3673 -0.0818
   24MOL   C30615532   4.874   7.067   0.078 -0.0212 -0.0409  0.3511
   24MOL   C30715533   5.006   7.000   0.113  0.5781  0.5577 -0.6246
   24MOL   C30815534   5.078   7.036   0.242  0.7267  0.1977 -0.2311
   24MOL   C30915535   5.213   6.964   0.261  0.0153 -0.0518  0.4023
   24MOL   H31015536   4.286   7.240   7.292 -3.0247  2.5193 -1.7109
   24MOL   H31115537   4.129   7.197   7.273 -0.4623  0.7614  0.5255
   24MOL   H31215538   4.198   6.984   7.445 -0.8591 -2.5582 -1.5600
   24MOL   H31315539   4.409   6.891   7.369 -2.7402 -0.1475 -2.0480
   24MOL   H31415540   4.432   7.032   7.274 -1.6215 -2.6568 -1.0055
   24MOL   H31515541   4.456   7.167   7.506  1.9721 -0.5321  3.0239
   24MOL   H31615542   4.420   7.022   7.590 -1.1487 -2.3707 -2.3469
   24MOL   H31715543   4.626   6.920   7.489  0.0545  0.1630 -0.3558
   24MOL   H31815544   4.652   7.067   7.397 -1.7835 -0.4965 -0.6355
   24MOL   H31915545   4.619   7.100   7.703  0.6247 -2.7012  1.1722
   24MOL   H32015546   4.721   7.190   7.596  0.9707 -0.2507  1.9326
   24MOL   H32115547   4.804   6.909   7.661  0.6370  0.3757  1.0822
   24MOL   H32215548   4.872   7.041   7.568 -0.6940  0.3685 -0.7348
   24MOL   H32315549   4.820   7.054   0.172  0.8155 -2.1558  0.5599
   24MOL   H32415550   4.885   7.175   0.069  0.4922  0.0045  1.5061
   24MOL   H32515551   5.073   7.012   0.028 -1.7788  4.1222 -2.1136
   24MOL   H32615552   4.993   6.893   0.129 -2.4514  1.1415  1.2511
   24MOL   H32715553   5.004   7.015   0.319 -1.2907 -0.0951 -2.1873
   24MOL   H32815554   5.088   7.144   0.241 -1.3390  0.4068 -1.6553
   24MOL   H32915555   5.270   6.983   0.352 -0.4088 -2.1002  1.1120
   24MOL   H33015556   5.189   6.858   0.254  0.5681 -0.3492  2.5544
   24MOL   H33115557   5.281   6.991   0.180  0.6899  1.1384  1.3477
   24MOL   C33215558   4.183   6.953   7.231  0.2000  0.9030  0.1948
   24MOL   C33315559   4.022   6.947   7.237  0.5098 -0.4071 -0.0392
   24MOL   C33415560   3.979   6.826   7.331 -0.0020 -0.7521 -0.2906
   24MOL   C33515561   4.011   6.680   7.295  0.6719 -0.1660  0.4140
   24MOL   C33615562   3.995   6.578   7.410 -0.3255 -1.0241 -0.0789
   24MOL   C33715563   4.052   6.611   7.542 -0.0794  0.0352 -0.8055
   24MOL   C33815564   4.200   6.651   7.550  0.0996  0.4397 -0.4548
   24MOL   C33915565   4.239   6.730   7.681  0.3558 -0.4333 -0.0583
   24MOL   C34015566   4.390   6.736   0.002 -0.1013  0.4059  0.0035
   24MOL   C34115567   4.426   6.834   0.111 -0.0048  0.5861  0.6426
   24MOL   C34215568   4.571   6.798   0.162  0.0469 -0.6092  0.3921
   24MOL   H34315569   4.221   6.995   7.139  0.7724  0.1801  0.0996
   24MOL   H34415570   4.225   6.853   7.229  0.2451  0.9207  0.2332
   24MOL   H34515571   3.981   7.041   7.274  1.5563 -0.0655  0.2737
   24MOL   H34615572   3.870   6.826   7.337  0.0127 -0.1050 -0.0020
   24MOL   H34715573   4.023   6.852   7.427  1.3107  0.3197 -1.1757
   24MOL   H34815574   3.948   6.645   7.213  0.1205 -0.5718  1.0083
   24MOL   H34915575   4.108   6.667   7.247  0.4006 -0.8260  0.0371
   24MOL   H35015576   3.892   6.553   7.435 -0.8404 -0.4787 -1.5871
   24MOL   H35115577   4.036   6.484   7.374 -0.2325 -0.7578 -0.6805
   24MOL   H35215578   4.043   6.522   7.604  0.3856  1.7359  1.8165
   24MOL   H35315579   3.990   6.691   7.583 -1.4901 -1.6966  0.4772
   24MOL   H35415580   4.225   6.710   7.462  1.2510 -0.7226 -0.9281
   24MOL   H35515581   4.259   6.561   7.533 -2.0311 -0.8020 -1.5039
   24MOL   H35615582   4.203   6.833   7.678  0.7007 -0.3335 -1.0641
   24MOL   H35715583   4.205   6.693   0.074  0.3811 -1.6621 -0.5177
   24MOL   H35815584   4.449   6.762   7.617  0.2289 -0.6292 -0.0885
   24MOL   H35915585   4.419   6.634   0.025  3.1287  1.0787 -0.7761
   24MOL   H36015586   4.361   6.808   0.195 -1.8291 -1.9923 -1.4795
   24MOL   H36115587   4.417   6.941   0.089  0.6584  0.5370  0.1266
   24MOL   H36215588   4.638   6.808   0.077 -0.6144  0.6679  0.0049
   24MOL   H36315589   4.607   6.856   0.247  0.4944  0.0203 -0.2177
   24MOL   H36415590   4.573   6.692   0.184  1.0364 -1.0060 -1.5172
   24MOL   C36515591   3.960   6.940   7.095  0.5663  0.6595  0.2783
   24MOL   C36615592   3.802   6.933   7.085 -0.0154 -0.0972  0.5728
   24MOL   C36715593   3.718   7.034   7.171 -0.4316  0.1493 -1.0446
   24MOL   C36815594   3.756   7.187   7.149 -0.3911  0.1224 -0.3344
   24MOL   C36915595   3.709   7.288   7.255 -0.2269  0.7454  0.3602
   24MOL   C37015596   3.564   7.290   7.284 -0.3461 -0.1596 -0.6123
   24MOL   C37115597   3.524   7.388   7.391  0.3932 -0.3106 -0.1737
   24MOL   C37215598   3.374   7.386   7.406  0.5118  0.2999 -0.0628
   24MOL   C37315599   3.322   7.489   7.504  0.4005 -0.3544  0.2132
   24MOL   C37415600   3.169   7.509   7.508  0.6656  0.3274 -0.2504
   24MOL   C37515601   3.127   7.625   7.608  0.0880 -0.5012  0.3775
   24MOL   H37615602   3.996   7.025   7.036  2.1122 -0.0282  0.2025
   24MOL   H37715603   4.004   6.856   7.041  1.2668  1.3109 -0.1791
   24MOL   H37815604   3.778   6.840   7.137 -1.8108 -0.0970 -0.2050
   24MOL   H37915605   3.736   7.009   7.276 -1.4641  1.3581 -0.5698
   24MOL   H38015606   3.612   7.011   7.174 -0.5445  0.7529  0.1600
   24MOL   H38115607   3.722   7.208   7.047  0.3674 -0.4099 -0.6978
   24MOL   H38215608   3.864   7.192   7.143 -0.1758 -3.6027 -0.5321
   24MOL   H38315609   3.752   7.386   7.231  0.2603  0.6512  0.8208
   24MOL   H38415610   3.763   7.264   7.346  0.3294  0.4359 -0.0464
   24MOL   H38515611   3.533   7.188   7.310 -3.1901  1.0190  0.9644
   24MOL   H38615612   3.506   7.306   7.193  0.6359 -0.0371 -1.2139
   24MOL   H38715613   3.574   7.359   7.484 -0.5329 -2.9216 -0.4524
   24MOL   H38815614   3.560   7.486   7.360 -0.8469  0.6426  1.2980
   24MOL   H38915615   3.346   7.283   7.425 -3.0500  0.9387 -1.4912
   24MOL   H39015616   3.344   7.413   7.305 -2.0155  2.8307  1.2939
   24MOL   H39115617   3.368   7.472   7.602 -1.0444  2.0830  1.3638
   24MOL   H39215618   3.370   7.585   7.483  2.3475 -1.6764 -1.6239
   24MOL   H39315619   3.127   7.524   7.408  1.8650  3.1617 -0.3552
   24MOL   H39415620   3.127   7.417   7.549  0.1890  1.5517  2.0566
   24MOL   H39515621   3.018   7.625   7.609  0.0589 -0.6924 -1.2454
   24MOL   H39615622   3.166   0.019   7.579 -3.3600  0.9069  0.2370
   24MOL   H39715623   3.159   7.596   0.005 -0.1770  1.5230  1.0715
   24MOL   C39815624   3.759   6.933   6.939 -0.1957 -0.1348 -0.1514
   24MOL   C39915625   3.774   6.800   6.859  0.4727 -0.3690 -0.2023
   24MOL   C40015626   3.839   6.816   6.721 -0.0382 -0.1293 -0.6553
   24MOL   C40115627   3.995   6.870   6.732  0.3546  0.3272  0.4777
   24MOL   C40215628   4.091   6.851   6.610  0.3964 -0.2089  0.0322
   24MOL   C40315629   4.110   6.708   6.559  0.6767  0.3850 -0.5009
   24MOL   C40415630   4.198   6.707   6.433  0.1976 -0.1583 -0.1368
   24MOL   C40515631   4.249   6.576   6.387  0.0382  0.1391 -0.4688
   24MOL   C40615632   4.393   6.546   6.438 -0.1889  0.0644 -0.1494
   24MOL   C40715633   4.445   6.415   6.376  0.8520 -0.9825  0.1096
   24MOL   C40815634   4.592   6.391   6.393 -0.7651  0.3280  0.4149
   24MOL   H40915635   3.793   7.025   6.892  2.8008 -0.2071  1.7131
   24MOL   H41015636   3.653   6.954   6.927  0.0410  1.3183  0.1473
   24MOL   H41115637   3.837   6.743   6.928 -0.7651 -2.8033 -1.0293
   24MOL   H41215638   3.776   6.882   6.663 -2.1618 -0.5651  1.1022
   24MOL   H41315639   3.834   6.720   6.669  0.4468 -0.5298  0.0271
   24MOL   H41415640   3.994   6.971   6.773  0.0123 -0.5932  2.8025
   24MOL   H41515641   4.049   6.814   6.808  0.6770 -0.5636 -0.4035
   24MOL   H41615642   4.052   6.913   6.529 -1.7980  1.2229  2.1053
   24MOL   H41715643   4.191   6.884   6.636  0.3905  0.1055 -0.3478
   24MOL   H41815644   4.013   6.664   6.535  0.0695  1.9459 -0.9603
   24MOL   H41915645   4.154   6.650   6.640 -0.2479  2.1261  1.2620
   24MOL   H42015646   4.130   6.746   6.357 -0.0094  1.1156  0.6774
   24MOL   H42115647   4.274   6.785   6.435 -0.8723  0.8985 -0.2504
   24MOL   H42215648   4.255   6.559   6.280  1.1793  2.4649 -0.8084
   24MOL   H42315649   4.195   6.492   6.431  0.2031 -0.0854 -0.6984
   24MOL   H42415650   4.463   6.624   6.406  0.2748  0.0331  0.7602
   24MOL   H42515651   4.405   6.542   6.546 -1.0816  0.2759 -0.0390
   24MOL   H42615652   4.405   6.394   6.277  0.5318 -0.4748  0.1267
   24MOL   H42715653   4.385   6.347   6.436 -1.1767  1.8559  1.3760
   24MOL   H42815654   4.637   6.379   6.492  0.6311  0.5539 -0.1739
   24MOL   H42915655   4.650   6.470   6.345  0.2687 -0.2838  0.6493
   24MOL   H43015656   4.598   6.291   6.353  1.9719  0.4973  0.3233
   24MOL   C43115657   3.636   6.725   6.844 -0.1694 -0.2097  0.2317
   24MOL   C43215658   3.563   6.684   6.969 -0.1770  0.2973  0.0308
   24MOL   C43315659   3.616   6.552   7.024 -0.1799  0.6983 -0.5728
   24MOL   C43415660   3.596   6.525   7.175 -0.3055 -0.2012 -0.4418
   24MOL   C43515661   3.674   6.416   7.242  1.1207  0.2600  0.5888
   24MOL   C43615662   3.629   6.266   7.211 -0.3936  0.0990 -0.3095
   24MOL   C43715663   3.505   6.239   7.293 -0.6188  0.0006 -0.3944
   24MOL   C43815664   3.537   6.222   7.445  0.8128  0.5300  0.1424
   24MOL   C43915665   3.621   6.097   7.464 -1.0527  0.4946 -0.7148
   24MOL   C44015666   3.632   6.058   7.612  0.1630  0.4714  0.0392
   24MOL   C44115667   3.545   5.944   7.652  0.3573  0.1243 -0.0908
   24MOL   H44215668   3.650   6.640   6.777  1.0311  0.7882 -0.8156
   24MOL   H44315669   3.573   6.790   6.783 -2.1693 -1.7891  0.5648
   24MOL   H44415670   3.585   6.762   7.042  1.4873 -0.8515  0.7847
   24MOL   H44515671   3.567   6.475   6.963 -0.0593 -0.6845  1.0459
   24MOL   H44615672   3.720   6.539   6.995  0.0486  0.7496  0.2278
   24MOL   H44715673   3.489   6.521   7.191 -0.4900  2.1208 -0.8484
   24MOL   H44815674   3.633   6.616   7.223 -1.8410  0.1867  0.0176
   24MOL   H44915675   3.674   6.429   7.350  0.6365 -1.3630  0.7971
   24MOL   H45015676   3.781   6.432   7.230  1.5435 -2.2262  0.7694
   24MOL   H45115677   3.705   6.195   7.242  0.6573  1.0920 -0.5677
   24MOL   H45215678   3.610   6.245   7.105 -1.0799 -2.4928  0.3165
   24MOL   H45315679   3.455   6.147   7.262 -1.1970  0.0897  0.2653
   24MOL   H45415680   3.425   6.312   7.284 -0.0890  0.4529 -1.4960
   24MOL   H45515681   3.588   6.308   7.488  0.2827  0.5175  0.8191
   24MOL   H45615682   3.444   6.211   7.502  2.0347 -3.4161  1.5352
   24MOL   H45715683   3.718   6.098   7.415 -0.3948  0.3236  0.5807
   24MOL   H45815684   3.575   6.010   7.418  1.5183 -1.8166  0.9156
   24MOL   H45915685   3.606   6.137   7.683  0.0910  0.1877  0.3282
   24MOL   H46015686   3.736   6.027   7.623  0.1830  0.5343  0.0263
   24MOL   H46115687   3.442   5.977   7.636 -0.1160 -0.3560  1.9466
   24MOL   H46215688   3.564   5.861   7.583 -0.7040 -0.2161  0.0272
   24MOL   H46315689   3.552   5.919   0.054 -1.6246  0.4034  0.1147
   24MOL   C46415690   3.407   6.678   6.959 -0.5773 -0.0176 -0.3673
   24MOL   C46515691   3.320   6.799   6.919  0.1133 -0.0115  0.9442
   24MOL   C46615692   3.179   6.750   6.870  0.0429 -0.2820  0.6343
   24MOL   C46715693   3.182   6.673   6.734  0.3103 -0.4621  0.2231
   24MOL   C46815694   3.042   6.660   6.670 -0.1203  0.3090 -0.1490
   24MOL   C46915695   3.029   6.569   6.547  0.2767  0.1929 -0.5089
   24MOL   C47015696   2.885   6.575   6.487 -0.4382  0.3649  0.4717
   24MOL   C47115697   2.856   6.713   6.434  0.7884 -0.2363 -0.2204
   24MOL   C47215698   2.740   6.714   6.340  0.6470 -0.0434  0.1264
   24MOL   C47315699   2.692   6.852   6.302 -0.0391 -0.5686  0.4728
   24MOL   C47415700   2.569   6.845   6.209  0.2769  0.8421 -0.2655
   24MOL   H47515701   3.374   6.642   7.057  1.0433 -3.1743 -0.9188
   24MOL   H47615702   3.387   6.588   6.900  1.5348 -0.4350 -0.4994
   24MOL   H47715703   3.357   6.860   6.836 -0.1515 -1.2405 -0.0928
   24MOL   H47815704   3.112   6.835   6.857  0.2513 -0.1423  0.4842
   24MOL   H47915705   3.139   6.685   6.949  1.4263  0.3484  1.8606
   24MOL   H48015706   3.258   6.714   6.667  0.8663 -2.6913 -0.5540
   24MOL   H48115707   3.212   6.571   6.755  1.1256 -0.3798 -0.4990
   24MOL   H48215708   3.015   6.764   6.651  0.5675  0.5121 -0.0465
   24MOL   H48315709   2.975   6.633   6.751 -0.1121 -0.8847 -0.5253
   24MOL   H48415710   3.091   6.610   6.467 -0.9299  1.1395 -0.9729
   24MOL   H48515711   3.062   6.466   6.563  0.7465  0.2992 -0.7765
   24MOL   H48615712   2.880   6.511   6.399 -2.1788  1.8213 -0.5460
   24MOL   H48715713   2.809   6.537   6.555  0.4578  1.4971  2.1346
   24MOL   H48815714   2.829   6.778   6.518 -0.8766  1.0216 -1.6830
   24MOL   H48915715   2.948   6.752   6.392  1.3786 -1.5737 -0.1926
   24MOL   H49015716   2.778   6.661   6.252  2.8804 -0.4717  1.3036
   24MOL   H49115717   2.657   6.651   6.372 -0.7103  0.2529 -2.6508
   24MOL   H49215718   2.665   6.908   6.392  3.5773 -0.4466  1.5632
   24MOL   H49315719   2.766   6.913   6.250 -1.1495  0.5013  0.1181
   24MOL   H49415720   2.493   6.798   6.271  0.8646 -0.2480 -0.3488
   24MOL   H49515721   2.572   6.796   6.112  0.1016  1.2902 -0.4960
   24MOL   H49615722   2.529   6.945   6.200 -1.0980  0.6025  2.5573
   24MOL   C49715723   3.303   6.885   7.039 -0.3991 -0.5139 -0.4856
   24MOL   C49815724   3.259   7.033   7.026  0.7280  0.8231 -0.0319
   24MOL   C49915725   3.360   7.130   6.956 -0.0486 -0.4515  0.3757
   24MOL   C50015726   3.292   7.257   6.905  0.4026  0.3322 -0.2463
   24MOL   C50115727   3.385   7.327   6.805 -0.0647  0.1774 -0.0724
   24MOL   C50215728   3.313   7.442   6.732 -0.7764  0.6961  0.4004
   24MOL   C50315729   3.397   7.552   6.666 -0.2241  0.1446 -0.1766
   24MOL   C50415730   3.469   7.505   6.537 -0.9500 -0.2495  0.6079
   24MOL   C50515731   3.535   7.603   6.444  0.0555 -0.2174 -0.5349
   24MOL   C50615732   3.440   0.004   6.375  0.0908  0.7580  0.0410
   24MOL   C50715733   3.518   0.122   6.329  0.2104 -0.0407 -0.6214
   24MOL   H50815734   3.238   6.839   7.114  0.7421  0.0097  0.8381
   24MOL   H50915735   3.390   6.885   7.105 -0.0220 -0.2264 -0.9891
   24MOL   H51015736   3.182   7.032   6.949 -0.7103 -0.2432  1.3922
   24MOL   H51115737   3.404   7.074   6.873  0.4389 -1.2463  1.1552
   24MOL   H51215738   3.438   7.149   7.030 -0.2629 -1.6857  0.9413
   24MOL   H51315739   3.278   7.336   6.978  2.4117  2.1164 -1.7474
   24MOL   H51415740   3.193   7.234   6.865 -0.4697  0.8624  1.5463
   24MOL   H51515741   3.477   7.354   6.857 -0.0760  0.4556 -0.1977
   24MOL   H51615742   3.422   7.259   6.728  0.8525  0.9304 -0.3022
   24MOL   H51715743   3.251   7.393   6.657  0.4655 -1.0621  0.4803
   24MOL   H51815744   3.241   7.491   6.798 -2.5007 -0.6279 -0.4401
   24MOL   H51915745   3.328   7.635   6.651 -1.3510 -0.0910  3.1169
   24MOL   H52015746   3.464   7.592   6.743 -1.3765  0.3877  0.7282
   24MOL   H52115747   3.406   7.435   6.482  1.1166 -1.5354 -0.1739
   24MOL   H52215748   3.548   7.447   6.585 -0.2478  1.2624  1.3374
   24MOL   H52315749   3.586   7.546   6.366  0.3559  0.7719 -1.0751
   24MOL   H52415750   3.613   7.660   6.496 -1.0243  3.0078 -2.2852
   24MOL   H52515751   3.367   0.030   6.452  0.9429  1.6558  0.5590
   24MOL   H52615752   3.381   7.662   6.296 -0.9173 -1.7627  2.1353
   24MOL   H52715753   3.461   0.214   6.312 -1.8046 -1.2893 -0.7099
   24MOL   H52815754   3.576   0.099   6.240  2.0702  0.9220  0.3055
   24MOL   H52915755   3.601   0.138   6.397  0.3370  1.9121 -1.1980
   24MOL   C53015756   3.205   7.075   7.169  0.2692  0.2204  0.1947
   24MOL   C53115757   3.054   7.081   7.166  0.6235  0.1144 -0.0465
   24MOL   C53215758   3.007   7.215   7.118  0.8534  0.7419  0.2177
   24MOL   C53315759   3.027   7.340   7.205 -0.7352  0.4826 -0.4080
   24MOL   C53415760   2.941   7.458   7.165 -0.1252  0.3406 -0.4487
   24MOL   C53515761   3.006   7.564   7.077 -0.3370  0.5395 -0.0194
   24MOL   C53615762   3.113   7.646   7.152 -0.1256  0.6173  0.1107
   24MOL   C53715763   3.171   0.056   7.064 -0.2965 -0.3662 -0.9202
   24MOL   C53815764   3.301   0.121   7.115 -0.2416 -0.0619 -0.6424
   24MOL   C53915765   3.341   0.231   7.007  0.3922 -0.4102 -0.4239
   24MOL   C54015766   3.435   0.179   6.904  0.3785  0.1610 -0.2420
   24MOL   H54115767   3.251   7.018   7.250 -0.0390 -1.4487 -0.7778
   24MOL   H54215768   3.256   7.169   7.188 -0.4260  1.1242 -2.2812
   24MOL   H54315769   3.019   7.008   7.093  0.2937  1.2013 -1.0078
   24MOL   H54415770   2.898   7.215   7.117  0.8599  0.9032 -0.6060
   24MOL   H54515771   3.041   7.239   7.017  0.6423  0.0451 -0.0185
   24MOL   H54615772   3.133   7.364   7.202 -1.1075  2.2187  0.2607
   24MOL   H54715773   2.997   7.322   7.308  1.0343 -0.0045  0.0438
   24MOL   H54815774   2.905   7.506   7.256  2.1993  0.4989  0.4226
   24MOL   H54915775   2.854   7.422   7.110 -1.8388  2.2563  0.9412
   24MOL   H55015776   2.926   7.636   7.057  1.8227  3.0983  0.4271
   24MOL   H55115777   3.039   7.520   6.983 -1.4991  0.7737 -0.5488
   24MOL   H55215778   3.198   7.594   7.198  0.0984  0.8455 -0.0416
   24MOL   H55315779   3.068   7.694   7.239 -2.1174 -1.9000  0.5147
   24MOL   H55415780   3.095   0.128   7.035 -2.3682 -0.8421  2.9426
   24MOL   H55515781   3.197   0.017   6.966  0.7961  1.1209 -1.2327
   24MOL   H55615782   3.380   0.048   7.132 -0.3255  0.0109  0.0755
   24MOL   H55715783   3.286   0.167   7.213  0.1911 -1.1690 -0.0446
   24MOL   H55815784   3.386   0.315   7.060  2.1759 -0.8800 -1.1423
   24MOL   H55915785   3.255   0.278   6.961 -0.1513 -0.6562  0.3264
   24MOL   H56015786   3.388   0.109   6.836 -2.2632  2.2043 -0.6182
   24MOL   H56115787   3.473   0.272   6.862  3.0103 -0.6836  0.2176
   24MOL   H56215788   3.506   0.117   6.958  0.2153  1.9791  2.1491
   24MOL   C56315789   2.996   7.047   7.307 -0.9321 -0.4137  0.3792
   24MOL   C56415790   2.976   6.897   7.327  0.1385 -0.4356 -0.0901
   24MOL   C56515791   2.834   6.863   7.371  0.5227  0.3188 -0.3568
   24MOL   C56615792   2.731   6.886   7.267 -0.2358 -0.2989  0.2267
   24MOL   C56715793   2.736   6.789   7.153 -0.2037  0.2285  0.6328
   24MOL   C56815794   2.612   6.780   7.076  0.4847  0.3454  0.0732
   24MOL   C56915795   2.621   6.673   6.966  0.6946  0.1310  0.7024
   24MOL   C57015796   2.519   6.687   6.846  0.1741 -0.0167  0.2083
   24MOL   C57115797   2.526   6.560   6.755  0.3347 -0.2929 -0.2285
   24MOL   C57215798   2.438   6.579   6.625  0.4675 -0.0955  0.2473
   24MOL   C57315799   2.450   6.458   6.522 -0.2436  0.2429  0.5371
   24MOL   H57415800   2.909   7.106   7.335 -0.2498  0.3192  0.9893
   24MOL   H57515801   3.064   7.085   7.384  1.5268 -0.5265 -1.6591
   24MOL   H57615802   3.002   6.841   7.237 -2.6083 -2.1876  0.1436
   24MOL   H57715803   2.802   6.912   7.463 -1.3505 -1.3649 -0.0735
   24MOL   H57815804   2.842   6.757   7.397  3.4840  0.5958  0.0479
   24MOL   H57915805   2.724   6.984   7.221  0.6021  0.1001  0.9437
   24MOL   H58015806   2.630   6.883   7.310  0.6670  0.9021  2.5241
   24MOL   H58115807   2.754   6.690   7.195  0.0101  0.8834  2.1079
   24MOL   H58215808   2.822   6.815   7.092 -0.7108  0.4168 -0.0098
   24MOL   H58315809   2.521   6.766   7.133  0.0729  0.8057 -0.4691
   24MOL   H58415810   2.588   6.873   7.025  1.1117 -0.4658 -1.7781
   24MOL   H58515811   2.715   6.678   6.912  0.0922  0.5446 -0.3149
   24MOL   H58615812   2.624   6.568   6.994 -1.2952 -0.1108  0.0915
   24MOL   H58715813   2.555   6.776   6.795 -0.3400  1.1168  1.7630
   24MOL   H58815814   2.416   6.691   6.880 -0.4807  1.1623 -1.8248
   24MOL   H58915815   2.486   6.469   6.800  0.4276  0.1209  0.6956
   24MOL   H59015816   2.628   6.541   6.723  1.4331 -1.6997  3.8064
   24MOL   H59115817   2.473   6.669   6.573  1.4811 -1.3041 -1.1925
   24MOL   H59215818   2.336   6.595   6.659  0.1597 -0.5267 -0.4602
   24MOL   H59315819   2.414   6.499   6.428 -1.7347 -1.4367  0.3529
   24MOL   H59415820   2.557   6.438   6.508 -0.1576  0.0081  1.5082
   24MOL   H59515821   2.401   6.371   6.565  0.0650 -0.1896  0.0351
   24MOL   C59615822   3.072   6.849   7.436  0.0984 -0.2469  0.6793
   24MOL   C59715823   3.093   6.693   7.455 -0.6209  0.4519  0.1576
   24MOL   C59815824   3.214   6.676   7.545 -0.5072  0.0095  0.0787
   24MOL   C59915825   3.165   6.642   7.685 -0.1919  0.1226 -0.3572
   24MOL   C60015826   3.272   6.656   0.094  0.6396 -0.2041 -0.7005
   24MOL   C60115827   3.217   6.620   0.232 -0.3313 -0.3933 -0.3113
   24MOL   C60215828   3.105   6.702   0.297 -0.6936 -0.3182 -0.3539
   24MOL   C60315829   3.101   6.687   0.454 -0.2604  0.0108  0.2409
   24MOL   C60415830   2.978   6.748   0.514  0.1671  0.0949 -0.3147
   24MOL   C60515831   2.968   6.753   0.671 -0.8069 -0.2721  0.1388
   24MOL   C60615832   2.826   6.774   0.723 -0.1458 -0.3382  0.4661
   24MOL   H60715833   3.171   6.887   7.409  0.0061 -1.7697 -1.9457
   24MOL   H60815834   3.059   6.901   7.531 -1.2537 -0.1760  0.4698
   24MOL   H60915835   3.008   6.645   7.504  1.2489 -2.6274  0.4955
   24MOL   H61015836   3.275   6.766   7.550 -0.7055  0.1011  0.8752
   24MOL   H61115837   3.290   6.610   7.502 -0.4521  0.3335 -0.3248
   24MOL   H61215838   3.125   6.542   7.668  3.2208 -0.8491 -3.1746
   24MOL   H61315839   3.082   6.709   0.006 -0.3657  0.3103 -1.4554
   24MOL   H61415840   3.308   6.759   0.092  2.0367 -0.6410  1.4671
   24MOL   H61515841   3.348   6.584   0.066 -1.1329 -3.3625  2.2572
   24MOL   H61615842   3.183   6.518   0.220 -0.9856  0.0476 -2.4359
   24MOL   H61715843   3.296   6.599   0.304 -1.3841 -1.0497  0.6560
   24MOL   H61815844   3.005   6.685   0.257 -1.0442  0.0122  0.3674
   24MOL   H61915845   3.127   6.806   0.272  1.1669 -0.6377 -0.0835
   24MOL   H62015846   3.185   6.742   0.496 -0.2837  0.8555 -0.7836
   24MOL   H62115847   3.105   6.585   0.491  1.6045  0.0261  0.1344
   24MOL   H62215848   2.971   6.849   0.473 -0.3176  0.5419  0.8642
   24MOL   H62315849   2.890   6.699   0.472  0.4353  0.5780 -1.4616
   24MOL   H62415850   3.043   6.817   0.718  0.5180 -1.7085  0.0343
   24MOL   H62515851   3.009   6.657   0.703  1.5570 -0.4350 -3.1354
   24MOL   H62615852   2.759   6.699   0.680  2.8332 -3.3066  0.7810
   24MOL   H62715853   2.823   6.768   0.831 -0.5753 -0.0701  0.4679
   24MOL   H62815854   2.786   6.873   0.703  1.5474  0.3661  0.4258
   24MOL   C62915855   3.094   6.619   7.316  0.0682  0.5217 -0.0096
   24MOL   C63015856   3.146   6.470   7.311 -0.2635 -0.6417  0.2633
   24MOL   C63115857   3.159   6.415   7.172  0.8444 -0.0920  0.3932
   24MOL   C63215858   3.029   6.376   7.096 -0.0217 -0.2546  0.0025
   24MOL   C63315859   3.039   6.348   6.946 -0.0610  0.2869  0.4636
   24MOL   C63415860   2.920   6.267   6.893  0.2035 -0.1089  0.0173
   24MOL   C63515861   2.902   6.292   6.745 -0.1795 -0.2277 -0.1751
   24MOL   C63615862   2.789   6.200   6.686  0.2100  0.5082  0.9012
   24MOL   C63715863   2.789   6.209   6.533  0.6084  0.3242 -0.2883
   24MOL   C63815864   2.673   6.133   6.463 -0.1218 -0.4761  0.5742
   24MOL   C63915865   2.677   5.983   6.473  0.0149  0.2101 -0.3900
   24MOL   H64015866   2.995   6.619   7.269  0.8621  1.1525 -1.7154
   24MOL   H64115867   3.154   6.677   7.246  1.4224 -0.3301  0.4450
   24MOL   H64215868   3.245   6.463   7.356 -0.0649  0.6811  0.0498
   24MOL   H64315869   3.216   6.486   7.111 -0.7448  1.5952  0.8497
   24MOL   H64415870   3.228   6.330   7.173  0.3245 -0.5101  0.5567
   24MOL   H64515871   2.951   6.452   7.097  0.2405  0.0627 -1.5305
   24MOL   H64615872   2.990   6.283   7.137  1.0821 -0.5863  0.3294
   24MOL   H64715873   3.135   6.297   6.934 -0.4628 -0.6696  1.2286
   24MOL   H64815874   3.057   6.442   6.895 -2.7884  1.4606  1.5913
   24MOL   H64915875   2.831   6.313   6.938 -0.6147 -1.2236 -0.4436
   24MOL   H65015876   2.937   6.161   6.912 -3.7369 -0.7899  0.1458
   24MOL   H65115877   2.995   6.266   6.695  0.7166 -0.1162  1.3995
   24MOL   H65215878   2.866   6.395   6.736  0.4707 -0.0464 -0.7036
   24MOL   H65315879   2.691   6.232   6.721  0.0857  0.2131  0.8264
   24MOL   H65415880   2.804   6.093   6.703 -1.6931 -0.1846 -1.5064
   24MOL   H65515881   2.886   6.184   6.491  0.5599 -0.5002  0.0845
   24MOL   H65615882   2.776   6.312   6.501  1.3210  0.1874 -1.0375
   24MOL   H65715883   2.681   6.153   6.356  0.3306 -1.6167  0.3864
   24MOL   H65815884   2.575   6.158   6.502 -0.0238  0.5856  0.1677
   24MOL   H65915885   2.581   5.936   6.450  1.0078 -1.3203 -1.4523
   24MOL   H66015886   2.695   5.952   6.576 -0.8098 -1.3710 -0.7052
   24MOL   H66115887   2.758   5.944   6.412  2.8589  0.2016  3.1890
   24MOL   H66215888   3.082   6.402   7.368 -0.1672  0.1662  1.3651
   25MOL     C115889   0.458   3.109   1.237  0.3988  0.1206 -0.0934
   25MOL     C215890   0.499   3.097   1.092  0.6052 -0.0755  0.5880
   25MOL     C315891   0.640   3.160   1.066  0.0675 -0.0178  0.5057
   25MOL     C415892   0.669   3.168   0.917 -0.4342 -0.9520 -0.4475
   25MOL     C515893   0.793   3.253   0.894  0.0649 -0.3928 -0.1550
   25MOL     C615894   0.858   3.235   0.751 -0.5940  0.0742 -0.4826
   25MOL     C715895   0.766   3.271   0.641 -0.0040  0.3665 -0.2303
   25MOL     C815896   0.829   3.265   0.498 -0.1061 -0.2765  0.5370
   25MOL     C915897   0.720   3.299   0.396 -0.2398 -0.3972  0.5551
   25MOL    C1015898   0.757   3.307   0.245 -0.8000 -0.5703 -0.0339
   25MOL    C1115899   0.652   3.374   0.160  0.0680  0.5855  0.3950
   25MOL    H1215900   0.549   3.087   1.293 -0.6760  0.4452  1.8153
   25MOL    H1315901   0.373   3.044   1.260  0.8237 -0.6122 -0.5766
   25MOL    H1415902   0.423   3.154   1.039 -0.0141  1.3976  2.9989
   25MOL    H1515903   0.721   3.106   1.116 -1.0220 -0.0024  2.3420
   25MOL    H1615904   0.653   3.256   1.117  0.9410 -0.0861  0.4173
   25MOL    H1715905   0.589   3.216   0.860  0.1077  0.9566  0.3513
   25MOL    H1815906   0.687   3.074   0.865 -3.3151 -1.9055  0.1744
   25MOL    H1915907   0.756   3.353   0.918  1.4265  0.2426 -0.6802
   25MOL    H2015908   0.869   3.232   0.968  0.7324 -1.0249 -1.0108
   25MOL    H2115909   0.904   3.137   0.745 -0.6125  0.0756 -0.6443
   25MOL    H2215910   0.945   3.300   0.746 -0.8747  0.5161  0.2118
   25MOL    H2315911   0.679   3.205   0.636 -0.2463  0.6385  0.3195
   25MOL    H2415912   0.732   3.371   0.669 -0.1503  0.3881 -0.4855
   25MOL    H2515913   0.870   3.167   0.473 -0.8063 -0.5953  0.6433
   25MOL    H2615914   0.913   3.334   0.487  1.1335 -1.6901  0.9192
   25MOL    H2715915   0.686   3.400   0.420  0.3517  0.1810 -0.9800
   25MOL    H2815916   0.645   3.221   0.410 -1.4232  0.6644  0.1617
   25MOL    H2915917   0.778   3.207   0.208  3.5548 -0.0131  0.6411
   25MOL    H3015918   0.848   3.365   0.229 -2.4226  2.4763  1.3609
   25MOL    H3115919   0.632   3.474   0.197  0.2624  0.1089  1.8254
   25MOL    H3215920   0.657   3.368   0.052 -0.3456  0.2973  0.3872
   25MOL    H3315921   0.556   3.330   0.187 -0.6767  0.3530 -2.5230
   25MOL    H3415922   0.431   3.210   1.267  0.6075  0.5533 -1.3389
   25MOL    C3515923   0.503   2.944   1.058  0.6310 -0.3083  0.8507
   25MOL    C3615924   0.358   2.897   1.007 -0.2734  0.0747 -0.0624
   25MOL    C3715925   0.281   2.974   0.903 -0.3753 -0.7047  0.3537
   25MOL    C3815926   0.352   3.013   0.775 -0.3831  0.2895  0.5937
   25MOL    C3915927   0.266   3.057   0.657  0.0102  0.1569  0.0043
   25MOL    C4015928   0.193   2.946   0.580 -0.0509  0.3151  0.8529
   25MOL    C4115929   0.120   2.996   0.459 -0.2877 -0.7121 -0.1541
   25MOL    C4215930   0.012   2.894   0.397  1.0171 -0.8109  0.4343
   25MOL    C4315931   7.654   2.928   0.264  0.3798  0.8802  0.1207
   25MOL    C4415932   7.513   2.865   0.238  0.7919  0.1511 -0.0210
   25MOL    C4515933   7.447   2.913   0.112 -0.0435 -0.0070  0.1272
   25MOL    H4615934   0.524   2.883   1.146  2.3999 -0.2019  0.5262
   25MOL    H4715935   0.579   2.937   0.981  0.8882 -1.0984  1.1728
   25MOL    H4815936   0.304   2.905   1.101  1.1826 -0.0548  0.8006
   25MOL    H4915937   0.191   2.920   0.876 -1.1370  1.0170 -0.6762
   25MOL    H5015938   0.232   3.056   0.956  1.4087  0.7814 -0.2406
   25MOL    H5115939   0.421   2.932   0.752  0.1742  1.0913 -0.5810
   25MOL    H5215940   0.415   3.100   0.794 -0.2889  0.3006  0.2349
   25MOL    H5315941   0.328   3.104   0.581  0.4782  0.7786  0.7679
   25MOL    H5415942   0.193   3.127   0.697 -2.3244 -0.9963 -2.1100
   25MOL    H5515943   0.110   2.924   0.647 -0.7017  1.1361  0.3372
   25MOL    H5615944   0.252   2.859   0.554 -3.8845 -1.9726 -0.6742
   25MOL    H5715945   0.069   3.089   0.484  0.1969 -0.3351 -0.5488
   25MOL    H5815946   0.189   3.029   0.382 -0.5336 -2.5689 -1.2056
   25MOL    H5915947   7.627   2.908   0.458  1.0110  1.0718  0.0194
   25MOL    H6015948   0.038   2.788   0.396 -0.5116 -1.2144  2.1855
   25MOL    H6115949   0.013   2.894   0.181 -0.1467  1.0463 -0.3475
   25MOL    H6215950   7.651   3.034   0.241  1.4512  0.7067 -0.8665
   25MOL    H6315951   7.521   2.756   0.238 -1.2895 -0.0213 -0.0874
   25MOL    H6415952   7.451   2.906   0.317  2.0652  2.2133 -0.0303
   25MOL    H6515953   7.506   2.996   0.071 -1.1312  0.0435 -1.3837
   25MOL    H6615954   7.446   2.834   0.037 -0.6252 -0.9484  1.1141
   25MOL    H6715955   7.340   2.935   0.116 -0.1799 -0.8375  1.1999
   25MOL    C6815956   0.374   2.750   0.974  0.7488 -0.7231 -0.5701
   25MOL    C6915957   0.244   2.659   1.005 -0.3454 -0.4931  0.8089
   25MOL    C7015958   0.234   2.542   0.904 -0.5600 -0.2720 -0.3662
   25MOL    C7115959   0.202   2.590   0.763  0.1280  0.2248 -0.0065
   25MOL    C7215960   0.184   2.472   0.669 -0.6239  0.1151  0.0221
   25MOL    C7315961   0.148   2.521   0.525 -0.1155  0.7467  0.4329
   25MOL    C7415962   0.135   2.399   0.434 -0.3704 -0.1558  0.1021
   25MOL    C7515963   0.085   2.430   0.291  0.2511 -0.1877 -0.3522
   25MOL    C7615964   7.646   2.491   0.285 -0.5065  0.0485 -0.0153
   25MOL    C7715965   7.548   2.429   0.381  0.9644  0.0653 -0.6663
   25MOL    C7815966   7.404   2.487   0.368 -0.5963  0.6991 -0.1144
   25MOL    H7915967   0.453   2.711   1.037 -0.0211  1.0351  1.5403
   25MOL    H8015968   0.419   2.731   0.876  0.8443  1.2108 -0.9214
   25MOL    H8115969   0.156   2.721   0.989  1.2564  2.0049  1.4094
   25MOL    H8215970   0.152   2.478   0.935 -1.0417 -1.1611 -3.3153
   25MOL    H8315971   0.332   2.494   0.902  0.6041  1.9617  1.3060
   25MOL    H8415972   0.118   2.659   0.753  0.6728  0.7889 -0.7856
   25MOL    H8515973   0.292   2.648   0.739  1.1238  0.0194  3.0517
   25MOL    H8615974   0.112   2.399   0.706  1.4761 -1.5456  0.9527
   25MOL    H8715975   0.282   2.425   0.675 -0.0844  1.3278  0.8725
   25MOL    H8815976   0.057   2.581   0.527  1.5607  3.3756 -0.9879
   25MOL    H8915977   0.233   2.584   0.499  0.9915 -0.9338 -0.0870
   25MOL    H9015978   0.077   2.319   0.479 -0.7361  1.2067  2.1461
   25MOL    H9115979   0.235   2.355   0.439 -0.7040 -1.0142 -0.8560
   25MOL    H9215980   0.147   2.498   0.233 -0.2323  0.1028 -0.5187
   25MOL    H9315981   0.101   2.338   0.235  1.8075 -0.2122  0.1019
   25MOL    H9415982   7.644   2.600   0.298  1.3563  0.2850 -1.4588
   25MOL    H9515983   7.621   2.472   0.181 -0.9738 -0.6832  0.2304
   25MOL    H9615984   7.547   2.321   0.364  0.8395  0.2360 -1.7708
   25MOL    H9715985   7.577   2.453   0.483  0.5700  2.3399 -1.0524
   25MOL    H9815986   7.339   2.429   0.433  0.8461  0.7204  1.3681
   25MOL    H9915987   7.361   2.478   0.268 -2.6476  0.6671  0.7543
   25MOL   H10015988   7.406   2.591   0.399 -1.1098  0.6875 -0.0374
   25MOL   C10115989   0.245   2.607   1.155  0.1569 -0.2609  0.1508
   25MOL   C10215990   0.161   2.695   1.261 -0.0680  0.5413  0.1487
   25MOL   C10315991   0.187   2.643   1.405  0.0696  0.7167 -0.0321
   25MOL   C10415992   0.334   2.675   1.454  0.2508  0.3168  0.0983
   25MOL   C10515993   0.344   2.818   1.515 -0.0371 -0.1573  0.7202
   25MOL   C10615994   0.480   2.838   1.585 -0.1521  0.6564  0.0985
   25MOL   C10715995   0.497   2.979   1.640 -0.0065  0.7982  0.0291
   25MOL   C10815996   0.629   3.004   1.714 -0.1405 -0.1008  0.4291
   25MOL   C10915997   0.633   3.153   1.750  0.2094 -0.2147  0.1362
   25MOL   C11015998   0.774   3.189   1.803  0.0885 -0.2610  1.3458
   25MOL   C11115999   0.782   3.327   1.861 -0.1269  0.4077 -0.2824
   25MOL   H11216000   0.201   2.508   1.166 -0.2106  0.1347  2.4580
   25MOL   H11316001   0.347   2.593   1.189  0.9716  1.1338 -1.6630
   25MOL   H11416002   0.194   2.799   1.259 -0.7206  0.7550  0.4616
   25MOL   H11516003   0.111   2.690   1.467 -0.0781 -0.3593  0.5995
   25MOL   H11616004   0.165   2.537   1.394 -1.1106  0.6892  2.2833
   25MOL   H11716005   0.348   2.616   1.544 -1.4697  0.9105  0.7835
   25MOL   H11816006   0.409   2.646   1.381 -0.4049  2.7753 -1.6229
   25MOL   H11916007   0.312   2.895   1.445  0.6374 -0.4060  0.1344
   25MOL   H12016008   0.266   2.828   1.590 -0.8294  0.5380 -0.1931
   25MOL   H12116009   0.485   2.772   1.671  0.1260 -1.2006 -1.3273
   25MOL   H12216010   0.566   2.814   1.523 -0.2921 -0.8288  0.4655
   25MOL   H12316011   0.415   2.997   1.710 -0.7163  3.3788 -1.3672
   25MOL   H12416012   0.474   3.043   1.555  2.1909 -0.9959 -1.9820
   25MOL   H12516013   0.625   2.939   1.801  0.8718 -1.3178 -0.4094
   25MOL   H12616014   0.718   2.975   1.657  1.2438 -0.3338  2.6354
   25MOL   H12716015   0.605   3.222   1.670  0.1948 -0.1483  0.1981
   25MOL   H12816016   0.560   3.172   1.829  0.1328  0.2145 -0.0357
   25MOL   H12916017   0.858   3.177   1.735 -2.6651  0.6477 -2.3260
   25MOL   H13016018   0.798   3.114   1.880  0.1418 -2.3230 -0.6236
   25MOL   H13116019   0.771   3.404   1.785  3.0468 -1.4800 -2.7512
   25MOL   H13216020   0.715   3.338   1.947 -0.7818 -1.0846 -0.5950
   25MOL   H13316021   0.883   3.322   1.903 -0.8380 -1.8307  1.2534
   25MOL   C13416022   0.017   2.682   1.228  0.1819 -0.3710 -0.3706
   25MOL   C13516023   7.636   2.817   1.257 -0.5163 -0.1441 -1.4519
   25MOL   C13616024   7.671   2.926   1.158 -0.0354 -0.1871 -0.0574
   25MOL   C13716025   7.601   2.901   1.016 -0.8695  0.0712  0.0177
   25MOL   C13816026   7.612   3.026   0.928  0.1807  0.7487 -0.6163
   25MOL   C13916027   7.540   3.035   0.788  0.4398  0.0353  0.2783
   25MOL   C14016028   7.566   3.175   0.733 -0.0036 -0.0252 -0.1366
   25MOL   C14116029   7.498   3.208   0.599 -0.2405  0.2393 -0.0832
   25MOL   C14216030   7.558   3.334   0.535  0.0626  0.5751 -0.6053
   25MOL   C14316031   7.469   3.412   0.437  0.3888 -0.1246  0.4717
   25MOL   C14416032   7.365   3.501   0.510 -0.2995 -0.4092  0.0408
   25MOL   H14516033   7.701   2.658   1.123  0.6333 -1.0670 -0.2966
   25MOL   H14616034   7.668   2.596   1.269  0.8895 -0.3325  0.6064
   25MOL   H14716035   7.533   2.786   1.240 -0.6863 -2.4871  3.2428
   25MOL   H14816036   0.075   2.942   1.162 -0.3995  2.5684 -0.2975
   25MOL   H14916037   7.623   3.018   1.192 -1.4122 -1.1083  0.5425
   25MOL   H15016038   7.645   2.816   0.963 -0.0709  1.5705 -1.7599
   25MOL   H15116039   7.501   2.863   1.036 -0.7692  0.0847  0.5655
   25MOL   H15216040   7.578   3.111   0.987  0.9542 -1.4799  3.1627
   25MOL   H15316041   0.013   3.055   0.914  0.7473 -0.0499  1.7421
   25MOL   H15416042   7.575   2.963   0.714 -4.1117  1.1814 -3.2345
   25MOL   H15516043   7.434   3.021   0.804  0.5727  0.9901  2.1903
   25MOL   H15616044   7.526   3.244   0.808  1.9766 -1.1412  2.0261
   25MOL   H15716045   7.668   3.214   0.728  1.0048 -2.3942  1.2754
   25MOL   H15816046   7.525   3.123   0.537 -1.1291  1.1947 -1.8289
   25MOL   H15916047   7.390   3.221   0.610 -0.0938  1.1543  0.3014
   25MOL   H16016048   7.602   3.397   0.612  2.5804 -0.5280 -1.0606
   25MOL   H16116049   7.636   3.301   0.466 -0.5756  1.0387 -1.5494
   25MOL   H16216050   7.542   3.475   0.386  0.0191 -0.5492 -0.5776
   25MOL   H16316051   7.426   3.348   0.361  0.7462  0.0815  0.0974
   25MOL   H16416052   7.417   3.583   0.561 -0.3848 -0.7678  0.7199
   25MOL   H16516053   7.319   3.452   0.595  0.5709 -0.8225  0.2836
   25MOL   H16616054   7.283   3.534   0.447 -1.3112 -1.4117  0.8195
   25MOL   C16716055   7.632   2.856   1.411 -0.0307 -0.3421  0.0407
   25MOL   C16816056   7.545   2.976   1.444  0.5730  0.1414  0.4200
   25MOL   C16916057   7.550   3.013   1.591 -0.0398  0.4197 -0.3553
   25MOL   C17016058   7.676   3.080   1.640  0.2216 -0.4550 -0.1988
   25MOL   C17116059   7.660   3.141   1.780 -0.4264  0.1572  0.1466
   25MOL   C17216060   0.077   3.233   1.810 -0.6165  0.2112  0.1602
   25MOL   C17316061   0.058   3.321   1.936  0.1209 -0.1844  0.0849
   25MOL   C17416062   0.189   3.406   1.955 -0.1150  0.0593 -0.1049
   25MOL   C17516063   0.169   3.492   2.086 -0.2315 -0.4810 -0.3235
   25MOL   C17616064   0.279   3.605   2.095 -0.7244 -0.3827 -0.4666
   25MOL   C17716065   0.272   3.687   2.229  0.6828  0.1279  0.1570
   25MOL   H17816066   7.602   2.767   1.466 -1.5411  0.1121 -0.0350
   25MOL   H17916067   0.031   2.887   1.432 -0.0702 -2.0328  2.9528
   25MOL   H18016068   7.589   3.063   1.397  1.5400  0.0498  1.1461
   25MOL   H18116069   7.528   2.925   1.652 -1.8704 -0.2930 -2.0289
   25MOL   H18216070   7.475   3.089   1.612 -0.3344 -0.0740  0.4066
   25MOL   H18316071   0.050   3.003   1.642 -0.3069 -0.9284  1.8289
   25MOL   H18416072   0.004   3.161   1.573  0.7961 -0.6280 -0.1484
   25MOL   H18516073   7.662   3.061   1.853  1.9714 -1.0219 -1.1581
   25MOL   H18616074   7.568   3.200   1.791 -1.1312 -0.9681  0.3050
   25MOL   H18716075   0.176   3.188   1.805  0.6908  3.2489 -4.1083
   25MOL   H18816076   0.085   3.305   1.728  1.7816 -0.3087 -0.0889
   25MOL   H18916077   0.038   3.254   2.020  1.9956 -0.0329  0.6867
   25MOL   H19016078   7.674   3.384   1.922 -0.0854 -0.7364 -1.1593
   25MOL   H19116079   0.285   3.356   1.955  0.5295  1.2816  1.1285
   25MOL   H19216080   0.201   3.478   1.874  1.7319  1.0549  1.0451
   25MOL   H19316081   0.187   3.423   2.168 -2.8955  0.5991  1.2058
   25MOL   H19416082   0.069   3.533   2.091  0.6972  2.0137 -1.1326
   25MOL   H19516083   0.271   3.669   2.008 -0.1562 -0.7215 -0.7695
   25MOL   H19616084   0.377   3.563   2.075 -0.8474 -0.0498 -1.7870
   25MOL   H19716085   0.327   3.632   2.305  0.9130  2.8262  1.9867
   25MOL   H19816086   0.171   3.708   2.265  1.7971 -0.5509  3.8349
   25MOL   H19916087   0.329   3.779   2.221 -0.6732  0.9498 -0.2944
   25MOL   C20016088   7.399   2.978   1.393  0.1813 -0.4624 -0.0915
   25MOL   C20116089   7.318   3.113   1.389  0.9785  0.2857 -0.1019
   25MOL   C20216090   7.165   3.094   1.371 -0.5455 -0.1873  0.7348
   25MOL   C20316091   7.088   3.021   1.486  0.1638 -0.5482 -0.2323
   25MOL   C20416092   6.937   3.028   1.464  0.4496  0.4102  0.6684
   25MOL   C20516093   6.879   2.977   1.328 -1.1380  0.1377  0.3737
   25MOL   C20616094   6.888   2.820   1.309  0.3252 -0.8291  0.6183
   25MOL   C20716095   6.780   2.774   1.208 -0.3408  0.5716 -0.5256
   25MOL   C20816096   6.798   2.630   1.161  0.1823 -0.8072 -0.1327
   25MOL   C20916097   6.690   2.588   1.061  0.1766  0.4208  0.1940
   25MOL   C21016098   6.547   2.572   1.110 -0.0522  0.5409  0.6763
   25MOL   H21116099   7.395   2.936   1.293  2.1615 -2.0826  0.4876
   25MOL   H21216100   7.342   2.895   1.435  0.8516  0.0612  1.8915
   25MOL   H21316101   7.329   3.158   1.487 -1.6375 -3.6708  2.1839
   25MOL   H21416102   7.155   3.044   1.275 -1.6484  0.9679  0.2169
   25MOL   H21516103   7.123   3.195   1.365 -0.0613  0.0174  0.7644
   25MOL   H21616104   7.102   3.065   1.585  0.7573 -1.9326  0.3051
   25MOL   H21716105   7.122   2.918   1.499 -1.1978 -0.9606  0.2059
   25MOL   H21816106   6.900   3.131   1.474 -0.4635 -0.0272  1.8701
   25MOL   H21916107   6.883   2.980   1.545  1.8796 -2.6181 -0.1162
   25MOL   H22016108   6.774   3.009   1.335 -0.9425  1.2792 -1.5251
   25MOL   H22116109   6.925   3.031   1.245  1.7867  2.1406  3.2103
   25MOL   H22216110   6.858   2.777   1.403 -1.1795  0.2552  0.6457
   25MOL   H22316111   6.986   2.783   1.277 -0.0563 -1.1430 -0.2097
   25MOL   H22416112   6.792   2.844   1.125 -0.5946  2.3006  0.8593
   25MOL   H22516113   6.678   2.783   1.245 -0.6790  1.2714 -1.6057
   25MOL   H22616114   6.800   2.558   1.243 -0.2923 -0.5177  0.1353
   25MOL   H22716115   6.898   2.614   1.120 -0.6492  0.8198 -2.8732
   25MOL   H22816116   6.691   2.632   0.961 -1.1889 -0.9809 -0.4641
   25MOL   H22916117   6.716   2.485   1.037 -1.5276  0.1306 -0.4999
   25MOL   H23016118   6.550   2.529   1.210 -0.7132 -1.4435 -0.1415
   25MOL   H23116119   6.479   2.514   1.049 -0.5551 -0.3455  2.0546
   25MOL   H23216120   6.524   2.679   1.116 -0.8730  0.5933 -2.5943
   25MOL   C23316121   7.368   3.225   1.288 -0.0388 -0.5290 -0.6355
   25MOL   C23416122   7.362   3.374   1.342  0.2070  0.3352  0.2766
   25MOL   C23516123   7.436   3.379   1.480 -0.2333 -0.8631  0.1626
   25MOL   C23616124   7.494   3.519   1.510  0.5442 -0.0165  0.0164
   25MOL   C23716125   7.531   3.534   1.655  0.1290  0.1432 -0.2084
   25MOL   C23816126   7.579   3.678   1.692  0.4002 -0.7294  0.4182
   25MOL   C23916127   7.631   3.682   1.835  0.4607  0.7658  0.3040
   25MOL   C24016128   7.648   3.825   1.893  0.0678 -0.6322 -0.0279
   25MOL   C24116129   7.675   3.840   2.038  0.2604 -0.0780 -0.5905
   25MOL   C24216130   0.003   3.985   2.082 -0.2075  0.4321  1.0608
   25MOL   C24316131   7.587   4.077   2.108  0.4691  0.3324  0.3170
   25MOL   H24416132   7.311   3.222   1.195 -0.6714 -1.0675 -0.2386
   25MOL   H24516133   7.472   3.204   1.262  0.0956 -0.7625  0.0850
   25MOL   H24616134   7.428   3.423   1.270 -0.5076 -1.2193 -1.4526
   25MOL   H24716135   7.366   3.352   1.559 -0.5882  0.0940  0.1888
   25MOL   H24816136   7.523   3.314   1.485  0.9305  0.6371 -0.2772
   25MOL   H24916137   7.434   3.597   1.463 -0.1119 -0.5724 -0.0725
   25MOL   H25016138   7.587   3.519   1.453  0.2611  0.9148 -0.4657
   25MOL   H25116139   7.620   3.472   1.655 -0.6309 -0.9560  0.2600
   25MOL   H25216140   7.455   3.490   1.720  0.4251  0.9540  0.6943
   25MOL   H25316141   7.500   3.752   1.680  2.4314  1.3881 -0.2831
   25MOL   H25416142   7.662   3.709   1.628  0.2673 -2.0043 -0.3983
   25MOL   H25516143   7.573   3.620   1.904  0.3807 -1.7256 -1.9056
   25MOL   H25616144   0.026   3.635   1.829 -0.2650 -0.8228  0.4634
   25MOL   H25716145   0.034   3.869   1.847 -0.5609 -0.8762 -1.5071
   25MOL   H25816146   7.556   3.878   1.870 -0.4312 -1.3769  0.2743
   25MOL   H25916147   7.588   3.794   2.083 -0.4047 -1.1311 -2.8977
   25MOL   H26016148   0.051   3.769   2.064  0.0961  0.3258  1.0971
   25MOL   H26116149   0.079   4.023   2.014  3.3129 -3.0546  2.8044
   25MOL   H26216150   0.061   3.987   2.175  2.4768 -0.4284 -0.5262
   25MOL   H26316151   7.616   4.181   2.121 -3.0106  1.2952  1.0696
   25MOL   H26416152   7.524   4.044   2.191  0.2593 -1.7368 -0.6457
   25MOL   H26516153   7.513   4.085   2.028  1.5082  2.8404 -0.4397
   25MOL   C26616154   7.227   3.450   1.336 -0.0129 -0.0365  0.2353
   25MOL   C26716155   7.149   3.455   1.201  0.4624  0.5998  0.1362
   25MOL   C26816156   7.228   3.485   1.073  0.2471 -0.5598  0.4059
   25MOL   C26916157   7.296   3.617   1.066  0.5704  0.1271  0.7240
   25MOL   C27016158   7.367   3.644   0.929  0.2997  0.2618  0.2515
   25MOL   C27116159   7.464   3.764   0.935 -0.5243  0.0602 -0.8506
   25MOL   C27216160   7.514   3.812   0.795  0.4855 -0.8989 -0.3519
   25MOL   C27316161   7.632   3.726   0.746  0.3352 -0.7437  0.0104
   25MOL   C27416162   7.679   3.785   0.607  0.0407 -0.1940 -0.5134
   25MOL   C27516163   0.119   3.741   0.559 -0.0686  0.6324 -1.5124
   25MOL   C27616164   0.126   3.781   0.417 -0.0899  0.0749 -0.1157
   25MOL   H27716165   7.250   3.551   1.368  1.7587 -0.2798 -0.2174
   25MOL   H27816166   7.165   3.407   1.415  1.4168  0.3530  1.5969
   25MOL   H27916167   7.103   3.358   1.182  0.2082  1.0026 -1.3625
   25MOL   H28016168   7.310   3.415   1.056  0.3104 -0.1116 -1.1628
   25MOL   H28116169   7.159   3.468   0.990 -0.2984 -1.8725  1.1027
   25MOL   H28216170   7.365   3.610   1.150  0.0148  0.0358  1.1806
   25MOL   H28316171   7.231   3.702   1.087 -2.1682 -1.4127 -1.1532
   25MOL   H28416172   7.294   3.657   0.849 -2.4297 -1.2811  2.4363
   25MOL   H28516173   7.419   3.556   0.890  1.5219  1.8542 -1.8892
   25MOL   H28616174   7.553   3.752   0.998 -0.2815 -0.2614 -1.2499
   25MOL   H28716175   7.418   3.850   0.983  0.6241  0.2264 -0.0162
   25MOL   H28816176   7.429   3.811   0.726 -0.3462  2.7777  0.5041
   25MOL   H28916177   7.549   3.915   0.785  1.3778 -1.2567 -0.9474
   25MOL   H29016178   7.586   3.631   0.719  0.7226 -1.4168  1.6730
   25MOL   H29116179   0.003   3.717   0.825 -0.2485 -2.1881  0.4063
   25MOL   H29216180   7.606   3.748   0.534 -0.6210 -0.7397  0.4138
   25MOL   H29316181   7.667   3.893   0.601 -1.7048 -0.3807 -0.6570
   25MOL   H29416182   0.130   3.633   0.569 -1.6317  0.5713 -0.1215
   25MOL   H29516183   0.185   3.797   0.625 -0.5333 -0.0778 -0.4358
   25MOL   H29616184   0.221   3.754   0.370  0.3261 -1.5562  1.6196
   25MOL   H29716185   0.118   3.888   0.398 -0.9759  0.2024  0.9285
   25MOL   H29816186   0.047   3.738   0.355 -0.3320  0.8915 -0.3779
   25MOL   C29916187   7.023   3.551   1.215  0.1059 -0.2496  0.6072
   25MOL   C30016188   6.894   3.480   1.277 -1.0818  0.0861 -0.1843
   25MOL   C30116189   6.817   3.405   1.163  0.5389 -0.4640  0.3318
   25MOL   C30216190   6.704   3.301   1.208  0.3360  0.1964  0.3597
   25MOL   C30316191   6.667   3.194   1.102 -0.1912 -0.3213 -0.2501
   25MOL   C30416192   6.556   3.103   1.159 -0.1152 -0.1848  0.3575
   25MOL   C30516193   6.489   3.017   1.055 -0.1264 -0.3903  0.1476
   25MOL   C30616194   6.345   2.961   1.097 -0.2901 -0.5029  0.6540
   25MOL   C30716195   6.276   2.894   0.975 -0.0647 -0.0054 -0.3870
   25MOL   C30816196   6.141   2.835   1.015  0.1094 -0.2905  0.4456
   25MOL   C30916197   6.155   2.712   1.098  0.4887 -0.2348 -0.0783
   25MOL   H31016198   6.997   3.593   1.118  1.3485  3.3339  1.7734
   25MOL   H31116199   7.053   3.637   1.275  2.6391 -0.8218  0.2182
   25MOL   H31216200   6.929   3.396   1.336 -1.8134 -1.5476 -2.0152
   25MOL   H31316201   6.767   3.478   1.100 -1.7178 -2.0803  0.1773
   25MOL   H31416202   6.884   3.351   1.096  0.4366  1.7292 -1.6099
   25MOL   H31516203   6.744   3.241   1.290 -0.9428 -0.2051  0.7110
   25MOL   H31616204   6.610   3.348   1.236 -0.5876 -1.8098  0.7002
   25MOL   H31716205   6.631   3.242   1.011  0.4822 -1.9185 -1.3906
   25MOL   H31816206   6.756   3.139   1.071  0.6513  1.9175 -1.9708
   25MOL   H31916207   6.475   3.167   1.195 -1.0523 -0.8203 -0.5723
   25MOL   H32016208   6.581   3.041   1.245 -0.7287 -0.1096  0.5929
   25MOL   H32116209   6.483   3.072   0.961 -0.2836 -0.5854  0.0420
   25MOL   H32216210   6.563   2.938   1.038  0.6074  0.5473 -1.0699
   25MOL   H32316211   6.278   3.038   1.134 -1.3415 -1.2512  0.3185
   25MOL   H32416212   6.370   2.887   1.173  1.1770  0.6651  1.3374
   25MOL   H32516213   6.334   2.815   0.928  2.0442 -0.3700  2.6878
   25MOL   H32616214   6.246   2.971   0.904  0.6025  0.2985 -0.3392
   25MOL   H32716215   6.074   2.825   0.930  1.6622  1.1225 -0.9789
   25MOL   H32816216   6.087   2.908   1.076 -0.2043 -0.8521  0.8422
   25MOL   H32916217   6.058   2.666   1.120  1.3469  0.1760  4.9732
   25MOL   H33016218   6.212   2.630   1.055 -1.2972 -1.3842 -0.3170
   25MOL   H33116219   6.184   2.740   1.199 -0.7497  1.5809 -0.1997
   25MOL   C33216220   6.794   3.572   1.353  0.7823 -0.5355 -0.4350
   25MOL   C33316221   6.839   3.624   1.497  0.6077 -0.2379  0.4498
   25MOL   C33416222   6.789   3.523   1.603  0.1979  0.4717 -0.1144
   25MOL   C33516223   6.855   3.526   1.736 -0.1231  0.3577 -0.1496
   25MOL   C33616224   6.822   3.422   1.845 -0.0276  0.0276  0.1964
   25MOL   C33716225   6.910   3.436   1.977  0.3703 -0.3668  0.5539
   25MOL   C33816226   6.862   3.353   2.096 -0.2460 -0.2840  0.4065
   25MOL   C33916227   6.915   3.392   2.234 -0.0507  0.0303 -0.2036
   25MOL   C34016228   6.889   3.533   2.287 -0.7607  0.7906  0.2083
   25MOL   C34116229   6.924   3.558   2.438  0.1786 -0.6218 -0.3267
   25MOL   C34216230   6.864   3.691   2.488 -0.2919  0.3975  0.1801
   25MOL   H34316231   6.771   3.656   1.288 -0.8849 -0.7308 -0.1132
   25MOL   H34416232   6.701   3.516   1.359  1.9277 -2.5163 -0.7233
   25MOL   H34516233   6.947   3.610   1.494  0.5637 -0.4976  0.0872
   25MOL   H34616234   6.806   3.425   1.560  2.2141  1.1737 -0.9584
   25MOL   H34716235   6.680   3.533   1.609  0.5464  3.8419  1.5621
   25MOL   H34816236   6.963   3.527   1.728  0.1323  0.9410  2.6904
   25MOL   H34916237   6.832   3.619   1.790  1.4968 -0.1179  1.4041
   25MOL   H35016238   6.716   3.428   1.869 -0.4140 -0.9602 -1.1862
   25MOL   H35116239   6.831   3.320   1.807 -1.2936 -0.2109  0.5096
   25MOL   H35216240   6.904   3.542   2.003  2.4780  0.1373 -0.9575
   25MOL   H35316241   7.015   3.429   1.952  0.2362 -1.7244  0.3124
   25MOL   H35416242   6.904   3.254   2.075  1.1131  0.6087 -1.1771
   25MOL   H35516243   6.755   3.340   2.110 -0.3274 -0.7374 -0.5290
   25MOL   H35616244   6.871   3.324   2.307  0.5842  0.3755  0.5054
   25MOL   H35716245   7.022   3.373   2.247 -0.2275  0.3696  1.9023
   25MOL   H35816246   6.784   3.556   2.270 -2.0410 -4.3898  0.1435
   25MOL   H35916247   6.942   3.600   2.219  0.1207 -1.2990 -1.2246
   25MOL   H36016248   7.028   3.538   2.463  0.0467 -0.1476  0.6155
   25MOL   H36116249   6.879   3.472   2.486  2.4305 -1.9814 -0.5799
   25MOL   H36216250   6.882   3.698   2.595 -1.3285 -1.0854  0.4693
   25MOL   H36316251   6.904   3.780   2.440 -0.8640 -0.0723 -1.2162
   25MOL   H36416252   6.756   3.692   2.472 -0.4067  0.5255  0.9742
   25MOL   C36516253   6.798   3.774   1.525 -0.0544 -0.6298  0.5645
   25MOL   C36616254   6.887   3.886   1.457  0.4002  0.4890  0.6208
   25MOL   C36716255   6.821   4.024   1.451  0.2699 -0.0707  0.7259
   25MOL   C36816256   6.675   4.022   1.403  0.0903 -0.0229  0.1447
   25MOL   C36916257   6.618   4.164   1.367 -0.7255 -0.6808  0.7872
   25MOL   C37016258   6.469   4.154   1.330 -0.5868 -0.6885 -0.2632
   25MOL   C37116259   6.424   4.296   1.301  0.4288 -0.4474  0.1032
   25MOL   C37216260   6.276   4.312   1.291  0.1121  0.0745  0.2325
   25MOL   C37316261   6.233   4.456   1.264 -0.4348  0.8038 -0.2828
   25MOL   C37416262   6.089   4.472   1.228 -0.2692 -0.2409 -0.1485
   25MOL   C37516263   6.048   4.617   1.203  0.5734  0.1831 -0.3671
   25MOL   H37616264   6.696   3.779   1.486 -0.1009 -0.6209  0.6858
   25MOL   H37716265   6.802   3.786   1.633  1.1220 -1.9788  0.6838
   25MOL   H37816266   6.895   3.854   1.353  1.1694 -1.0228  1.1195
   25MOL   H37916267   6.881   4.086   1.385  1.1221  0.2176  1.7604
   25MOL   H38016268   6.823   4.072   1.549  1.0715  0.9842  0.2062
   25MOL   H38116269   6.620   3.975   1.485 -1.5135  1.0462 -0.2900
   25MOL   H38216270   6.666   3.957   1.316 -0.9110 -0.2517  0.4136
   25MOL   H38316271   6.675   4.186   1.276  0.6950 -0.5381  1.6981
   25MOL   H38416272   6.645   4.236   1.444  1.4499 -0.8103  0.1809
   25MOL   H38516273   6.412   4.108   1.411 -1.0330  0.5930  0.1661
   25MOL   H38616274   6.476   4.087   1.244 -1.1262 -1.7790  0.5325
   25MOL   H38716275   6.468   4.365   1.373 -0.7806 -0.1484  0.5739
   25MOL   H38816276   6.457   4.321   1.200 -2.0615 -1.2891 -0.9478
   25MOL   H38916277   6.228   4.267   1.378  2.6861 -1.0944  1.1020
   25MOL   H39016278   6.242   4.250   1.208 -0.7816  0.0048  0.6482
   25MOL   H39116279   6.256   4.516   1.352 -0.1630 -0.9722  0.8714
   25MOL   H39216280   6.298   4.488   1.182  1.9253 -0.7566  0.8977
   25MOL   H39316281   6.076   4.408   1.141 -1.0035  0.1563 -0.3325
   25MOL   H39416282   6.023   4.427   1.302 -0.6331  1.7993  0.7956
   25MOL   H39516283   5.939   4.614   1.193  0.4684  0.0148  0.7130
   25MOL   H39616284   6.085   4.655   1.108 -1.0552  0.7509 -0.7931
   25MOL   H39716285   6.078   4.690   1.279 -0.7342  1.9518 -1.4897
   25MOL   C39816286   7.032   3.885   1.508 -0.2805 -0.2753  0.3368
   25MOL   C39916287   7.137   3.979   1.436  0.5879  0.3598 -0.3004
   25MOL   C40016288   7.138   3.950   1.283  0.3326  0.6044 -0.3233
   25MOL   C40116289   7.213   4.054   1.195 -0.0599  0.0477 -0.5734
   25MOL   C40216290   7.175   4.057   1.045  0.4163  0.0284  0.3613
   25MOL   C40316291   7.245   4.171   0.960  0.1985 -0.0800  0.5253
   25MOL   C40416292   7.195   4.159   0.811 -0.0648 -0.2592  0.3165
   25MOL   C40516293   7.294   4.073   0.733  0.2931 -0.1184  0.2455
   25MOL   C40616294   7.259   4.068   0.583  0.5064  0.6713  0.7456
   25MOL   C40716295   7.361   4.009   0.489  0.2883  0.4329 -0.6893
   25MOL   C40816296   7.321   4.006   0.340 -0.3719  0.4819 -0.2425
   25MOL   H40916297   7.078   3.787   1.500 -0.1012 -0.0570 -1.7460
   25MOL   H41016298   7.032   3.906   1.615 -0.7337 -1.7946  0.6485
   25MOL   H41116299   7.097   4.078   1.457  0.8781  0.8660 -2.0255
   25MOL   H41216300   7.041   3.957   1.233  0.5091  0.6328 -0.6622
   25MOL   H41316301   7.180   3.852   1.260 -1.3778 -0.2788  0.2342
   25MOL   H41416302   7.201   4.157   1.230 -1.2641 -0.1318 -0.4487
   25MOL   H41516303   7.316   4.030   1.220 -0.4888 -1.8396 -0.5691
   25MOL   H41616304   7.203   3.963   0.998  0.2658  0.1818 -0.0288
   25MOL   H41716305   7.069   4.077   1.038  0.6424  1.5747  1.0641
   25MOL   H41816306   7.353   4.167   0.972  0.2186  0.6361  0.6481
   25MOL   H41916307   7.209   4.267   0.999  0.4579  0.9112 -1.5687
   25MOL   H42016308   7.094   4.118   0.817  0.0439 -0.5065  0.4600
   25MOL   H42116309   7.190   4.263   0.778 -0.3083 -1.1101 -2.4567
   25MOL   H42216310   7.291   3.972   0.775  1.8669 -0.2477  0.0698
   25MOL   H42316311   7.393   4.116   0.744  0.1119  0.7506 -1.3495
   25MOL   H42416312   7.174   4.000   0.574  1.6779 -0.9854  2.0232
   25MOL   H42516313   7.226   4.166   0.548 -2.6822  0.0772  1.8858
   25MOL   H42616314   7.411   3.919   0.527  2.6467  1.0050 -2.2870
   25MOL   H42716315   7.449   4.073   0.495  0.1058  0.5055  1.4648
   25MOL   H42816316   7.390   3.962   0.269 -2.1885 -1.8594 -0.6137
   25MOL   H42916317   7.308   4.106   0.297 -2.6371  1.2139  2.0001
   25MOL   H43016318   7.228   3.950   0.333  0.9846 -2.3943  3.2484
   25MOL   C43116319   7.276   3.967   1.508  0.3377 -1.0142  0.1865
   25MOL   C43216320   7.356   4.096   1.520 -0.5652 -1.3079 -0.6822
   25MOL   C43316321   7.504   4.067   1.535  0.7525 -0.8298 -1.2021
   25MOL   C43416322   7.570   3.969   1.438  0.2519  0.7118  0.0648
   25MOL   C43516323   0.018   3.976   1.435  0.9118  0.0768  0.5784
   25MOL   C43616324   0.084   3.894   1.322  0.3765  0.7304 -0.4432
   25MOL   C43716325   0.064   3.750   1.312 -0.4964  0.0480  0.6345
   25MOL   C43816326   0.137   3.688   1.197  0.3744  0.3036 -0.4945
   25MOL   C43916327   0.169   3.540   1.221  0.3254  0.8586  0.2703
   25MOL   C44016328   0.042   3.448   1.198  0.2371  0.2456 -0.6598
   25MOL   C44116329   0.053   3.309   1.256 -0.1811  0.5218 -0.0840
   25MOL   H44216330   7.331   3.879   1.474 -0.2859  0.1155 -4.0438
   25MOL   H44316331   7.255   3.932   1.609 -2.1842  0.8662  0.3660
   25MOL   H44416332   7.342   4.139   1.420 -2.5267 -0.3770 -0.0268
   25MOL   H44516333   7.558   4.162   1.530 -1.4813  0.4729 -1.1313
   25MOL   H44616334   7.515   4.018   1.632 -2.6354  0.1584 -0.2542
   25MOL   H44716335   7.533   3.990   1.338  0.3006  2.6804  0.4500
   25MOL   H44816336   7.541   3.866   1.460 -0.2783  0.8985  0.2381
   25MOL   H44916337   0.054   3.930   1.527  1.3242  1.0551  0.9070
   25MOL   H45016338   0.065   4.074   1.430  0.2359  0.3964  0.3212
   25MOL   H45116339   0.191   3.911   1.333  0.1695  1.4845  0.4906
   25MOL   H45216340   0.066   3.944   1.227 -0.1233  1.2650 -0.0760
   25MOL   H45316341   7.660   3.737   1.299 -0.4287 -0.9570  1.0864
   25MOL   H45416342   0.104   3.707   1.403  0.4727  1.4068  0.8737
   25MOL   H45516343   0.099   3.706   1.096  2.1896 -0.0359 -1.2635
   25MOL   H45616344   0.230   3.744   1.185  1.0156 -0.5787  0.2554
   25MOL   H45716345   0.213   3.528   1.320  1.8682 -1.3004 -0.6269
   25MOL   H45816346   0.246   3.510   1.150 -1.1934  1.9294 -1.8615
   25MOL   H45916347   0.006   3.432   1.096 -1.5343 -2.0369  0.2626
   25MOL   H46016348   7.662   3.497   1.249  1.3204  0.7692  0.6301
   25MOL   H46116349   7.677   3.238   1.235  0.5231 -0.1884 -0.3677
   25MOL   H46216350   0.152   3.267   1.235 -0.8544 -1.0163 -0.2323
   25MOL   H46316351   0.060   3.328   1.364  1.7651  0.1546 -0.1224
   25MOL   C46416352   7.302   4.194   1.626 -0.8019  0.6128  0.1604
   25MOL   C46516353   7.374   4.333   1.644 -0.2352  0.7442 -0.0833
   25MOL   C46616354   7.326   4.444   1.549 -0.4750 -0.1818 -0.2118
   25MOL   C46716355   7.392   4.448   1.415  0.2409  0.7410 -0.6397
   25MOL   C46816356   7.539   4.493   1.409 -0.4764 -0.3641 -0.0719
   25MOL   C46916357   7.606   4.483   1.262  0.2952 -0.7176 -0.7009
   25MOL   C47016358   7.630   4.334   1.225 -0.1544 -0.2262  0.3948
   25MOL   C47116359   7.638   4.296   1.079 -0.0873  0.7294 -0.1000
   25MOL   C47216360   7.689   4.152   1.060 -0.0778 -0.1449  0.8394
   25MOL   C47316361   0.048   4.127   0.925 -0.2365  0.6933  1.5697
   25MOL   C47416362   0.100   3.984   0.913 -0.2665 -0.2729 -0.3225
   25MOL   H47516363   7.339   4.146   1.717  0.5544  2.2070  0.4742
   25MOL   H47616364   7.195   4.212   1.621 -0.1494  4.0762 -2.7981
   25MOL   H47716365   7.481   4.324   1.627 -0.4004  1.5377 -1.6865
   25MOL   H47816366   7.328   4.546   1.586  0.2003  0.3513 -1.6579
   25MOL   H47916367   7.222   4.421   1.526  0.0836 -1.5746 -1.4670
   25MOL   H48016368   7.379   4.351   1.366 -1.1884  0.7280 -0.2335
   25MOL   H48116369   7.329   4.521   1.364 -1.5581  0.5621  1.2552
   25MOL   H48216370   7.594   4.430   1.479  1.1214  3.1100  1.9232
   25MOL   H48316371   7.535   4.591   1.455  1.9570  0.7475 -2.0575
   25MOL   H48416372   7.534   4.519   1.189 -0.6547 -1.6914 -0.2705
   25MOL   H48516373   7.699   4.540   1.262 -0.0269 -0.1956 -1.9067
   25MOL   H48616374   0.027   4.312   1.261  0.3674 -0.5279 -1.1748
   25MOL   H48716375   7.556   4.264   1.263 -1.2975 -0.2344 -1.7282
   25MOL   H48816376   7.552   4.314   1.015 -1.2390  1.2120  1.5362
   25MOL   H48916377   0.013   4.361   1.039  2.1365 -2.3019 -0.8025
   25MOL   H49016378   0.064   4.127   1.132  0.2368 -0.2327  0.4699
   25MOL   H49116379   7.605   4.087   1.084 -1.1296  1.4393  1.5620
   25MOL   H49216380   7.674   4.144   0.850  0.4425  0.1178  0.7270
   25MOL   H49316381   0.139   4.185   0.912  0.3467 -0.3076  1.1113
   25MOL   H49416382   0.194   3.960   0.963  0.2797 -0.8555 -1.5982
   25MOL   H49516383   0.127   3.965   0.809  2.4615 -0.7878  0.4426
   25MOL   H49616384   0.022   3.913   0.940 -0.8552 -0.8818 -3.4392
   25MOL   C49716385   7.369   4.379   1.789 -0.1062 -0.1327  0.1752
   25MOL   C49816386   7.498   4.466   1.820  0.1326  0.0737 -0.1363
   25MOL   C49916387   7.608   4.373   1.878 -0.0921 -0.7162  0.6425
   25MOL   C50016388   0.052   4.404   1.853 -0.8470 -0.3572  0.0118
   25MOL   C50116389   0.084   4.411   1.698  0.4103 -0.1749  0.0754
   25MOL   C50216390   0.237   4.429   1.671 -0.3409  0.5365  0.6130
   25MOL   C50316391   0.280   4.436   1.527  0.2818 -0.1980  0.3205
   25MOL   C50416392   0.277   4.295   1.444  0.1275  0.2877 -0.1483
   25MOL   C50516393   0.360   4.308   1.317  0.2590  0.3862 -0.5294
   25MOL   C50616394   0.363   4.181   1.231 -0.5858 -0.5586 -0.2382
   25MOL   C50716395   0.418   4.218   1.096 -1.0910  0.2076  0.7947
   25MOL   H50816396   7.288   4.452   1.793  0.4676  0.5984 -1.0911
   25MOL   H50916397   7.346   4.303   1.864 -0.0991  1.6997  2.0751
   25MOL   H51016398   7.539   4.508   1.728  1.9980 -1.2350  0.0784
   25MOL   H51116399   7.590   4.271   1.847 -1.7320 -0.1746 -0.2537
   25MOL   H51216400   7.586   4.373   1.985 -0.3239  0.3372  0.6012
   25MOL   H51316401   0.109   4.329   1.908  1.6121  0.7714 -0.9064
   25MOL   H51416402   0.075   4.493   1.910  0.4400  0.1794 -1.2966
   25MOL   H51516403   0.033   4.329   1.648 -1.2835  1.2190 -0.5214
   25MOL   H51616404   0.037   4.500   1.656 -0.4202 -0.5162  0.2721
   25MOL   H51716405   0.279   4.508   1.734 -1.1363  1.1737  0.3530
   25MOL   H51816406   0.289   4.343   1.714  3.6158  2.7736  0.5842
   25MOL   H51916407   0.226   4.516   1.475  0.6524 -0.3781 -0.3500
   25MOL   H52016408   0.385   4.466   1.528  0.4786 -0.5953 -2.6900
   25MOL   H52116409   0.171   4.283   1.420  0.4167  0.3959 -1.5089
   25MOL   H52216410   0.321   4.210   1.497  1.3140  0.4228 -0.9046
   25MOL   H52316411   0.464   4.334   1.339  0.6766 -1.3159 -0.4301
   25MOL   H52416412   0.315   4.390   1.262  0.1361  0.4302 -0.3642
   25MOL   H52516413   0.258   4.151   1.230 -0.2881 -1.8135  2.3526
   25MOL   H52616414   0.415   4.103   1.287 -5.4232 -2.6530  1.6285
   25MOL   H52716415   0.356   4.295   1.050  1.9309  2.2914  0.0563
   25MOL   H52816416   0.427   4.129   1.034  2.3384  0.1925  1.1970
   25MOL   H52916417   0.516   4.263   1.113 -1.6150  2.0316 -0.8957
   25MOL   C53016418   7.468   4.574   1.930 -0.7226 -0.0264 -0.2984
   25MOL   C53116419   7.384   4.698   1.904  0.4456 -0.8078  0.5740
   25MOL   C53216420   7.471   4.803   1.832  0.4399 -0.6303  0.1115
   25MOL   C53316421   7.406   4.917   1.748 -0.2832  0.3748 -1.1001
   25MOL   C53416422   7.310   4.878   1.644  0.5679 -0.4909  0.0554
   25MOL   C53516423   7.268   4.982   1.543  0.2494 -0.2222 -0.4856
   25MOL   C53616424   7.137   4.940   1.470 -0.2001 -0.5733  0.6379
   25MOL   C53716425   7.014   4.948   1.564  0.3277  0.3209 -0.2404
   25MOL   C53816426   6.880   4.953   1.481 -0.3170  0.1305  0.1508
   25MOL   C53916427   6.841   5.088   1.414 -0.7342  0.3703  0.0027
   25MOL   C54016428   6.789   5.196   1.511  0.6176 -0.0614  0.3426
   25MOL   H54116429   7.409   4.514   2.000 -0.4398 -1.3168 -1.1442
   25MOL   H54216430   7.555   4.608   1.986 -0.9064 -0.0829  0.0278
   25MOL   H54316431   7.309   4.666   1.831  1.3008 -1.4420 -0.0386
   25MOL   H54416432   7.540   4.755   1.763  0.9342 -1.4442  1.1473
   25MOL   H54516433   7.534   4.846   1.911 -0.3941  0.9309 -0.0539
   25MOL   H54616434   7.487   4.978   1.707  1.7218 -1.3476  0.2086
   25MOL   H54716435   7.346   4.977   1.816 -0.0526 -0.7799  0.1382
   25MOL   H54816436   7.216   4.842   1.686 -0.0519 -0.0980 -0.9763
   25MOL   H54916437   7.356   4.790   1.598 -0.6914 -1.0645 -0.1081
   25MOL   H55016438   7.347   4.999   1.470  0.4159 -0.3403 -0.3315
   25MOL   H55116439   7.255   5.084   1.580  1.0672 -0.3186  0.0792
   25MOL   H55216440   7.148   4.840   1.428  1.1512 -1.1852  2.3804
   25MOL   H55316441   7.118   5.001   1.381  1.6215  0.2081  0.7723
   25MOL   H55416442   7.024   5.036   1.628 -1.2643 -0.4426  1.0842
   25MOL   H55516443   7.014   4.863   1.632  1.1190  0.0389 -0.5878
   25MOL   H55616444   6.804   4.927   1.555 -2.0619  1.5547 -1.0995
   25MOL   H55716445   6.865   4.872   1.409  2.2242  0.2126 -0.5368
   25MOL   H55816446   6.750   5.064   1.359 -0.6288 -1.1865  0.4546
   25MOL   H55916447   6.924   5.133   1.361 -1.7077 -0.4968 -2.3170
   25MOL   H56016448   6.702   5.161   1.565 -0.4171  0.9046 -0.6669
   25MOL   H56116449   6.873   5.219   1.576  1.1201 -2.8677  0.7346
   25MOL   H56216450   6.757   5.285   1.457  0.9348 -1.1498 -1.6913
   25MOL   C56316451   7.309   4.761   2.021  0.5026 -0.4484 -0.1649
   25MOL   C56416452   7.187   4.678   2.076 -0.1607 -0.6027 -0.0265
   25MOL   C56516453   7.061   4.698   1.993 -0.4395 -0.3120  0.9543
   25MOL   C56616454   7.036   4.609   1.870 -1.0505  0.2027  0.1329
   25MOL   C56716455   6.894   4.614   1.826 -0.1592  0.0031 -0.1779
   25MOL   C56816456   6.870   4.520   1.709 -0.0245 -0.4818  0.9407
   25MOL   C56916457   6.937   4.560   1.570  0.1980 -0.2056  0.1835
   25MOL   C57016458   6.907   4.466   1.452  0.1007 -0.3589 -0.2433
   25MOL   C57116459   6.989   4.499   1.320  0.4390  0.2225  0.4245
   25MOL   C57216460   6.983   4.377   1.222  0.0123 -0.0686  0.0437
   25MOL   C57316461   6.850   4.396   1.146 -0.1741  0.6349 -0.2910
   25MOL   H57416462   7.259   4.855   1.997  2.4964  0.9096  0.8546
   25MOL   H57516463   7.381   4.775   2.102  1.2398 -2.4704 -0.4245
   25MOL   H57616464   7.222   4.575   2.071  0.4352 -0.5082  1.9818
   25MOL   H57716465   7.058   4.801   1.957  0.2302 -0.6320 -0.0205
   25MOL   H57816466   6.975   4.701   2.060 -0.5376 -0.0819  0.8172
   25MOL   H57916467   7.061   4.504   1.882  1.4971  0.8146  0.4589
   25MOL   H58016468   7.099   4.649   1.791 -0.3884 -0.4061  0.3568
   25MOL   H58116469   6.882   4.711   1.777 -1.9866  1.3796  2.8292
   25MOL   H58216470   6.818   4.595   1.902 -2.3759  0.3614 -2.2265
   25MOL   H58316471   6.894   4.416   1.730 -0.2590 -0.7887 -0.2578
   25MOL   H58416472   6.762   4.514   1.695  0.2142 -1.0140 -0.8325
   25MOL   H58516473   6.922   4.663   1.537  0.8726 -0.2882 -0.3783
   25MOL   H58616474   7.045   4.561   1.581  0.3944 -1.2424 -1.5108
   25MOL   H58716475   6.799   4.466   1.444  0.2065  0.8496 -2.0180
   25MOL   H58816476   6.934   4.361   1.469 -2.3535 -1.3277 -2.1174
   25MOL   H58916477   7.093   4.503   1.352  0.4799 -1.4015  0.5519
   25MOL   H59016478   6.968   4.592   1.267 -0.9383 -0.1437  0.3170
   25MOL   H59116479   6.990   4.282   1.275 -1.1428  0.1453  0.6130
   25MOL   H59216480   7.075   4.382   1.163 -0.6358  1.7098 -0.8611
   25MOL   H59316481   6.857   4.496   1.105  2.4102  0.6654  0.1807
   25MOL   H59416482   6.840   4.332   1.058  0.5590 -2.1761  1.6146
   25MOL   H59516483   6.764   4.382   1.212  0.1648  1.5331  0.3532
   25MOL   C59616484   7.160   4.714   2.228 -0.8082  0.1557  0.0166
   25MOL   C59716485   7.274   4.694   2.327  1.1811  0.0761  0.0096
   25MOL   C59816486   7.323   4.544   2.319 -0.5654 -0.0896  0.3889
   25MOL   C59916487   7.215   4.434   2.342 -0.5509  0.1654 -0.4133
   25MOL   C60016488   7.267   4.295   2.303  0.0737 -0.2616  0.7465
   25MOL   C60116489   7.160   4.177   2.321  0.2428  0.4576 -0.3472
   25MOL   C60216490   7.227   4.038   2.288 -0.1506 -0.3973  0.8229
   25MOL   C60316491   7.143   3.914   2.304  0.6470  0.2400  0.0634
   25MOL   C60416492   7.214   3.785   2.243 -0.6394  0.3309  0.0743
   25MOL   C60516493   7.237   3.800   2.093  0.3625 -0.4350  0.8861
   25MOL   C60616494   7.271   3.676   2.018  0.2736  0.1360  0.0131
   25MOL   H60716495   7.152   4.823   2.228  0.4350  0.2566 -0.3657
   25MOL   H60816496   7.077   4.650   2.255 -0.7651 -0.5276 -1.4109
   25MOL   H60916497   7.355   4.762   2.301  1.1262  0.0603 -0.2086
   25MOL   H61016498   7.385   4.529   2.408 -0.5530 -1.7850  0.1111
   25MOL   H61116499   7.388   4.526   2.234  0.4760  1.8064  0.7705
   25MOL   H61216500   7.132   4.440   2.271 -0.5655 -1.6781 -0.5771
   25MOL   H61316501   7.183   4.440   2.446  1.1102 -0.1198  0.1270
   25MOL   H61416502   7.356   4.262   2.358  0.2550 -2.1619 -0.6481
   25MOL   H61516503   7.302   4.300   2.200  0.5111 -0.2456  0.8965
   25MOL   H61616504   7.130   4.166   2.425 -2.1356  2.6588 -0.7311
   25MOL   H61716505   7.080   4.196   2.249  2.1019  0.1995 -2.5436
   25MOL   H61816506   7.326   4.039   2.332  2.3101  2.2258 -4.3805
   25MOL   H61916507   7.253   4.048   2.183  2.1676  1.0056  1.5041
   25MOL   H62016508   7.044   3.929   2.260  0.4487 -1.3094 -0.0746
   25MOL   H62116509   7.128   3.888   2.409 -3.5739  0.5075 -0.3915
   25MOL   H62216510   7.308   3.773   2.296 -1.2173  0.2835  1.0971
   25MOL   H62316511   7.159   3.694   2.271 -1.0017  0.2503 -0.8818
   25MOL   H62416512   7.306   3.879   2.065  0.6776 -1.5892 -1.7222
   25MOL   H62516513   7.147   3.840   2.047  0.0068 -0.1416  1.8260
   25MOL   H62616514   7.283   3.693   1.910  1.6454  4.1253  0.6861
   25MOL   H62716515   7.356   3.625   2.063 -0.5137  1.4389  3.1136
   25MOL   H62816516   7.183   3.613   2.017  0.8731 -0.7042  0.2467
   25MOL   C62916517   7.220   4.730   2.469 -0.2411 -0.7972  0.9180
   25MOL   C63016518   7.193   4.881   2.502  0.2482  0.4856 -0.0090
   25MOL   C63116519   7.081   4.890   2.608 -0.1858 -0.1953 -0.8773
   25MOL   C63216520   7.127   4.850   2.751  0.8816 -0.1501  0.0904
   25MOL   C63316521   7.013   4.828   2.846  0.1090 -0.2049 -0.7566
   25MOL   C63416522   7.063   4.780   2.985 -0.7942 -0.4047 -0.8087
   25MOL   C63516523   6.954   4.769   3.089  0.1724 -0.3793  0.2179
   25MOL   C63616524   6.999   4.704   3.223  0.3649 -0.2398  0.4965
   25MOL   C63716525   6.905   4.721   3.347  0.2564 -0.1016  0.4023
   25MOL   C63816526   6.974   4.663   3.470  0.3863  0.1038 -0.4048
   25MOL   C63916527   7.044   4.779   3.542 -0.2392  0.1320 -0.7697
   25MOL   H64016528   7.141   4.657   2.482  0.5620 -1.9925 -0.6792
   25MOL   H64116529   7.290   4.692   2.543  1.9892  0.3583 -0.5300
   25MOL   H64216530   7.279   4.942   2.531  0.4797 -0.1118  0.5772
   25MOL   H64316531   7.041   4.991   2.614  1.3687  0.4007 -0.0150
   25MOL   H64416532   6.990   4.833   2.590 -1.5421  2.4598 -2.8001
   25MOL   H64516533   7.189   4.928   2.795  2.7435 -1.4300 -0.1924
   25MOL   H64616534   7.182   4.756   2.742  0.3142 -0.3753 -1.1531
   25MOL   H64716535   6.949   4.755   2.797 -0.1724  0.1456 -0.9167
   25MOL   H64816536   6.955   4.919   2.864 -0.7276 -1.0774  1.1000
   25MOL   H64916537   7.133   4.854   3.024  0.7444 -1.5525 -1.3404
   25MOL   H65016538   7.119   4.689   2.964  0.7783  0.8190 -1.9967
   25MOL   H65116539   6.874   4.704   3.052  0.8319  0.3632 -2.6228
   25MOL   H65216540   6.915   4.867   3.117  0.5743  0.1830 -1.1397
   25MOL   H65316541   7.098   4.742   3.248  1.4280 -0.7688 -2.6436
   25MOL   H65416542   7.020   4.600   3.198 -2.6913 -0.5180 -1.1836
   25MOL   H65516543   6.820   4.661   3.314 -0.9057  1.0028  1.3146
   25MOL   H65616544   6.869   4.824   3.359 -2.8618 -0.7956 -2.0933
   25MOL   H65716545   7.048   4.588   3.443  0.1054  0.3176 -1.8460
   25MOL   H65816546   6.903   4.618   3.538 -0.5079 -1.5343 -2.3614
   25MOL   H65916547   6.968   4.853   3.567 -0.4422  0.1996 -1.5914
   25MOL   H66016548   7.119   4.839   3.491 -0.1597  1.5203  0.9201
   25MOL   H66116549   7.084   4.743   3.637 -0.6362  1.1793 -0.1989
   25MOL   H66216550   7.158   4.929   2.411  0.0897  0.7992  0.2134
   26MOL     C116551   5.003   0.451   7.452  0.2244 -0.4418 -0.2369
   26MOL     C216552   5.133   0.487   7.375  0.7493 -0.0859 -0.1751
   26MOL     C316553   5.220   0.568   7.465  0.2238 -0.0647 -0.3604
   26MOL     C416554   5.261   0.493   7.599 -0.5748  0.0698 -0.5075
   26MOL     C516555   5.367   0.571   7.672 -0.2652 -0.0377  0.1717
   26MOL     C616556   5.408   0.508   0.097 -0.4427  1.2100 -0.3243
   26MOL     C716557   5.492   0.601   0.187 -0.4197 -0.3295 -0.2391
   26MOL     C816558   5.523   0.541   0.330 -0.5225 -0.4406 -0.8545
   26MOL     C916559   5.645   0.453   0.333  0.8052 -0.3900  0.2591
   26MOL    C1016560   5.776   0.518   0.282 -0.4959  0.1111  0.2298
   26MOL    C1116561   5.892   0.451   0.336  0.7741 -0.4956  0.4735
   26MOL    H1216562   5.029   0.393   7.541 -1.3089 -2.0242 -0.8148
   26MOL    H1316563   4.933   0.384   7.402 -0.8091  1.4299 -1.3423
   26MOL    H1416564   5.103   0.554   7.295 -1.6802 -0.1520  0.6413
   26MOL    H1516565   5.176   0.663   7.494  0.0745 -0.8006  1.9591
   26MOL    H1616566   5.316   0.587   7.416  0.4624 -2.5529 -0.9095
   26MOL    H1716567   5.297   0.391   7.584  2.6047  0.9599  0.7018
   26MOL    H1816568   5.170   0.496   7.659  0.8526  0.5229  1.7171
   26MOL    H1916569   5.454   0.598   7.613 -0.2246  1.4745  0.9004
   26MOL    H2016570   5.315   0.666   7.686 -1.6160 -1.2011  3.5405
   26MOL    H2116571   5.457   0.415   0.069  0.1696  1.9742 -1.8171
   26MOL    H2216572   5.318   0.471   0.145 -0.6914  0.1601 -1.5896
   26MOL    H2316573   5.584   0.631   0.137 -0.5820 -0.5594 -0.6856
   26MOL    H2416574   5.444   0.699   0.188  1.6396  0.7050  2.8025
   26MOL    H2516575   5.438   0.489   0.376 -1.5742  0.8806 -1.2646
   26MOL    H2616576   5.546   0.615   0.406  0.0780 -2.3799  0.9042
   26MOL    H2716577   5.615   0.368   0.272 -0.9954 -0.4307  1.1700
   26MOL    H2816578   5.658   0.428   0.439  1.2388  1.1109  0.5758
   26MOL    H2916579   5.782   0.623   0.311  0.7705 -0.4276  1.9481
   26MOL    H3016580   5.788   0.507   0.174 -0.3665  1.1839  0.1262
   26MOL    H3116581   5.901   0.457   0.444 -1.8278  0.0039  0.6820
   26MOL    H3216582   5.906   0.348   0.303  1.1573  0.2674 -1.8578
   26MOL    H3316583   5.978   0.511   0.306 -0.3380 -0.3023 -2.5776
   26MOL    H3416584   4.942   0.538   7.475 -0.1242 -0.4807 -1.0263
   26MOL    C3516585   5.212   0.365   7.319  0.6649  0.0650  0.5200
   26MOL    C3616586   5.150   0.284   7.202  0.2454  0.1396  0.2926
   26MOL    C3716587   5.061   0.364   7.094 -0.0288 -0.3401 -0.4433
   26MOL    C3816588   4.974   0.283   6.999 -0.3215  0.8858  0.0813
   26MOL    C3916589   4.945   0.361   6.869  0.1630  0.4040  1.0296
   26MOL    C4016590   4.865   0.279   6.771 -0.0911  0.2413 -0.1716
   26MOL    C4116591   4.854   0.344   6.636 -0.4020 -0.0647  0.5020
   26MOL    C4216592   4.800   0.494   6.644 -0.2944  0.1488  0.0730
   26MOL    C4316593   4.749   0.549   6.509 -0.1948  0.4367  0.2628
   26MOL    C4416594   4.869   0.587   6.404  0.3827  0.0327 -0.1898
   26MOL    C4516595   4.808   0.671   6.293  0.4990 -0.4406 -0.3474
   26MOL    H4616596   5.224   0.290   7.397  0.5345 -0.3545  0.1393
   26MOL    H4716597   5.315   0.392   7.296  0.5409 -0.1978 -0.3998
   26MOL    H4816598   5.084   0.214   7.253 -1.4728  1.7629  0.3344
   26MOL    H4916599   4.992   0.429   7.149 -0.1828 -0.0536 -0.9745
   26MOL    H5016600   5.134   0.424   7.039 -1.3592  2.2272  0.4707
   26MOL    H5116601   4.877   0.268   7.048  0.3157  0.0086  1.0937
   26MOL    H5216602   5.018   0.186   6.974 -1.9502 -0.1775  1.1666
   26MOL    H5316603   5.031   0.378   6.804 -1.5163  0.9324 -1.1194
   26MOL    H5416604   4.904   0.461   6.878 -2.6421 -0.5194 -0.7797
   26MOL    H5516605   4.766   0.273   6.817 -0.6962  0.7530 -1.3737
   26MOL    H5616606   4.895   0.176   6.754  1.5520  0.9973 -2.0028
   26MOL    H5716607   4.949   0.338   6.583 -0.3657  0.1897  0.5348
   26MOL    H5816608   4.788   0.276   6.582 -1.8094 -0.7850  3.0436
   26MOL    H5916609   4.880   0.557   6.681 -0.0264 -0.2853  0.2417
   26MOL    H6016610   4.714   0.490   6.711  1.2447 -2.2848  2.0068
   26MOL    H6116611   4.691   0.641   6.519  1.6845  1.8355 -1.4173
   26MOL    H6216612   4.682   0.484   6.452  0.0249  0.5990 -0.1866
   26MOL    H6316613   4.948   0.642   6.456 -0.9125  0.8032  1.0114
   26MOL    H6416614   4.916   0.505   6.351 -0.1876 -0.1612 -0.4039
   26MOL    H6516615   4.767   0.762   6.337 -0.0218 -0.4200 -0.8799
   26MOL    H6616616   4.885   0.711   6.228  1.3520  0.0840  0.9595
   26MOL    H6716617   4.729   0.618   6.239 -1.8074 -0.7029  3.1134
   26MOL    C6816618   5.263   0.206   7.136 -0.4380 -0.9375 -0.5014
   26MOL    C6916619   5.319   0.082   7.215  0.0560  0.3210 -0.0309
   26MOL    C7016620   5.240   7.657   7.178  0.3673 -0.4250 -0.4258
   26MOL    C7116621   5.268   7.529   7.263 -0.0861 -0.1866  0.0063
   26MOL    C7216622   5.219   7.542   7.409 -0.5769  0.0932  1.0173
   26MOL    C7316623   5.333   7.537   7.523 -0.3068 -0.2866 -0.0552
   26MOL    C7416624   5.385   7.390   7.538 -0.9722 -0.6291 -0.5041
   26MOL    C7516625   5.492   7.376   7.645  0.1357  0.0733 -0.1573
   26MOL    C7616626   5.444   7.352   0.082 -0.0815  0.1212  0.1690
   26MOL    C7716627   5.555   7.312   0.176 -0.2659 -0.7699 -0.4521
   26MOL    C7816628   5.529   7.316   0.323  0.3247 -0.0223  0.7972
   26MOL    H7916629   5.347   0.275   7.136 -0.7948 -0.4953  0.1783
   26MOL    H8016630   5.228   0.180   7.036  1.5444 -1.6297 -1.0407
   26MOL    H8116631   5.315   0.092   7.324 -1.5587 -0.4657 -0.0035
   26MOL    H8216632   5.265   7.637   7.074 -0.5459  2.6265 -1.2640
   26MOL    H8316633   5.134   7.680   7.188  0.3805 -0.5310 -0.0318
   26MOL    H8416634   5.218   7.440   7.226 -0.7211 -0.1214  0.7048
   26MOL    H8516635   5.371   7.494   7.257  1.1408  3.0893  0.7895
   26MOL    H8616636   5.156   7.456   7.433 -0.4529 -0.6044 -1.0858
   26MOL    H8716637   5.153   7.629   7.414  1.9629  2.1804 -0.6656
   26MOL    H8816638   5.410   7.610   7.499 -0.1736 -0.8884 -1.5111
   26MOL    H8916639   5.292   7.562   7.621  0.8892 -0.4103  0.4794
   26MOL    H9016640   5.418   7.348   7.442  1.5413 -2.3275  1.0476
   26MOL    H9116641   5.314   7.313   7.568 -0.1559 -1.5825 -0.9747
   26MOL    H9216642   5.544   7.287   7.611 -2.1385 -0.6403 -1.9202
   26MOL    H9316643   5.557   7.464   7.645 -0.2478  0.3945  2.6325
   26MOL    H9416644   5.403   7.446   0.117 -0.6345  0.2926 -0.9032
   26MOL    H9516645   5.362   7.279   0.088  1.8686 -2.1535 -0.1127
   26MOL    H9616646   5.590   7.209   0.161  2.1209 -0.3844  1.9420
   26MOL    H9716647   5.643   7.373   0.157  0.2542 -1.9622 -1.9519
   26MOL    H9816648   5.446   7.247   0.342  0.6519 -0.8050 -0.5663
   26MOL    H9916649   5.508   7.417   0.359 -0.8703 -0.7575  2.2433
   26MOL   H10016650   5.597   7.266   0.392 -1.0489 -1.7429  0.9473
   26MOL   C10116651   5.464   0.050   7.180 -0.6307  0.2637 -0.1521
   26MOL   C10216652   5.574   0.146   7.230  0.2982  0.7343 -0.2647
   26MOL   C10316653   5.711   0.126   7.154  0.7209 -0.0489 -0.9020
   26MOL   C10416654   5.696   0.134   7.005 -0.0782  0.1807  0.5136
   26MOL   C10516655   5.829   0.166   6.932 -0.6062 -0.4399 -0.3373
   26MOL   C10616656   5.869   0.325   6.951  0.0441 -0.9307 -0.2466
   26MOL   C10716657   5.993   0.360   6.881  0.5360  0.2019  0.0420
   26MOL   C10816658   6.055   0.507   6.885 -0.4806  0.0587 -0.1358
   26MOL   C10916659   5.974   0.632   6.855  0.3431 -0.0696  0.4983
   26MOL   C11016660   5.935   0.621   6.715 -0.0990 -0.0748 -0.1081
   26MOL   C11116661   5.834   0.716   6.659 -0.6855  0.3045 -0.2209
   26MOL   H11216662   5.492   7.657   7.222 -1.6576 -0.5892 -1.3759
   26MOL   H11316663   5.466   0.044   7.071 -1.9324 -0.2383 -0.1568
   26MOL   H11416664   5.542   0.249   7.217 -1.7353 -0.0574 -1.8032
   26MOL   H11516665   5.779   0.201   7.194  0.5875 -0.6209  0.4256
   26MOL   H11616666   5.753   0.028   7.178 -2.5730 -0.7332  2.5908
   26MOL   H11716667   5.651   0.042   6.968 -1.3087 -0.8752  4.4013
   26MOL   H11816668   5.623   0.212   6.983  1.8960  2.2277  1.0370
   26MOL   H11916669   5.900   0.099   6.980 -2.1557 -1.9064 -0.0111
   26MOL   H12016670   5.841   0.140   6.827  0.8033 -1.3059  0.0303
   26MOL   H12116671   5.788   0.392   6.920  0.4797 -0.6530 -0.7838
   26MOL   H12216672   5.883   0.345   7.057 -1.4029 -1.8425  0.1253
   26MOL   H12316673   5.989   0.322   6.779  0.3711  1.8291 -0.5767
   26MOL   H12416674   6.072   0.293   6.915  1.1053  1.1341  0.5683
   26MOL   H12516675   6.100   0.519   6.984 -0.1055  3.4831 -0.6683
   26MOL   H12616676   6.142   0.509   6.820 -1.6188  2.9119 -1.6392
   26MOL   H12716677   5.889   0.635   6.922 -0.9838 -1.8045 -1.0652
   26MOL   H12816678   6.022   0.727   6.881  0.6152 -0.3661  1.0995
   26MOL   H12916679   5.887   0.526   6.693 -1.4042  0.8605 -1.3923
   26MOL   H13016680   6.028   0.620   6.660  0.7591 -2.2950  1.3195
   26MOL   H13116681   5.854   0.821   6.682  0.4026  0.0316  0.0846
   26MOL   H13216682   5.832   0.704   6.550  0.7589 -1.0464 -0.1217
   26MOL   H13316683   5.728   0.701   6.679 -1.0219  1.7797 -0.8284
   26MOL   C13416684   5.587   0.139   7.385  0.0491 -0.0225  0.0449
   26MOL   C13516685   5.683   0.235   7.452 -0.1770 -0.2300 -0.3244
   26MOL   C13616686   5.742   0.169   7.574 -0.3956 -0.5153  0.2622
   26MOL   C13716687   5.652   0.132   7.693 -0.2187 -0.6846  0.1664
   26MOL   C13816688   5.737   0.085   0.112  0.5464 -0.9784 -0.3940
   26MOL   C13916689   5.654   0.025   0.220 -0.8658 -0.9711  0.3569
   26MOL   C14016690   5.728   7.657   0.329  0.1227  0.8972 -0.0721
   26MOL   C14116691   5.790   0.058   0.431 -0.1847  0.8194  0.2647
   26MOL   C14216692   5.871   0.002   0.551 -0.5940 -0.0177 -0.4721
   26MOL   C14316693   5.908   0.104   0.653  0.0217 -0.5040 -0.2553
   26MOL   C14416694   5.967   0.046   0.784  0.2557 -0.2818 -0.6125
   26MOL   H14516695   5.498   0.145   7.446  0.8904 -0.4807  1.3362
   26MOL   H14616696   5.614   0.035   7.403  0.0227  0.1472  1.0994
   26MOL   H14716697   5.769   0.264   7.393 -0.3983  0.6327 -0.2331
   26MOL   H14816698   5.816   0.236   7.619 -0.4693  0.8314 -1.5582
   26MOL   H14916699   5.803   0.085   7.541 -3.0720 -1.7033 -1.8249
   26MOL   H15016700   5.589   0.212   0.028  0.8314  0.3852 -0.3309
   26MOL   H15116701   5.589   0.051   7.656  0.1973 -0.4013 -1.1853
   26MOL   H15216702   5.828   0.030   0.087  2.4082  0.8686  2.0734
   26MOL   H15316703   5.791   0.173   0.148  0.9541 -0.7548 -1.5193
   26MOL   H15416704   5.592   0.108   0.254 -2.7376 -1.6096 -1.3846
   26MOL   H15516705   5.589   7.657   0.169 -2.6584  0.3329  0.7750
   26MOL   H15616706   5.650   7.598   0.379 -0.5821  1.8635 -0.0190
   26MOL   H15716707   5.812   7.598   0.292 -0.5033 -0.5771  0.8136
   26MOL   H15816708   5.846   0.136   0.380 -1.3239  0.7169 -1.1877
   26MOL   H15916709   5.704   0.111   0.472  0.0623  0.2395  1.5562
   26MOL   H16016710   5.808   7.642   0.613  0.0436  0.5921  0.8158
   26MOL   H16116711   5.949   7.640   0.513 -0.3271  1.5932 -2.7564
   26MOL   H16216712   5.969   0.185   0.613  0.1590 -0.1031  0.7652
   26MOL   H16316713   5.827   0.170   0.684 -0.2585 -0.3437 -1.3084
   26MOL   H16416714   6.076   0.046   0.789  0.2864 -1.4284 -1.0971
   26MOL   H16516715   5.941   7.645   0.804 -0.3405 -0.0739 -0.3038
   26MOL   H16616716   5.937   0.096   0.876  2.5382 -0.8446  0.4854
   26MOL   C16716717   5.616   0.373   7.487  0.0107  0.2073 -0.4937
   26MOL   C16816718   5.694   0.496   7.447  0.6546 -0.6708 -0.6172
   26MOL   C16916719   5.697   0.507   7.290  0.1839  0.3341  0.3554
   26MOL   C17016720   5.590   0.597   7.227  0.1254  0.2237  0.3254
   26MOL   C17116721   5.581   0.601   7.072 -0.4977  0.5619 -0.5470
   26MOL   C17216722   5.570   0.742   7.003 -1.0618 -1.1427 -0.7678
   26MOL   C17316723   5.687   0.844   7.031 -0.0298  0.1332  0.4696
   26MOL   C17416724   5.677   0.984   6.969 -0.2204  0.3081  0.1147
   26MOL   C17516725   5.812   1.059   6.988  0.4546  0.1532  0.1378
   26MOL   C17616726   5.918   1.050   6.881 -0.2524 -0.3646  0.2843
   26MOL   C17716727   6.025   1.155   6.910 -0.0040  0.3952 -0.0455
   26MOL   H17816728   5.518   0.368   7.440 -0.7911  1.5946  0.9886
   26MOL   H17916729   5.594   0.376   7.593 -0.2050  2.1436 -0.5764
   26MOL   H18016730   5.641   0.582   7.487  0.5106 -1.5718  1.1999
   26MOL   H18116731   5.690   0.416   7.230  1.6136  0.0277  0.6181
   26MOL   H18216732   5.794   0.529   7.245 -0.7656  2.0814 -0.9175
   26MOL   H18316733   5.492   0.557   7.254  0.4181  1.0208  2.6974
   26MOL   H18416734   5.584   0.695   7.273  0.1151  0.8778 -1.0466
   26MOL   H18516735   5.503   0.534   7.037  0.7119 -1.9674  1.4975
   26MOL   H18616736   5.667   0.543   7.038 -0.4517  0.5793 -0.4613
   26MOL   H18716737   5.545   0.727   6.898  1.7046 -0.8075 -1.5026
   26MOL   H18816738   5.486   0.791   7.052  0.7028  1.3527 -0.1527
   26MOL   H18916739   5.780   0.801   6.993 -0.9524 -2.5195  1.0691
   26MOL   H19016740   5.696   0.841   7.140  0.4298 -1.5948  0.4083
   26MOL   H19116741   5.649   0.968   6.865  2.5029 -2.2223 -0.2722
   26MOL   H19216742   5.591   1.025   7.022  1.0013  0.4137  2.0563
   26MOL   H19316743   5.857   1.039   7.085  0.2856 -0.0828  0.1682
   26MOL   H19416744   5.785   1.164   7.005 -1.0128 -0.1568 -0.2580
   26MOL   H19516745   5.881   1.071   6.780 -0.0529  1.5919  0.6005
   26MOL   H19616746   5.965   0.952   6.878  0.3792 -0.0718  0.7365
   26MOL   H19716747   5.978   1.253   6.907 -0.0576  0.3708 -0.0066
   26MOL   H19816748   6.109   1.149   6.841  1.4148 -2.7317  1.8484
   26MOL   H19916749   6.075   1.152   7.007  0.4149 -0.0803 -0.2731
   26MOL   C20016750   5.837   0.496   7.519  0.2428 -0.3194 -0.5120
   26MOL   C20116751   5.903   0.640   7.539  0.1373  0.4763  0.2018
   26MOL   C20216752   6.049   0.625   7.568  0.6402 -0.4422 -0.0618
   26MOL   C20316753   6.080   0.541   7.689  0.4773  0.0514  0.7028
   26MOL   C20416754   6.220   0.548   0.046  0.2814  0.6086 -0.3020
   26MOL   C20516755   6.337   0.536   7.641  0.0753  0.4533  0.1982
   26MOL   C20616756   6.485   0.546   0.005  0.0559 -0.0046 -0.0889
   26MOL   C20716757   6.603   0.554   7.608  0.8586 -0.3719 -0.2804
   26MOL   C20816758   6.623   0.683   7.538  0.3417 -0.1442 -0.1523
   26MOL   C20916759   6.751   0.692   7.459 -0.1955 -0.0884  0.0895
   26MOL   C21016760   6.880   0.663   7.536  0.8591  0.2253 -0.6032
   26MOL   H21116761   5.838   0.460   7.621  2.0693 -0.0569 -0.4101
   26MOL   H21216762   5.903   0.434   7.458 -0.1946 -2.7771  1.4408
   26MOL   H21316763   5.887   0.672   7.436 -2.0332  0.5924  0.5583
   26MOL   H21416764   6.099   0.722   7.578 -0.5758  0.6133 -3.4512
   26MOL   H21516765   6.101   0.575   7.487  0.4991 -0.1530 -0.3321
   26MOL   H21616766   6.061   0.437   7.663  1.6824 -0.1801  0.7276
   26MOL   H21716767   6.012   0.569   0.067 -0.3893 -1.8275  0.6396
   26MOL   H21816768   6.245   0.472   0.119 -1.3641  1.0903  0.7699
   26MOL   H21916769   6.231   0.643   0.099 -0.8715 -1.3253  3.5302
   26MOL   H22016770   6.329   0.446   7.581 -0.2931 -0.0259  0.9579
   26MOL   H22116771   6.321   0.617   7.571 -1.4681 -0.6463 -0.7447
   26MOL   H22216772   6.485   0.462   0.075 -2.1446 -0.7268 -0.9137
   26MOL   H22316773   6.492   0.629   0.076 -1.9313  1.8041 -1.9259
   26MOL   H22416774   6.583   0.477   7.534 -0.3535  0.2690 -0.6458
   26MOL   H22516775   6.693   0.535   7.665  0.2951  2.8049  1.8230
   26MOL   H22616776   6.614   0.771   7.602  2.4094  0.7007 -0.9793
   26MOL   H22716777   6.536   0.693   7.473 -0.3746 -0.3522  0.7718
   26MOL   H22816778   6.736   0.630   7.370 -0.5319 -0.6827  0.5573
   26MOL   H22916779   6.760   0.793   7.418  2.3898 -0.9776 -1.6929
   26MOL   H23016780   6.968   0.679   7.472  0.9359 -1.9652 -1.0956
   26MOL   H23116781   6.891   0.561   7.573 -2.3600 -0.5350 -1.6086
   26MOL   H23216782   6.889   0.725   7.625 -0.5572 -1.4614  0.7536
   26MOL   C23316783   5.823   0.743   7.626  0.2193  0.2228 -0.3467
   26MOL   C23416784   5.735   0.845   7.547  0.3828 -0.6055 -0.3326
   26MOL   C23516785   5.807   0.933   7.442  0.1032 -0.6728 -0.2750
   26MOL   C23616786   5.936   0.988   7.496 -0.2259 -0.0241  0.6187
   26MOL   C23716787   5.980   1.118   7.418 -0.1081  0.8385 -0.1374
   26MOL   C23816788   6.117   1.166   7.452  0.0271  0.2264 -0.1876
   26MOL   C23916789   6.126   1.247   7.587  0.8298 -0.1823  0.0042
   26MOL   C24016790   6.256   1.302   7.628 -0.5501 -0.0560 -0.2190
   26MOL   C24116791   6.341   1.198   0.002  0.2891 -0.6162 -0.4197
   26MOL   C24216792   6.430   1.245   0.115  0.0021 -0.4554  0.0104
   26MOL   C24316793   6.350   1.229   0.252  0.1438  0.1574  0.0093
   26MOL   H24416794   5.889   0.791   7.698  2.0765  0.8381 -2.4111
   26MOL   H24516795   5.764   0.679   7.692  0.8966  1.1051  1.1378
   26MOL   H24616796   5.672   0.787   7.480 -1.0419  0.5530 -0.0349
   26MOL   H24716797   5.834   0.885   7.348 -0.8574  0.1360 -0.9802
   26MOL   H24816798   5.736   1.006   7.404 -0.8180 -1.6317 -0.4047
   26MOL   H24916799   6.012   0.910   7.495 -0.2488 -0.0650  1.5962
   26MOL   H25016800   5.931   1.016   7.601  1.1461  4.1344 -0.3334
   26MOL   H25116801   5.903   1.194   7.426  0.3268  1.3563 -0.8166
   26MOL   H25216802   5.980   1.088   7.313  3.3790 -1.0786  0.3270
   26MOL   H25316803   6.158   1.236   7.378 -1.4923  2.6973  1.2271
   26MOL   H25416804   6.186   1.083   7.461 -0.9294 -0.9938 -3.4443
   26MOL   H25516805   6.076   1.343   7.579  0.3208 -0.4797 -0.4024
   26MOL   H25616806   6.078   1.197   7.672 -1.3480  0.1781 -0.9821
   26MOL   H25716807   6.308   1.341   7.541 -1.3174  1.5108 -0.0031
   26MOL   H25816808   6.239   1.390   7.691  2.3581  0.6275 -0.3377
   26MOL   H25916809   6.289   1.109   0.041 -1.5532  0.4661 -0.3530
   26MOL   H26016810   6.406   1.160   7.627  0.5078  0.8035 -0.9359
   26MOL   H26116811   6.464   1.349   0.121 -1.2706  0.0038 -0.5821
   26MOL   H26216812   6.520   1.183   0.120 -1.1174 -2.4250 -2.9055
   26MOL   H26316813   6.247   1.260   0.234 -0.8633 -3.4547 -0.9399
   26MOL   H26416814   6.402   1.281   0.332  0.6940 -1.0628  0.4615
   26MOL   H26516815   6.347   1.127   0.291 -1.6088  0.3665  0.4472
   26MOL   C26616816   5.642   0.923   7.648  0.2338 -0.0491 -0.4043
   26MOL   C26716817   5.531   1.019   7.601 -0.7350 -1.1044 -0.6577
   26MOL   C26816818   5.461   1.081   0.018 -0.1800 -1.0558 -0.2785
   26MOL   C26916819   5.542   1.170   0.104  0.3085 -0.0703 -0.0559
   26MOL   C27016820   5.620   1.288   0.042 -0.3806 -0.2321  0.7678
   26MOL   C27116821   5.680   1.398   0.143  0.3486 -0.2860 -0.5294
   26MOL   C27216822   5.806   1.354   0.219 -0.0477 -0.2686 -0.2005
   26MOL   C27316823   5.820   1.409   0.360 -0.6934  0.1392 -0.1545
   26MOL   C27416824   5.939   1.355   0.442 -0.1820  0.3941 -0.2463
   26MOL   C27516825   5.947   1.399   0.594 -0.0175  0.3238  0.0765
   26MOL   C27616826   6.073   1.358   0.674  0.1373  0.9361 -0.2270
   26MOL   H27716827   5.704   0.974   0.019 -0.6169  0.2149  0.1367
   26MOL   H27816828   5.587   0.841   7.696  3.4947 -1.2781  1.4171
   26MOL   H27916829   5.575   1.101   7.543  0.4642 -0.5479  0.9934
   26MOL   H28016830   5.366   1.124   7.691 -0.3968 -1.1696  0.2314
   26MOL   H28116831   5.427   1.002   0.085 -2.0477  0.4755  0.6238
   26MOL   H28216832   5.609   1.104   0.160  0.4686 -0.6960 -0.9651
   26MOL   H28316833   5.473   1.204   0.181 -0.9541  0.5100 -1.4191
   26MOL   H28416834   5.552   1.350   7.687  2.7446  0.8917 -1.8202
   26MOL   H28516835   5.703   1.251   7.685  1.9013  1.6156  2.6843
   26MOL   H28616836   5.602   1.416   0.217  0.5640  1.3499 -0.6879
   26MOL   H28716837   5.702   1.487   0.084 -2.1505  0.2373 -0.7394
   26MOL   H28816838   5.794   1.247   0.236  0.8466 -0.3657 -0.1890
   26MOL   H28916839   5.901   1.375   0.170  0.3260  1.1411  1.0646
   26MOL   H29016840   5.732   1.379   0.418 -0.8870 -3.7143 -2.2471
   26MOL   H29116841   5.819   1.518   0.354 -2.6582  0.1650  0.1957
   26MOL   H29216842   5.915   1.249   0.451 -2.1088  0.9496  1.6084
   26MOL   H29316843   6.033   1.376   0.392  0.6404 -0.4010  0.9609
   26MOL   H29416844   5.864   1.359   0.652  0.3116 -2.4219 -1.2623
   26MOL   H29516845   5.925   1.506   0.590  0.9723  0.6119  1.6589
   26MOL   H29616846   6.061   1.388   0.778  1.1177 -1.6509  0.6809
   26MOL   H29716847   6.167   1.399   0.637  0.3384  0.6246 -0.0628
   26MOL   H29816848   6.086   1.250   0.661  0.3214  0.7368  1.4506
   26MOL   C29916849   5.426   0.942   7.501 -0.0137 -0.8835 -0.5094
   26MOL   C30016850   5.344   1.053   7.416  0.0031  0.1800 -0.0698
   26MOL   C30116851   5.220   0.996   7.356 -0.1687 -0.7244 -0.6416
   26MOL   C30216852   5.248   0.891   7.252  0.3431  0.0642 -0.6381
   26MOL   C30316853   5.116   0.851   7.169 -0.2462 -0.3539 -0.9539
   26MOL   C30416854   5.152   0.757   7.050  0.1433 -0.1097  0.8891
   26MOL   C30516855   5.202   0.830   6.920 -0.2127 -0.7459 -0.2346
   26MOL   C30616856   5.248   0.730   6.800 -0.3108 -0.6219  0.6104
   26MOL   C30716857   5.291   0.796   6.667 -0.0751 -0.1309  0.1543
   26MOL   C30816858   5.289   0.694   6.554  0.4116 -0.1982  0.0985
   26MOL   C30916859   5.388   0.583   6.573  0.0406 -0.3319  0.0053
   26MOL   H31016860   5.367   0.873   7.561  0.4270 -0.3985  0.4780
   26MOL   H31116861   5.473   0.872   7.431  0.4275 -0.2648 -0.8314
   26MOL   H31216862   5.297   1.123   7.485 -1.2384  0.0250 -0.7505
   26MOL   H31316863   5.154   0.957   7.433  0.9223 -1.9504 -0.3080
   26MOL   H31416864   5.165   1.077   7.308  0.7384  0.4342  0.2559
   26MOL   H31516865   5.323   0.929   7.182  0.9165 -0.1266 -0.1325
   26MOL   H31616866   5.290   0.803   7.301  0.0109  0.3020  0.0717
   26MOL   H31716867   5.042   0.806   7.235  0.7667 -2.3447 -1.1404
   26MOL   H31816868   5.078   0.939   7.118  0.4576 -0.9074 -2.4522
   26MOL   H31916869   5.083   0.677   7.022  0.1174  0.3556 -0.4292
   26MOL   H32016870   5.237   0.705   7.094  0.5645 -0.9517 -0.8790
   26MOL   H32116871   5.132   0.903   6.880  0.4986 -0.2546 -0.6031
   26MOL   H32216872   5.276   0.905   6.948 -1.1546 -0.2256  0.8815
   26MOL   H32316873   5.159   0.668   6.789 -1.4480  1.1829 -0.7211
   26MOL   H32416874   5.329   0.669   6.839  1.7176  0.0973 -2.3037
   26MOL   H32516875   5.391   0.838   6.674 -0.4506  0.5751  1.5697
   26MOL   H32616876   5.235   0.883   6.631  0.7451  0.1485 -0.4411
   26MOL   H32716877   5.302   0.748   6.460  0.9658 -2.1671 -0.9913
   26MOL   H32816878   5.188   0.652   6.554 -0.0256  0.8202  1.3261
   26MOL   H32916879   5.357   0.514   6.652  0.4559 -1.8935 -1.1649
   26MOL   H33016880   5.400   0.531   6.478 -1.6766  1.5910 -1.3152
   26MOL   H33116881   5.489   0.619   6.587  0.7318 -2.2539  0.0992
   26MOL   C33216882   5.434   1.132   7.318 -0.1633 -0.3045  0.9756
   26MOL   C33316883   5.459   1.288   7.340 -0.3911 -0.1972 -0.1461
   26MOL   C33416884   5.331   1.371   7.366 -0.1618  0.7967 -0.2295
   26MOL   C33516885   5.313   1.419   7.513 -0.5539 -0.1703  0.6627
   26MOL   C33616886   5.404   1.544   7.539 -0.7184 -0.1594 -0.5337
   26MOL   C33716887   5.342   1.616   7.656 -0.0074 -0.1032 -0.7051
   26MOL   C33816888   5.416   1.750   7.683  0.0451 -0.3648  0.2512
   26MOL   C33916889   5.542   1.715   0.067 -0.4696  0.7182 -0.3824
   26MOL   C34016890   5.605   1.835   0.142  0.0406 -0.2588  0.7825
   26MOL   C34116891   5.720   1.789   0.240  0.1282  0.4371 -0.6383
   26MOL   C34216892   5.770   1.897   0.349 -0.4701  0.4252  0.6618
   26MOL   H34316893   5.531   1.082   7.319 -0.5446 -1.0390  1.8478
   26MOL   H34416894   5.402   1.132   7.214 -0.4453 -2.2589  1.0412
   26MOL   H34516895   5.513   1.294   7.434 -2.5684  0.9567  1.0514
   26MOL   H34616896   5.242   1.317   7.334  0.6984 -0.7255 -0.1143
   26MOL   H34716897   5.335   1.456   7.298 -0.9807 -0.9094 -2.4685
   26MOL   H34816898   5.209   1.453   7.514 -0.8129 -0.8802 -1.0951
   26MOL   H34916899   5.331   1.350   7.596  0.1977 -1.6169 -0.6850
   26MOL   H35016900   5.509   1.522   7.560 -1.0504 -0.9263  0.3959
   26MOL   H35116901   5.389   1.607   7.452 -0.5758  2.0095  0.9664
   26MOL   H35216902   5.333   1.556   0.043  0.9939  1.5103  0.5132
   26MOL   H35316903   5.238   1.645   7.638 -0.0581  0.2808  0.2005
   26MOL   H35416904   5.349   1.813   0.039  0.0623 -0.5398  0.4573
   26MOL   H35516905   5.442   1.805   7.592  0.9688 -1.7015 -0.3126
   26MOL   H35616906   5.505   1.636   0.134 -1.6620  0.0993 -1.7463
   26MOL   H35716907   5.612   1.663   0.001  0.4879 -0.9498  1.8727
   26MOL   H35816908   5.524   1.880   0.200  0.3346  1.9122 -0.4312
   26MOL   H35916909   5.640   1.917   0.080 -0.7612  0.3128  1.0789
   26MOL   H36016910   5.807   1.773   0.177 -0.5450  0.2008 -1.5202
   26MOL   H36116911   5.708   1.696   0.296  0.4640 -0.5104 -2.1021
   26MOL   H36216912   5.856   1.869   0.410  1.0000  1.1591 -1.0273
   26MOL   H36316913   5.800   1.984   0.291 -0.3418 -0.2107 -0.2269
   26MOL   H36416914   5.689   1.917   0.419 -0.1519 -0.8511  1.4119
   26MOL   C36516915   5.549   1.342   7.229  0.5219 -0.0587 -0.2891
   26MOL   C36616916   5.610   1.484   7.245  0.0655 -0.7396  0.3265
   26MOL   C36716917   5.729   1.482   7.339  0.4397 -0.1625  0.7458
   26MOL   C36816918   5.772   1.619   7.400 -0.6061  0.2298 -0.0315
   26MOL   C36916919   5.886   1.603   7.501 -0.0002 -0.2998 -0.0347
   26MOL   C37016920   5.970   1.727   7.529 -0.6106  0.5069  0.2013
   26MOL   C37116921   6.093   1.698   7.607 -0.8112  0.3924  0.4412
   26MOL   C37216922   6.069   1.634   0.041 -0.4488  0.3411 -0.1404
   26MOL   C37316923   6.181   1.647   0.136 -0.1228 -0.0098 -0.6152
   26MOL   C37416924   6.153   1.577   0.267 -0.7767  0.2861 -0.4806
   26MOL   C37516925   6.273   1.594   0.360  0.3786 -0.1890  0.0262
   26MOL   H37616926   5.634   1.275   7.213  1.5611  0.6998  1.9534
   26MOL   H37716927   5.486   1.350   7.140 -0.4399  1.3132  0.5016
   26MOL   H37816928   5.529   1.531   7.301 -1.6221 -0.6529 -2.0809
   26MOL   H37916929   5.815   1.431   7.295 -0.8883 -2.1179  0.3774
   26MOL   H38016930   5.696   1.433   7.430  1.2900  1.0044  1.7082
   26MOL   H38116931   5.688   1.675   7.442 -0.3843 -0.7579  1.7894
   26MOL   H38216932   5.810   1.685   7.322  0.5373  0.1396  0.4384
   26MOL   H38316933   5.955   1.531   7.457 -0.1629 -0.3690 -0.1771
   26MOL   H38416934   5.844   1.562   7.593  0.1448 -2.6591 -0.9731
   26MOL   H38516935   5.915   1.798   7.592  0.7288 -0.7606  2.9013
   26MOL   H38616936   5.993   1.769   7.432 -1.8868 -3.1917 -1.7982
   26MOL   H38716937   6.149   1.631   7.543 -0.6674 -0.1881  1.1676
   26MOL   H38816938   6.143   1.795   7.612  2.3213 -1.2116  1.6275
   26MOL   H38916939   6.046   1.528   0.039  1.0765  0.0066 -0.3396
   26MOL   H39016940   5.978   1.681   0.078 -0.9663  0.5421 -1.6539
   26MOL   H39116941   6.278   1.640   0.087  0.9227  1.3452  1.2307
   26MOL   H39216942   6.169   1.753   0.155 -1.8077 -0.0749 -1.2437
   26MOL   H39316943   6.059   1.610   0.312  0.8110  1.3421  2.2016
   26MOL   H39416944   6.137   1.472   0.243  1.0452 -0.6505  2.1557
   26MOL   H39516945   6.365   1.559   0.312  1.1528  0.1721  1.2303
   26MOL   H39616946   6.251   1.531   0.446  0.8858  0.2410  0.4716
   26MOL   H39716947   6.291   1.696   0.394 -4.3898  0.1509  1.8843
   26MOL   C39816948   5.648   1.552   7.117 -0.4896 -0.4151 -0.0646
   26MOL   C39916949   5.625   1.702   7.118 -0.6327 -0.4083  0.4175
   26MOL   C40016950   5.499   1.734   7.037  0.8536  0.6763  0.5074
   26MOL   C40116951   5.359   1.680   7.084  0.9903 -0.0054  0.6946
   26MOL   C40216952   5.231   1.756   7.032 -0.2491  0.2285  0.1597
   26MOL   C40316953   5.099   1.676   7.063 -0.3948 -0.0558  0.8460
   26MOL   C40416954   4.974   1.760   7.036  0.4272  0.4510 -0.0071
   26MOL   C40516955   4.847   1.681   7.056 -0.0871  0.2694  0.0698
   26MOL   C40616956   4.717   1.763   7.033  0.9599  0.0249  0.4558
   26MOL   C40716957   4.602   1.725   7.123  0.5516  0.0075 -0.4588
   26MOL   C40816958   4.536   1.587   7.090 -0.7999 -0.0210  0.2306
   26MOL   H40916959   5.588   1.505   7.039 -0.6317 -0.5809  0.1406
   26MOL   H41016960   5.752   1.535   7.089 -0.0842  0.3971  0.8828
   26MOL   H41116961   5.616   1.714   7.226  0.5539 -0.8048  0.5709
   26MOL   H41216962   5.507   1.702   6.933  2.6722  1.2467  0.4552
   26MOL   H41316963   5.480   1.841   7.032 -3.3778  0.0447  0.8368
   26MOL   H41416964   5.340   1.577   7.056  0.4892  0.2917 -0.0799
   26MOL   H41516965   5.358   1.685   7.193  2.4499  2.1715  0.6343
   26MOL   H41616966   5.236   1.854   7.080  0.0159  0.4121 -0.2463
   26MOL   H41716967   5.231   1.766   6.924 -3.6250 -1.0637 -0.0157
   26MOL   H41816968   5.089   1.660   7.170 -2.4201  0.3012  0.7158
   26MOL   H41916969   5.094   1.580   7.012  1.1648  0.3389 -0.1147
   26MOL   H42016970   4.974   1.846   7.102 -1.4921  0.6708 -0.2611
   26MOL   H42116971   4.977   1.783   6.929  0.2450  0.4997 -0.0027
   26MOL   H42216972   4.852   1.634   7.154 -1.7254 -0.1186 -0.0103
   26MOL   H42316973   4.831   1.596   6.990 -0.0561 -0.4686  1.0080
   26MOL   H42416974   4.730   1.870   7.022 -0.9548 -0.1308 -4.6787
   26MOL   H42516975   4.685   1.735   6.933 -2.3746  2.2250  0.8327
   26MOL   H42616976   4.526   1.802   7.107 -1.6478 -2.0748 -0.3631
   26MOL   H42716977   4.638   1.722   7.225 -0.9323 -0.8789  0.0534
   26MOL   H42816978   4.454   1.558   7.156 -1.0119 -1.4222 -0.6080
   26MOL   H42916979   4.610   1.507   7.098 -1.0910 -0.3978 -0.7073
   26MOL   H43016980   4.504   1.582   6.986 -0.9682  0.7617  0.2434
   26MOL   C43116981   5.742   1.787   7.055 -0.2490  0.0869  0.0121
   26MOL   C43216982   5.742   1.937   7.063  0.1606 -0.1610 -0.1277
   26MOL   C43316983   5.829   1.988   6.944 -0.3634  0.3481 -0.2388
   26MOL   C43416984   5.982   1.984   6.963 -0.2360 -0.0485 -0.3873
   26MOL   C43516985   6.062   2.065   6.859  0.1358  0.0262 -0.0718
   26MOL   C43616986   6.215   2.090   6.883 -0.5799  0.0064  0.1713
   26MOL   C43716987   6.275   2.198   6.799  0.2728 -0.0530  0.3699
   26MOL   C43816988   6.418   2.246   6.835 -0.0826 -0.0363 -0.4712
   26MOL   C43916989   6.417   2.316   6.972  0.0210 -0.3001  0.5782
   26MOL   C44016990   6.544   2.335   7.045 -0.3559  0.1069 -0.1023
   26MOL   C44116991   6.626   2.202   7.072 -0.0927 -0.2359  0.3963
   26MOL   H44216992   5.753   1.753   6.952  0.2983  1.5092 -0.4107
   26MOL   H44316993   5.831   1.757   7.110 -0.6677 -0.4566  0.4015
   26MOL   H44416994   5.642   1.972   7.040  0.7990  0.8063 -1.4773
   26MOL   H44516995   5.790   1.948   6.851 -1.3798  2.6243 -0.8275
   26MOL   H44616996   5.796   2.092   6.933 -0.6222  0.6904  3.1248
   26MOL   H44716997   6.008   1.878   6.968  0.9749  0.2282 -0.6991
   26MOL   H44816998   6.021   2.010   7.061 -2.0218  1.1854  0.0296
   26MOL   H44916999   6.016   2.162   6.843  1.2324  0.4406 -0.8384
   26MOL   H45017000   6.038   2.017   6.764  0.1307  1.1296 -0.6425
   26MOL   H45117001   6.273   1.997   6.883  0.6539  0.7602 -0.5373
   26MOL   H45217002   6.213   2.113   6.989 -0.3418 -1.5653  0.5301
   26MOL   H45317003   6.204   2.280   6.807  0.4534  0.1944 -0.4667
   26MOL   H45417004   6.265   2.161   6.697 -1.5809 -1.0286  0.8901
   26MOL   H45517005   6.492   2.166   6.830 -0.8499 -0.8936  1.2473
   26MOL   H45617006   6.453   2.324   6.768  2.5456 -0.3779  0.4347
   26MOL   H45717007   6.366   2.243   7.036  0.6678 -0.6800  0.6611
   26MOL   H45817008   6.351   2.402   6.970 -0.0592 -0.2832  2.6687
   26MOL   H45917009   6.525   2.389   7.138 -0.6380  2.3098 -1.4174
   26MOL   H46017010   6.604   2.405   6.987 -1.0705 -0.2861 -1.3335
   26MOL   H46117011   6.730   2.227   7.094 -0.1253 -0.2436  0.5633
   26MOL   H46217012   6.574   2.143   7.148 -0.3094  1.5062  1.6333
   26MOL   H46317013   6.628   2.144   6.980 -2.6078  1.0082 -0.4942
   26MOL   C46417014   5.795   1.998   7.203  0.2095 -0.3232  0.5338
   26MOL   C46517015   5.684   2.008   7.312 -0.0235 -0.2426 -0.0995
   26MOL   C46617016   5.743   1.985   7.453 -0.3885 -0.0360  0.1345
   26MOL   C46717017   5.825   2.104   7.506 -0.2262 -0.0476  0.1826
   26MOL   C46817018   5.864   2.106   7.658 -0.5003  0.0436 -0.1033
   26MOL   C46917019   5.950   2.226   7.699  0.1257  0.1018 -0.0125
   26MOL   C47017020   5.971   2.232   0.150  0.2336  0.0656  1.2413
   26MOL   C47117021   5.860   2.304   0.227 -0.2468  0.0190  0.3730
   26MOL   C47217022   5.851   2.454   0.201 -0.1061  0.3502  0.0468
   26MOL   C47317023   5.973   2.534   0.231 -1.0351  0.1006 -0.2170
   26MOL   C47417024   5.950   2.681   0.200 -0.3623 -0.5485 -0.3703
   26MOL   H47517025   5.838   2.095   7.177  2.6835 -1.3662  0.6840
   26MOL   H47617026   5.875   1.930   7.233  0.3815 -0.6388 -0.6185
   26MOL   H47717027   5.619   1.921   7.301 -0.7238  0.1203  1.1427
   26MOL   H47817028   5.805   1.895   7.447  0.8821  0.7304  1.4895
   26MOL   H47917029   5.671   1.958   7.530 -0.6794 -1.4575 -0.6101
   26MOL   H48017030   5.924   2.115   7.463 -1.6040  2.9042 -2.4080
   26MOL   H48117031   5.758   2.189   7.493  0.5801  0.6777  0.7664
   26MOL   H48217032   5.906   2.011   7.689 -2.2227 -0.6911 -0.0056
   26MOL   H48317033   5.776   2.109   0.018  1.3503  0.5810  2.5272
   26MOL   H48417034   6.048   2.212   7.654 -0.1956 -1.5681 -0.2471
   26MOL   H48517035   5.917   2.318   7.651  3.4202  1.1651 -0.3844
   26MOL   H48617036   5.975   2.130   0.189  0.9829 -0.5629 -0.4057
   26MOL   H48717037   6.069   2.278   0.161  0.2030  0.9838 -1.7950
   26MOL   H48817038   5.759   2.266   0.208 -1.4632  2.9466  0.7172
   26MOL   H48917039   5.877   2.292   0.335 -4.5762  1.1214  1.2775
   26MOL   H49017040   5.824   2.469   0.096  2.6325 -1.2578 -0.9255
   26MOL   H49117041   5.767   2.499   0.253 -0.6631 -0.6641  0.0443
   26MOL   H49217042   5.988   2.532   0.339  0.7977 -0.2459 -0.4608
   26MOL   H49317043   6.063   2.495   0.182 -0.4253  1.9325 -0.6135
   26MOL   H49417044   5.952   2.699   0.093 -0.4165  0.5955 -0.1897
   26MOL   H49517045   6.039   2.731   0.237 -0.2202  0.4817 -2.0314
   26MOL   H49617046   5.866   2.730   0.250  0.2632  0.3246 -0.1632
   26MOL   C49717047   5.594   2.136   7.286  0.2004  0.4787  0.3122
   26MOL   C49817048   5.466   2.150   7.366  0.3221  0.3846  0.3450
   26MOL   C49917049   5.348   2.056   7.315  0.3971 -0.1418  0.7683
   26MOL   C50017050   5.238   2.019   7.413 -0.2884  0.3599  0.7662
   26MOL   C50117051   5.149   1.899   7.384 -0.0042  0.4863 -0.0684
   26MOL   C50217052   5.039   1.877   7.493 -0.5820  0.6619 -0.3801
   26MOL   C50317053   4.938   1.764   7.459  0.3315  0.2358 -0.1031
   26MOL   C50417054   4.812   1.756   7.539 -0.1410  0.1230 -0.2078
   26MOL   C50517055   4.721   1.634   7.505 -0.1422  0.1772  0.0057
   26MOL   C50617056   4.581   1.652   7.575  0.6187  0.2965  0.5938
   26MOL   C50717057   4.474   1.555   7.532  0.3884 -0.0928  0.4821
   26MOL   H50817058   5.651   2.228   7.299  1.0541  0.2297 -1.5269
   26MOL   H50917059   5.553   2.126   7.186 -0.6969 -0.8914  0.8017
   26MOL   H51017060   5.486   2.126   7.471 -0.4834 -0.9418  0.1995
   26MOL   H51117061   5.397   1.960   7.295 -1.1541 -0.6875 -0.5193
   26MOL   H51217062   5.311   2.095   7.220 -0.8814 -2.1332  0.3987
   26MOL   H51317063   5.177   2.109   7.421  0.0941  0.6920 -0.0233
   26MOL   H51417064   5.293   2.009   7.506  0.0632 -0.2231  0.4938
   26MOL   H51517065   5.089   1.921   7.296  1.0306  0.6760 -0.7299
   26MOL   H51617066   5.213   1.817   7.354 -0.4431  0.8605 -2.1218
   26MOL   H51717067   5.088   1.852   7.587  1.0983  1.8312 -0.9327
   26MOL   H51817068   4.999   1.978   7.504 -0.5821  0.3537  3.1167
   26MOL   H51917069   4.920   1.761   7.351 -2.1659  0.7352  0.2745
   26MOL   H52017070   4.983   1.670   7.493  1.5182  1.9261  3.2120
   26MOL   H52117071   4.765   1.854   7.527 -2.0379 -0.5844  1.2425
   26MOL   H52217072   4.838   1.751   7.644 -1.1326  1.7951  0.1375
   26MOL   H52317073   4.765   1.541   7.540 -2.0343 -0.9372 -0.5201
   26MOL   H52417074   4.701   1.613   7.400  0.4787 -0.9122  0.0994
   26MOL   H52517075   4.541   1.751   7.555  1.6608  0.5394 -0.3353
   26MOL   H52617076   4.606   1.652   7.681 -1.3785 -0.4336  1.0853
   26MOL   H52717077   4.518   1.457   7.545  1.2158  0.1011 -0.8469
   26MOL   H52817078   4.433   1.570   7.433  3.1611  1.0811 -0.5283
   26MOL   H52917079   4.389   1.563   7.600 -0.1308  1.4837 -0.3340
   26MOL   C53017080   5.406   2.299   7.365 -0.4197 -0.3727  0.1077
   26MOL   C53117081   5.483   2.391   7.465  0.0819 -1.1356  0.2870
   26MOL   C53217082   5.424   2.403   7.608  0.0672 -0.1563 -0.5720
   26MOL   C53317083   5.412   2.268   7.682  0.1762 -0.1684  0.2554
   26MOL   C53417084   5.398   2.292   0.129  0.7409 -0.0746 -0.9711
   26MOL   C53517085   5.407   2.164   0.205 -0.3036  0.1977  0.1484
   26MOL   C53617086   5.394   2.177   0.359 -0.4777  0.2429 -0.3966
   26MOL   C53717087   5.525   2.240   0.424  0.0844  0.2217 -0.0694
   26MOL   C53817088   5.521   2.263   0.574 -0.6329  0.2804 -0.6255
   26MOL   C53917089   5.653   2.252   0.645  0.1713 -0.4752  0.0264
   26MOL   C54017090   5.659   2.249   0.798  0.0265  0.1777  0.4303
   26MOL   H54117091   5.418   2.344   7.267 -4.5165  0.1623 -0.2081
   26MOL   H54217092   5.300   2.307   7.390 -0.0939  0.6071  1.2312
   26MOL   H54317093   5.582   2.349   7.484  1.3708  1.2917 -0.9157
   26MOL   H54417094   5.344   2.476   7.609  0.9208  0.7713  2.1324
   26MOL   H54517095   5.500   2.455   7.666  0.9871  0.9183 -2.7062
   26MOL   H54617096   5.508   2.216   7.669 -0.9443 -1.9408 -1.1793
   26MOL   H54717097   5.335   2.203   7.642  1.6710 -1.2407 -0.9280
   26MOL   H54817098   5.300   2.331   0.156  1.5107  0.4998  1.0940
   26MOL   H54917099   5.471   2.368   0.156  1.1636 -0.9110  0.2620
   26MOL   H55017100   5.503   2.121   0.175  0.6145  1.9942  0.4843
   26MOL   H55117101   5.333   2.095   0.164  0.0085 -0.8688  1.3210
   26MOL   H55217102   5.375   2.074   0.392 -1.6115  0.8937  1.0568
   26MOL   H55317103   5.305   2.232   0.390  0.5236  1.9417 -0.5310
   26MOL   H55417104   5.546   2.327   0.362  0.5163  0.5556  0.5329
   26MOL   H55517105   5.613   2.177   0.408  0.8552  0.9871  1.0245
   26MOL   H55617106   5.455   2.190   0.621  1.3104 -0.7951  0.5269
   26MOL   H55717107   5.479   2.363   0.579  1.8278  1.3323 -0.0689
   26MOL   H55817108   5.723   2.327   0.607  0.2010  0.8557  2.6394
   26MOL   H55917109   5.706   2.162   0.612  2.2175  0.6066  0.2824
   26MOL   H56017110   5.753   2.265   0.850  1.0896 -2.0841 -0.7927
   26MOL   H56117111   5.592   2.333   0.822  1.9414  1.5186  1.1955
   26MOL   H56217112   5.596   2.172   0.843  3.3675 -1.9352  1.6810
   26MOL   C56317113   5.494   2.531   7.405  0.5614 -0.8279  0.2576
   26MOL   C56417114   5.604   2.635   7.455  1.0924 -0.0461 -0.7924
   26MOL   C56517115   5.750   2.579   7.470  0.0785 -0.1435  0.7557
   26MOL   C56617116   5.804   2.529   7.337  0.1801 -0.2993 -0.0495
   26MOL   C56717117   5.953   2.479   7.346 -0.4581  0.3920  0.8875
   26MOL   C56817118   6.007   2.403   7.223  0.2090  0.9088 -0.2831
   26MOL   C56917119   6.012   2.484   7.090  0.0735  0.0275 -0.4923
   26MOL   C57017120   6.076   2.621   7.105 -0.3730 -0.6162  0.2173
   26MOL   C57117121   6.077   2.714   6.984  0.4793 -0.2616 -0.5694
   26MOL   C57217122   6.168   2.831   7.012  0.0023 -0.1169  0.2037
   26MOL   C57317123   6.133   2.948   6.918  0.0186  0.5135  0.1546
   26MOL   H57417124   5.398   2.582   7.413  1.1872  0.2488  0.9471
   26MOL   H57517125   5.516   2.523   7.298  0.2177  0.4824  0.0797
   26MOL   H57617126   5.613   2.713   7.379 -0.1075 -0.5607 -1.4732
   26MOL   H57717127   5.765   2.504   7.548  0.0830 -1.0839 -0.1374
   26MOL   H57817128   5.809   2.659   7.515  0.8625  0.1135 -0.6931
   26MOL   H57917129   5.799   2.611   7.264 -0.8414  0.8926  1.3282
   26MOL   H58017130   5.740   2.448   7.303  1.2801 -0.9363 -0.6469
   26MOL   H58117131   5.952   2.405   7.426 -0.0645 -1.6227 -0.9098
   26MOL   H58217132   6.017   2.564   7.371  1.6821 -1.3753  1.6299
   26MOL   H58317133   6.109   2.378   7.252  0.3365  1.6185 -0.1119
   26MOL   H58417134   5.955   2.308   7.216 -0.5360  1.3528 -0.7882
   26MOL   H58517135   6.056   2.418   7.015  3.2615 -0.2034  1.4653
   26MOL   H58617136   5.912   2.497   7.050 -1.2150  1.6237  3.0618
   26MOL   H58717137   6.175   2.614   7.151  0.0023  1.6308 -0.1798
   26MOL   H58817138   6.013   2.675   7.176 -1.8668  1.0044 -2.2769
   26MOL   H58917139   5.974   2.742   6.962 -0.3546 -1.2565  1.8392
   26MOL   H59017140   6.101   2.676   6.885 -2.7080 -0.2628 -1.3950
   26MOL   H59117141   6.274   2.811   6.998  0.3586  1.7564  0.0651
   26MOL   H59217142   6.178   2.864   7.115  2.9353 -0.9360  0.2138
   26MOL   H59317143   6.148   2.906   6.818 -0.2633 -0.2406  0.4255
   26MOL   H59417144   6.036   2.998   6.925 -0.3233  0.4816 -3.3768
   26MOL   H59517145   6.200   3.032   6.933 -1.2660  1.2042  2.0954
   26MOL   C59617146   5.570   2.706   7.585  0.4282  0.2098 -0.6360
   26MOL   C59717147   5.435   2.770   7.602 -0.1287  0.2389  0.5711
   26MOL   C59817148   5.414   2.885   7.496 -0.2035  1.0142  0.2230
   26MOL   C59917149   5.497   3.013   7.518 -0.8735 -0.2741  0.4636
   26MOL   C60017150   5.455   3.137   7.427 -0.0695  0.4225 -0.2230
   26MOL   C60117151   5.509   3.276   7.478 -0.1769 -0.2704  0.0214
   26MOL   C60217152   5.661   3.290   7.460 -0.5271 -0.0048 -0.3381
   26MOL   C60317153   5.711   3.428   7.516  0.4522  0.5981  0.8149
   26MOL   C60417154   5.854   3.460   7.480 -0.4893 -0.4256  0.0937
   26MOL   C60517155   5.894   3.602   7.510 -0.2308 -0.1247 -0.2968
   26MOL   C60617156   5.932   3.621   7.652  0.1910 -0.6459 -0.2498
   26MOL   H60717157   5.592   2.645   7.673 -0.2919 -3.0291 -2.5995
   26MOL   H60817158   5.648   2.778   7.611  1.1510 -1.1022  0.9101
   26MOL   H60917159   5.361   2.691   7.586 -0.9037  0.9606  0.5541
   26MOL   H61017160   5.308   2.906   7.507 -0.7250 -1.5346  0.3030
   26MOL   H61117161   5.431   2.848   7.395 -2.2058  2.8534 -0.8420
   26MOL   H61217162   5.604   2.990   7.514 -1.2352 -1.8848 -0.3675
   26MOL   H61317163   5.482   3.042   7.622  3.4188  2.9094  0.3387
   26MOL   H61417164   5.346   3.144   7.420  0.1136  2.8694 -0.8074
   26MOL   H61517165   5.474   3.120   7.321 -2.2620  2.5645 -0.9812
   26MOL   H61617166   5.468   3.359   7.421  0.1566  0.2970  0.6112
   26MOL   H61717167   5.497   3.279   7.586 -0.6747 -1.2415  0.0027
   26MOL   H61817168   5.692   3.286   7.356  1.8474 -1.7040  0.4218
   26MOL   H61917169   5.714   3.210   7.512  0.5029  2.0034  1.7961
   26MOL   H62017170   5.691   3.446   7.622 -0.2359  0.0306  0.7864
   26MOL   H62117171   5.649   3.507   7.474  0.7688 -0.8407 -2.5518
   26MOL   H62217172   5.926   3.410   7.544  0.6126  0.5599 -0.3668
   26MOL   H62317173   5.872   3.432   7.377  0.9937 -1.3425  0.5890
   26MOL   H62417174   5.821   3.678   7.483  0.3935  0.4557 -0.3899
   26MOL   H62517175   5.989   3.627   7.461 -0.7534  0.0032 -1.2488
   26MOL   H62617176   5.845   3.598   0.010 -0.5349  1.8338 -0.3093
   26MOL   H62717177   6.010   3.551   7.681  1.1169  0.5716  0.2216
   26MOL   H62817178   5.955   3.727   7.660  0.9809 -0.7348 -1.3724
   26MOL   C62917179   5.425   2.812   0.052 -0.0253  0.1058  0.4875
   26MOL   C63017180   5.399   2.695   0.160 -0.3731 -0.0021  0.1610
   26MOL   C63117181   5.413   2.765   0.295 -0.6249  0.2253  0.1186
   26MOL   C63217182   5.437   2.676   0.412  0.1191 -1.1502  1.0060
   26MOL   C63317183   5.426   2.748   0.546  0.0932  0.2025  0.1431
   26MOL   C63417184   5.512   2.684   0.657  0.1295 -0.2145 -0.9362
   26MOL   C63517185   5.516   2.772   0.778  0.3774  0.7562 -0.2737
   26MOL   C63617186   5.614   2.727   0.886 -0.2927  0.4967  0.0733
   26MOL   C63717187   5.592   2.792   1.021  0.4862 -0.0290  0.4867
   26MOL   C63817188   5.687   2.746   1.134 -0.1601  0.7637  0.1633
   26MOL   C63917189   5.700   2.598   1.153 -0.3933 -0.3718 -0.1284
   26MOL   H64017190   5.501   2.886   0.076  2.7236 -1.7670 -2.0175
   26MOL   H64117191   5.340   2.879   0.065 -0.4760 -0.6733  1.6491
   26MOL   H64217192   5.302   2.645   0.160 -0.8678  0.9414  0.1124
   26MOL   H64317193   5.498   2.833   0.289  0.0164 -0.7397 -2.2748
   26MOL   H64417194   5.315   2.812   0.307 -0.0145  1.8036 -0.9655
   26MOL   H64517195   5.539   2.640   0.403 -0.2381 -1.5768 -1.8649
   26MOL   H64617196   5.375   2.587   0.405 -1.5628  0.1983 -2.5069
   26MOL   H64717197   5.324   2.762   0.582  0.9061  0.3894  2.4215
   26MOL   H64817198   5.459   2.850   0.526  0.9811 -0.2198 -0.5773
   26MOL   H64917199   5.615   2.681   0.619  0.4187  0.7565 -0.2544
   26MOL   H65017200   5.503   2.577   0.672  1.1869 -0.2940 -0.7832
   26MOL   H65117201   5.415   2.779   0.817 -0.3638  1.5423 -2.2705
   26MOL   H65217202   5.552   2.872   0.752  0.4746  1.1799  1.4298
   26MOL   H65317203   5.717   2.740   0.853 -0.2170  0.9892  0.4830
   26MOL   H65417204   5.591   2.621   0.898  2.1084 -0.2105 -1.1352
   26MOL   H65517205   5.489   2.793   1.057  0.5343 -1.3219  0.7023
   26MOL   H65617206   5.622   2.896   1.013  1.7583 -0.3762  0.5686
   26MOL   H65717207   5.656   2.797   1.225  1.1037  0.7352  0.6173
   26MOL   H65817208   5.782   2.797   1.119  0.0926  0.3396  0.3450
   26MOL   H65917209   5.600   2.558   1.171  0.2024 -2.4330 -1.3404
   26MOL   H66017210   5.759   2.565   1.238  3.5642 -1.8950 -3.3220
   26MOL   H66117211   5.744   2.552   1.065 -0.4501 -0.1487 -0.2731
   26MOL   H66217212   5.478   2.621   0.154 -0.5136 -0.0302 -1.7237
   27MOL     C117213   4.682   1.793   2.004  0.1091  0.5226 -0.4258
   27MOL     C217214   4.705   1.842   2.150 -0.5285  0.1524  0.2849
   27MOL     C317215   4.833   1.931   2.156  0.6227 -0.4963 -0.3987
   27MOL     C417216   4.965   1.863   2.143  0.4673  1.1837 -0.2749
   27MOL     C517217   5.004   1.757   2.246  0.2547 -0.0675  1.1802
   27MOL     C617218   5.144   1.692   2.225 -0.4155 -0.1650 -0.7756
   27MOL     C717219   5.150   1.547   2.257 -0.7141  0.2055 -0.3310
   27MOL     C817220   5.131   1.516   2.407 -0.5425 -0.2833  0.8418
   27MOL     C917221   5.074   1.380   2.449  0.0635  0.3997 -0.3458
   27MOL    C1017222   5.162   1.256   2.413  0.4395  0.2162  0.7250
   27MOL    C1117223   5.139   1.204   2.272 -0.0262 -0.1318 -0.6551
   27MOL    H1217224   4.596   1.725   2.010  0.1105  0.4600 -1.0771
   27MOL    H1317225   4.765   1.737   1.960  2.5668  1.4179  2.8874
   27MOL    H1417226   4.719   1.752   2.209  3.3245 -0.9795 -2.2094
   27MOL    H1517227   4.843   1.991   2.247 -1.5714 -0.8461  0.1190
   27MOL    H1617228   4.824   2.007   2.078  1.4398  0.8958  0.8398
   27MOL    H1717229   5.039   1.942   2.128  0.7722  0.8355 -0.6019
   27MOL    H1817230   4.967   1.815   2.045 -0.6632  1.8530 -0.6287
   27MOL    H1917231   4.993   1.797   2.347  2.8124  2.7035  0.4578
   27MOL    H2017232   4.929   1.678   2.240  1.4984 -1.0488 -2.7220
   27MOL    H2117233   5.212   1.750   2.286 -0.6129 -1.9811  1.2126
   27MOL    H2217234   5.187   1.713   2.127  0.0450  1.0379 -0.3221
   27MOL    H2317235   5.082   1.489   2.194 -0.3381 -1.8790  1.1270
   27MOL    H2417236   5.253   1.525   2.225 -0.2216  0.3855  1.0954
   27MOL    H2517237   5.051   1.583   2.438 -1.3835 -1.3484  1.0118
   27MOL    H2617238   5.212   1.556   2.467  0.8753 -0.7657 -0.7117
   27MOL    H2717239   4.974   1.367   2.408 -0.4204 -0.6578  1.1575
   27MOL    H2817240   5.070   1.387   2.557 -1.7281  1.5091 -0.4625
   27MOL    H2917241   5.144   1.176   2.485  0.3744  0.3309  0.8356
   27MOL    H3017242   5.267   1.282   2.427  0.6034  0.7442 -1.3273
   27MOL    H3117243   5.034   1.185   2.255 -0.3178  0.1793  0.7166
   27MOL    H3217244   5.164   1.285   2.203  0.4421 -1.5531 -2.1641
   27MOL    H3317245   5.187   1.108   2.255 -2.9037 -1.3689 -2.0743
   27MOL    H3417246   4.649   1.868   1.932 -2.1309 -0.0114 -0.0150
   27MOL    C3517247   4.586   1.921   2.209 -0.2524  0.2127 -0.3885
   27MOL    C3617248   4.507   1.839   2.310  0.2003 -0.0848  0.1854
   27MOL    C3717249   4.584   1.832   2.442  0.1047 -0.3088  0.2001
   27MOL    C3817250   4.592   1.960   2.524 -0.5316  0.2952  0.0358
   27MOL    C3917251   4.656   1.961   2.659  0.0261 -0.7455 -0.0056
   27MOL    C4017252   4.694   2.098   2.734 -0.3937 -0.3416 -0.0055
   27MOL    C4117253   4.572   2.173   2.781  0.5838  0.4019  0.4107
   27MOL    C4217254   4.603   2.304   2.842  0.8424 -0.4169 -0.0413
   27MOL    C4317255   4.493   2.382   2.917 -0.2851  0.2526  0.1121
   27MOL    C4417256   4.531   2.516   2.980 -1.2367 -0.1813 -0.2150
   27MOL    C4517257   4.411   2.586   3.041 -0.6596 -0.9833 -0.4348
   27MOL    H4617258   4.515   1.946   2.130 -1.6155  2.5520  1.5301
   27MOL    H4717259   4.617   2.020   2.240  4.1355 -0.8279 -1.1036
   27MOL    H4817260   4.501   1.738   2.272 -0.0542 -0.4336  1.1337
   27MOL    H4917261   4.540   1.752   2.500 -3.0690  1.5574  0.4622
   27MOL    H5017262   4.689   1.808   2.425  0.0010  0.1824 -1.2980
   27MOL    H5117263   4.496   2.010   2.536 -0.9767 -0.8374  1.3516
   27MOL    H5217264   4.659   2.027   2.471  2.1322 -0.8403  1.7857
   27MOL    H5317265   4.745   1.901   2.642  0.3463 -0.0701 -0.7682
   27MOL    H5417266   4.601   1.905   2.734 -4.0047  1.1481 -1.3818
   27MOL    H5517267   4.746   2.161   2.662 -1.3214  0.0177 -0.3763
   27MOL    H5617268   4.753   2.076   2.822  1.2918  4.0172  0.0187
   27MOL    H5717269   4.508   2.198   2.696 -1.4037  0.8000  1.9677
   27MOL    H5817270   4.512   2.117   2.854 -1.7062  0.6297 -1.2340
   27MOL    H5917271   4.635   2.373   2.765 -0.9641 -0.6028 -0.9869
   27MOL    H6017272   4.688   2.289   2.909  1.8438 -1.9969 -1.6156
   27MOL    H6117273   4.457   2.331   3.006  1.7078 -0.1529  0.7024
   27MOL    H6217274   4.407   2.400   2.851 -0.3676  0.4366  0.2711
   27MOL    H6317275   4.606   2.500   3.057 -2.9255 -0.5724  1.3909
   27MOL    H6417276   4.584   2.589   2.919  0.2856 -0.2327  1.0190
   27MOL    H6517277   4.451   2.661   3.109  0.4778  0.4926 -2.6830
   27MOL    H6617278   4.348   2.636   2.968 -1.3697 -0.2466  0.6639
   27MOL    H6717279   4.367   2.503   3.096 -0.0617 -0.6688  0.5440
   27MOL    C6817280   4.363   1.896   2.339 -0.3041 -0.1944  0.2832
   27MOL    C6917281   4.260   1.862   2.221 -0.0586  0.5693 -0.9973
   27MOL    C7017282   4.215   1.719   2.229  0.0085 -0.0834  0.0046
   27MOL    C7117283   4.222   1.635   2.096  0.8186  0.4370 -0.0459
   27MOL    C7217284   4.195   1.491   2.126  0.1929  0.2657 -0.1542
   27MOL    C7317285   4.171   1.410   1.997 -0.0305  0.4674  0.5233
   27MOL    C7417286   4.148   1.259   2.039  0.1431 -0.7201  0.3639
   27MOL    C7517287   4.280   1.191   2.081 -0.4709 -0.1527 -0.4293
   27MOL    C7617288   4.264   1.040   2.118  0.5148  0.7318  0.2768
   27MOL    C7717289   4.182   1.000   2.237 -0.4993  0.1078 -0.0583
   27MOL    C7817290   4.034   0.996   2.208 -0.3705 -0.7510 -0.1668
   27MOL    H7917291   4.369   2.004   2.345  1.7009 -0.3147  0.9601
   27MOL    H8017292   4.326   1.856   2.433 -0.8062  2.6802  1.3582
   27MOL    H8117293   4.314   1.884   2.128 -0.6124 -1.1660 -1.7422
   27MOL    H8217294   4.127   1.713   2.293 -2.1374 -1.7355 -2.9570
   27MOL    H8317295   4.291   1.667   2.288 -1.9492 -4.4594 -1.1195
   27MOL    H8417296   4.139   1.671   2.035  0.1021  3.0042  2.3338
   27MOL    H8517297   4.317   1.640   2.043 -0.2825 -0.9505 -2.2782
   27MOL    H8617298   4.103   1.472   2.181  0.6022  0.1822  0.5009
   27MOL    H8717299   4.284   1.457   2.180 -1.1225 -1.8956  0.7358
   27MOL    H8817300   4.076   1.449   1.958  0.3500  1.3666  0.4830
   27MOL    H8917301   4.244   1.420   1.917 -1.8328  0.3293 -1.1846
   27MOL    H9017302   4.116   1.197   1.955 -1.3213  1.0239 -0.4088
   27MOL    H9117303   4.070   1.251   2.114 -0.6055  2.5096  0.0032
   27MOL    H9217304   4.353   1.201   2.000 -0.9948 -1.9228 -1.1249
   27MOL    H9317305   4.327   1.243   2.165  1.2008  1.2950 -2.2190
   27MOL    H9417306   4.226   0.984   2.033 -1.7540 -1.5053  2.6521
   27MOL    H9517307   4.366   1.016   2.145  0.0124  2.1426  3.6969
   27MOL    H9617308   4.226   0.901   2.251  3.3162  1.3820 -2.3396
   27MOL    H9717309   4.206   1.062   2.323 -3.2153  0.5754  0.4010
   27MOL    H9817310   4.022   1.018   2.102 -0.7621  0.9847  0.2159
   27MOL    H9917311   3.985   1.070   2.272 -3.0526 -1.4500 -1.3249
   27MOL   H10017312   3.981   0.906   2.239 -1.4151  0.0295  0.3953
   27MOL   C10117313   4.143   1.963   2.248 -0.1317 -0.1127 -0.1995
   27MOL   C10217314   4.036   1.960   2.144  0.2902 -0.3802  0.6457
   27MOL   C10317315   4.077   2.024   2.017  0.3099  0.0211  0.2964
   27MOL   C10417316   3.998   1.980   1.889 -0.1645  0.6381  0.4483
   27MOL   C10517317   3.984   2.093   1.784 -0.5825 -0.0599 -0.4951
   27MOL   C10617318   3.878   2.067   1.672  0.1160  0.1634 -0.7084
   27MOL   C10717319   3.824   2.196   1.613  0.0622 -0.6180  0.6984
   27MOL   C10817320   3.775   2.187   1.466 -0.3569  0.2077 -0.2918
   27MOL   C10917321   3.876   2.191   1.352  0.8259  0.2573 -0.0014
   27MOL   C11017322   3.814   2.189   1.208  0.3760  0.1749 -0.9059
   27MOL   C11117323   3.784   2.054   1.151 -0.1972  0.0126 -0.1827
   27MOL   H11217324   4.105   1.930   2.344  2.6541 -1.4397  0.5129
   27MOL   H11317325   4.192   2.059   2.262 -0.0999 -0.4845  2.4122
   27MOL   H11417326   4.015   1.857   2.117  1.8759 -0.4026 -0.5874
   27MOL   H11517327   4.086   2.132   2.024  1.6335 -0.0189 -0.6919
   27MOL   H11617328   4.177   1.992   1.990 -0.4157 -1.3552 -0.8787
   27MOL   H11717329   4.041   1.890   1.845  0.1120  1.9720 -2.0819
   27MOL   H11817330   3.900   1.946   1.924 -0.8724  2.7741  0.5906
   27MOL   H11917331   3.959   2.180   1.844  4.2786  0.6263  0.7704
   27MOL   H12017332   4.083   2.113   1.742 -0.4647  1.5221  0.4824
   27MOL   H12117333   3.921   2.003   1.595  1.4044  1.5979 -1.2079
   27MOL   H12217334   3.796   2.004   1.708  0.3302  0.7756  0.8662
   27MOL   H12317335   3.895   2.278   1.622 -0.7259  0.3773 -1.6432
   27MOL   H12417336   3.742   2.222   1.680  1.2497 -0.4182  2.1162
   27MOL   H12517337   3.716   2.097   1.453 -1.9496  1.3764 -1.3503
   27MOL   H12617338   3.695   2.260   1.456  0.2935  0.7193 -2.0047
   27MOL   H12717339   3.924   2.288   1.364 -0.7646  1.0937 -0.3728
   27MOL   H12817340   3.949   2.112   1.369  2.4041  1.7532  0.3126
   27MOL   H12917341   3.884   2.244   1.145 -0.2484  3.2139  0.9515
   27MOL   H13017342   3.728   2.253   1.227 -0.0395 -0.8329  0.7308
   27MOL   H13117343   3.873   1.991   1.153 -0.7273 -0.7238  0.7759
   27MOL   H13217344   3.706   2.002   1.206 -1.1482 -0.3277 -1.8306
   27MOL   H13317345   3.742   2.046   1.050 -0.8183 -0.2834  0.0991
   27MOL   C13417346   3.902   2.032   2.188  0.0259  0.5409 -0.6480
   27MOL   C13517347   3.822   1.984   2.315 -0.0667 -0.3188 -0.1273
   27MOL   C13617348   3.786   1.837   2.319  0.2566 -0.0995  0.1006
   27MOL   C13717349   3.751   1.772   2.454  0.7321  0.3971 -0.4483
   27MOL   C13817350   3.700   1.629   2.419 -0.2365  0.4183 -0.9349
   27MOL   C13917351   3.605   1.575   2.523  0.2639  0.3757  0.7692
   27MOL   C14017352   3.667   1.561   2.661 -0.2605 -0.1341 -0.1697
   27MOL   C14117353   3.621   1.668   2.765  0.2143 -0.2012  0.0200
   27MOL   C14217354   3.716   1.676   2.888  1.4053  0.1044  0.8431
   27MOL   C14317355   3.706   1.803   2.968 -0.0187 -0.5164  0.1293
   27MOL   C14417356   3.755   1.802   3.116  0.0746 -0.4599  0.4447
   27MOL   H14517357   3.919   2.140   2.185 -0.4200  0.6485  0.6615
   27MOL   H14617358   3.832   2.003   2.109 -1.0381  1.5815 -0.0990
   27MOL   H14717359   3.897   1.995   2.393  0.0485  0.0634 -0.2917
   27MOL   H14817360   3.874   1.780   2.286  0.8213  0.6010  0.3945
   27MOL   H14917361   3.715   1.830   2.236 -0.0127 -2.6175  0.5071
   27MOL   H15017362   3.826   1.773   2.532  1.0175 -3.1285 -0.5558
   27MOL   H15117363   3.662   1.818   2.496 -0.3483 -1.9011 -0.1546
   27MOL   H15217364   3.652   1.631   2.321 -1.1612 -2.0400 -0.5725
   27MOL   H15317365   3.789   1.567   2.414 -0.5832 -0.1246 -0.4175
   27MOL   H15417366   3.516   1.637   2.527  2.9022  4.3633  0.5339
   27MOL   H15517367   3.577   1.475   2.491 -0.1870  0.1002  2.0166
   27MOL   H15617368   3.631   1.465   2.696 -1.3330 -0.2019 -1.4231
   27MOL   H15717369   3.776   1.550   2.658 -0.3526 -1.2252  0.3782
   27MOL   H15817370   3.608   1.762   2.710 -1.1723 -0.2491  0.2416
   27MOL   H15917371   3.524   1.650   2.811  0.4202 -0.9660  0.1631
   27MOL   H16017372   3.707   1.589   2.953  2.6520 -0.6769 -0.0033
   27MOL   H16117373   3.821   1.668   2.860  0.7541 -1.1215 -1.3002
   27MOL   H16217374   3.747   1.886   2.910  0.2674 -1.2868 -0.7938
   27MOL   H16317375   3.605   1.840   2.982  0.1274 -0.2818  0.5928
   27MOL   H16417376   3.720   1.713   3.167  1.0493 -0.0155  1.9249
   27MOL   H16517377   3.720   1.890   3.170  1.6440  0.1721  0.4682
   27MOL   H16617378   3.863   1.801   3.130  0.6830  0.0341 -3.4708
   27MOL   C16717379   3.697   2.069   2.342 -0.0694 -0.0715 -0.0141
   27MOL   C16817380   3.586   2.083   2.230 -0.0785  0.8066  0.4509
   27MOL   C16917381   3.604   2.219   2.151 -0.2851  0.3266 -0.1629
   27MOL   C17017382   3.520   2.226   2.024  0.3219 -0.0807  0.2144
   27MOL   C17117383   3.522   2.363   1.946 -0.6058  0.5208 -0.3094
   27MOL   C17217384   3.434   2.345   1.824  0.2164  0.4371  0.0156
   27MOL   C17317385   3.425   2.471   1.730 -0.5042  0.3524  0.3422
   27MOL   C17417386   3.343   2.437   1.602  0.2119 -0.4500  0.0631
   27MOL   C17517387   3.414   2.374   1.485 -0.6883  0.1537 -0.2960
   27MOL   C17617388   3.328   2.352   1.365 -0.1353  0.0216  0.2750
   27MOL   C17717389   3.407   2.292   1.242 -0.2603  0.3314  0.5351
   27MOL   H17817390   3.661   2.028   2.436  0.3803  0.9466  0.6136
   27MOL   H17917391   3.715   2.169   2.381 -1.9099  0.0476  0.5680
   27MOL   H18017392   3.588   1.994   2.167 -2.0935  0.0544  1.3892
   27MOL   H18117393   3.711   2.220   2.130 -0.5576 -0.1353 -1.6172
   27MOL   H18217394   3.582   2.302   2.218 -1.6107 -0.2959  0.1946
   27MOL   H18317395   3.555   2.145   1.959 -1.0195 -1.0367  0.6537
   27MOL   H18417396   3.416   2.197   2.042  0.3598 -1.2062 -1.2623
   27MOL   H18517397   3.622   2.382   1.906  0.4053 -3.5401  0.0101
   27MOL   H18617398   3.489   2.440   2.015  0.7070 -0.9551  2.0167
   27MOL   H18717399   3.470   2.258   1.769 -0.5067  0.9087 -1.2373
   27MOL   H18817400   3.334   2.312   1.855  0.7282  0.5449  1.8110
   27MOL   H18917401   3.520   2.522   1.713  1.0360 -2.1354  1.2517
   27MOL   H19017402   3.374   2.558   1.771 -0.3884 -0.9513  3.3245
   27MOL   H19117403   3.243   2.400   1.626  0.0206 -0.0870 -0.1757
   27MOL   H19217404   3.312   2.534   1.563  1.2822  1.2962  3.2777
   27MOL   H19317405   3.451   2.278   1.522  0.2095  0.2518 -0.9361
   27MOL   H19417406   3.500   2.430   1.449 -0.2242  0.4062  1.1381
   27MOL   H19517407   3.292   2.450   1.332 -0.3531  0.6398  2.2717
   27MOL   H19617408   3.244   2.287   1.388  0.6618 -1.9309 -2.1888
   27MOL   H19717409   3.485   2.219   1.263 -0.4540  0.7802  2.9024
   27MOL   H19817410   3.447   2.376   1.184  0.1603  0.1650  0.5803
   27MOL   H19917411   3.333   2.244   1.178 -1.8209  1.4608  1.4773
   27MOL   C20017412   3.448   2.082   2.296  0.5097 -0.0413 -0.5955
   27MOL   C20117413   3.404   1.957   2.363  0.4056  0.3892 -0.1589
   27MOL   C20217414   3.397   1.838   2.268 -0.8112  0.6564  0.3947
   27MOL   C20317415   3.285   1.848   2.166 -0.9368  0.2999  0.0830
   27MOL   C20417416   3.283   1.734   2.065  0.2590  0.0737 -0.6775
   27MOL   C20517417   3.318   1.590   2.132 -0.0047 -0.4574 -0.0616
   27MOL   C20617418   3.287   1.475   2.039  0.0135 -0.2330 -0.2163
   27MOL   C20717419   3.262   1.346   2.122  0.4727 -0.8995 -0.3099
   27MOL   C20817420   3.276   1.222   2.036 -0.3659  0.1376  0.1395
   27MOL   C20917421   3.146   1.156   2.000  0.4247  1.3435  0.0005
   27MOL   C21017422   3.165   1.027   1.914 -0.6083 -0.2223 -0.1925
   27MOL   H21117423   3.448   2.176   2.352 -2.4714 -0.2186 -0.2106
   27MOL   H21217424   3.370   2.098   2.221  1.4247 -1.1394 -1.7983
   27MOL   H21317425   3.483   1.935   2.436 -0.2584  0.2028  0.5136
   27MOL   H21417426   3.370   1.755   2.333 -0.0257 -1.3434 -1.7590
   27MOL   H21517427   3.492   1.819   2.218 -1.8051  0.3093 -1.3969
   27MOL   H21617428   3.301   1.936   2.104 -1.8375 -0.5956 -1.4524
   27MOL   H21717429   3.191   1.847   2.220 -0.7621  0.9144  0.4040
   27MOL   H21817430   3.351   1.758   1.983 -0.5866  0.4528 -1.2790
   27MOL   H21917431   3.181   1.734   2.028 -0.7639  2.0642  2.0011
   27MOL   H22017432   3.419   1.585   2.172  0.4239  1.9797 -0.7882
   27MOL   H22117433   3.254   1.589   2.220  0.3537 -0.7192  0.1972
   27MOL   H22217434   3.381   1.469   1.984  1.1458 -1.8438  1.7930
   27MOL   H22317435   3.209   1.495   1.965  0.1117 -1.3212 -0.6239
   27MOL   H22417436   3.163   1.342   2.168  0.4950 -1.2580 -0.2943
   27MOL   H22517437   3.339   1.338   2.199 -0.9184  1.5177  1.4042
   27MOL   H22617438   3.347   1.157   2.087  0.5739  2.3051  1.6629
   27MOL   H22717439   3.327   1.254   1.945  0.7809 -1.1006  0.3379
   27MOL   H22817440   3.101   1.134   2.097 -2.4349 -1.1764 -1.7819
   27MOL   H22917441   3.075   1.223   1.952  0.1531  0.9343 -0.1802
   27MOL   H23017442   3.223   0.948   1.964  0.0057 -1.5263 -2.8791
   27MOL   H23117443   3.208   1.052   1.817  0.7402 -2.1616 -0.1161
   27MOL   H23217444   3.070   0.981   1.890 -0.7029  0.4530 -1.1387
   27MOL   C23317445   3.267   1.978   2.443 -0.1431  0.3479 -0.0642
   27MOL   C23417446   3.279   2.058   2.579  0.7081  0.1863 -1.0849
   27MOL   C23517447   3.335   1.987   2.702  0.4151  0.4058 -0.1356
   27MOL   C23617448   3.419   2.067   2.796  1.0495  0.2160 -0.1599
   27MOL   C23717449   3.550   2.111   2.731  0.1711  0.9522 -0.3408
   27MOL   C23817450   3.644   2.160   2.839 -0.1999 -0.2464 -0.0187
   27MOL   C23917451   3.783   2.189   2.768 -0.9785  0.8029 -0.2702
   27MOL   C24017452   3.871   2.070   2.743 -0.3340  0.4483 -0.9664
   27MOL   C24117453   4.005   2.103   2.672  0.0399  0.2006  0.5440
   27MOL   C24217454   4.104   1.994   2.667  0.2313  0.2856 -0.1012
   27MOL   C24317455   4.136   1.924   2.804  0.6189  0.0616 -0.0012
   27MOL   H24417456   3.221   1.883   2.471  0.3100  0.0874 -0.1864
   27MOL   H24517457   3.191   2.004   2.370 -0.8063 -0.9568  0.1462
   27MOL   H24617458   3.353   2.134   2.553 -0.8758  1.3051 -2.3884
   27MOL   H24717459   3.244   1.946   2.744  0.2575  0.0671 -0.8198
   27MOL   H24817460   3.393   1.897   2.682  2.1445  1.1180  1.4553
   27MOL   H24917461   3.447   2.009   2.884  3.4543 -1.6282 -2.0948
   27MOL   H25017462   3.370   2.149   2.848  0.0035 -1.2418  1.2284
   27MOL   H25117463   3.532   2.187   2.655  0.4257 -0.1616 -1.5477
   27MOL   H25217464   3.594   2.030   2.672  0.5779  1.0615 -0.1875
   27MOL   H25317465   3.652   2.099   2.929  0.8799 -0.4759 -0.2658
   27MOL   H25417466   3.617   2.257   2.879 -1.8253 -0.4091 -0.6881
   27MOL   H25517467   3.761   2.239   2.674 -3.5855  2.5244  1.2023
   27MOL   H25617468   3.843   2.265   2.818 -0.8756  0.4744  0.1000
   27MOL   H25717469   3.913   2.034   2.837  1.2113  2.1886 -0.9548
   27MOL   H25817470   3.826   1.982   2.696 -0.6166 -0.3772  0.7957
   27MOL   H25917471   3.986   2.137   2.570 -0.8070 -1.0724  0.2708
   27MOL   H26017472   4.047   2.193   2.717 -0.1926  1.4382 -1.6767
   27MOL   H26117473   4.190   2.036   2.616 -0.3308  2.1383  0.4547
   27MOL   H26217474   4.069   1.914   2.601  0.8440 -0.4142  0.4148
   27MOL   H26317475   4.238   1.888   2.809  0.5614  0.1691  3.2345
   27MOL   H26417476   4.065   1.842   2.818 -1.2205  1.6756  0.3783
   27MOL   H26517477   4.124   1.986   2.894  2.6640  0.4069  0.0630
   27MOL   C26617478   3.149   2.134   2.606 -0.0697  0.3977  0.7529
   27MOL   C26717479   3.124   2.261   2.517  0.2182  0.1322 -0.1689
   27MOL   C26817480   3.155   2.390   2.601 -0.1138  0.3825 -0.2402
   27MOL   C26917481   3.281   2.386   2.681 -0.1460 -0.4600 -0.0847
   27MOL   C27017482   3.302   2.516   2.766 -0.7181 -0.3195  0.0463
   27MOL   C27117483   3.322   2.652   2.687 -0.0222  0.5738 -0.2291
   27MOL   C27217484   3.350   2.775   2.777  0.6627  0.5582 -0.0563
   27MOL   C27317485   3.371   2.905   2.698  0.1451  0.0784 -0.3433
   27MOL   C27417486   3.403   3.016   2.786  0.6050  0.3368  0.5637
   27MOL   C27517487   3.436   3.135   2.695  0.4378 -0.6643 -0.6874
   27MOL   C27617488   3.515   3.236   2.781 -0.3689 -0.0481  0.3960
   27MOL   H27717489   3.119   2.157   2.708 -2.4960  0.0861  0.1458
   27MOL   H27817490   3.071   2.069   2.567  1.8420 -2.1027  0.9590
   27MOL   H27917491   3.190   2.271   2.431  3.5038 -2.4535  1.8936
   27MOL   H28017492   3.156   2.484   2.545 -0.4888  1.0347  0.8249
   27MOL   H28117493   3.076   2.399   2.676 -0.3956  0.6514 -0.5653
   27MOL   H28217494   3.363   2.364   2.613 -1.0867  3.9640 -2.8409
   27MOL   H28317495   3.280   2.311   2.760 -0.4904  0.2397  0.5843
   27MOL   H28417496   3.387   2.513   2.834  0.0835  0.7019 -0.8737
   27MOL   H28517497   3.218   2.526   2.833 -0.4564 -1.3451  0.5255
   27MOL   H28617498   3.235   2.672   2.624  0.2916  1.4154 -0.3936
   27MOL   H28717499   3.404   2.643   2.615 -0.6240 -0.8536 -0.7653
   27MOL   H28817500   3.274   2.802   2.850 -0.8131  1.0752 -1.7417
   27MOL   H28917501   3.431   2.740   2.841 -1.4342 -2.5526  1.0104
   27MOL   H29017502   3.282   2.935   2.643  0.2151 -1.8903 -1.5722
   27MOL   H29117503   3.442   2.897   2.617  0.1717 -3.7852 -0.0412
   27MOL   H29217504   3.336   3.033   2.871  1.1306  0.6839  0.9135
   27MOL   H29317505   3.491   2.979   2.840 -0.9989 -1.0396  2.3090
   27MOL   H29417506   3.343   3.178   2.657 -0.0213 -1.0386 -0.0014
   27MOL   H29517507   3.504   3.122   2.610  0.5693  2.7889 -1.1844
   27MOL   H29617508   3.462   3.271   2.870 -0.0359 -0.2476  0.6770
   27MOL   H29717509   3.544   3.320   2.718 -3.3547  0.2766 -0.5942
   27MOL   H29817510   3.596   3.178   2.827 -0.5733 -0.5029  0.1792
   27MOL   C29917511   2.972   2.257   2.473  0.4788 -0.0017 -0.0978
   27MOL   C30017512   2.937   2.163   2.357 -0.7206 -0.0496  0.1089
   27MOL   C30117513   2.954   2.226   2.218  0.1610 -0.5860  0.5182
   27MOL   C30217514   2.982   2.126   2.105 -0.8290  0.1306 -0.3150
   27MOL   C30317515   3.013   2.190   1.966 -0.1783 -0.2957 -0.5211
   27MOL   C30417516   2.980   2.107   1.836 -0.5143 -0.2864 -0.0594
   27MOL   C30517517   3.054   1.970   1.833  0.6899  0.5102  0.3838
   27MOL   C30617518   3.046   1.895   1.697 -0.4630  0.0620  0.6369
   27MOL   C30717519   3.126   1.964   1.585  0.4338 -0.2674 -0.3276
   27MOL   C30817520   3.085   1.902   1.445 -0.8709 -0.5278 -0.1484
   27MOL   C30917521   3.188   1.941   1.331  0.2584 -0.1406  0.0310
   27MOL   H31017522   2.956   2.361   2.446  2.0597 -0.3054 -2.3626
   27MOL   H31117523   2.901   2.237   2.553  0.1301  0.3887 -0.3082
   27MOL   H31217524   2.990   2.068   2.366 -0.3241  0.2602  1.1899
   27MOL   H31317525   2.860   2.272   2.187  0.9236  0.1932 -0.6782
   27MOL   H31417526   3.042   2.290   2.228 -0.1315  0.0900 -1.1182
   27MOL   H31517527   3.080   2.086   2.130 -0.4902  1.2286  0.1826
   27MOL   H31617528   2.904   2.051   2.100 -2.0438  1.4235 -0.9838
   27MOL   H31717529   2.948   2.277   1.962  0.7932  0.4029 -1.4174
   27MOL   H31817530   3.111   2.240   1.966 -0.4740  0.2925 -0.4273
   27MOL   H31917531   3.000   2.173   1.752 -1.6058 -1.3519 -1.2031
   27MOL   H32017532   2.872   2.086   1.835 -0.6661  0.5099 -2.0886
   27MOL   H32117533   3.158   1.989   1.861  0.3402 -0.7407  2.6997
   27MOL   H32217534   3.017   1.918   1.921 -0.4636 -1.9397 -1.4949
   27MOL   H32317535   2.940   1.885   1.671  0.0504  1.7113 -2.2532
   27MOL   H32417536   3.081   1.793   1.715 -0.0124  0.5848  2.8357
   27MOL   H32517537   3.232   1.944   1.598  0.2560 -0.8594  0.2437
   27MOL   H32617538   3.115   2.073   1.586  0.9741 -0.2106  1.9323
   27MOL   H32717539   2.985   1.927   1.412 -0.3167 -0.2863 -1.6791
   27MOL   H32817540   3.086   1.794   1.461 -0.7726 -0.5394 -0.2314
   27MOL   H32917541   3.146   1.944   1.231  2.7914 -2.9665 -1.1703
   27MOL   H33017542   3.227   2.042   1.346 -0.7284  0.2994 -0.2929
   27MOL   H33117543   3.276   1.878   1.327  0.6785  0.4253  0.3468
   27MOL   C33217544   2.789   2.110   2.368  0.2875  0.0628  0.2084
   27MOL   C33317545   2.763   2.003   2.474  0.4404 -0.5642  1.3105
   27MOL   C33417546   2.829   1.863   2.455 -0.0567 -0.3316  0.0437
   27MOL   C33517547   2.871   1.799   2.594 -0.2854 -0.5618 -0.2249
   27MOL   C33617548   2.915   1.659   2.569 -0.3744 -0.1274  0.1151
   27MOL   C33717549   3.069   1.651   2.543  0.3587 -0.2990 -0.1134
   27MOL   C33817550   3.125   1.510   2.521 -0.2294 -0.1142 -0.3206
   27MOL   C33917551   3.126   1.417   2.645 -0.8579  0.4379 -1.0532
   27MOL   C34017552   3.185   1.279   2.619  0.3232 -0.5723  0.3766
   27MOL   C34117553   3.142   1.179   2.731  0.2942 -0.0091 -0.1667
   27MOL   C34217554   3.217   1.212   2.863 -0.0376 -0.6356 -0.7653
   27MOL   H34317555   2.718   2.190   2.385  1.0136  0.7885 -0.1416
   27MOL   H34417556   2.752   2.065   2.276  3.9451  1.3328 -2.0153
   27MOL   H34517557   2.782   2.045   2.572 -2.1368 -1.1813  2.1088
   27MOL   H34617558   2.921   1.883   2.400 -0.4604 -0.2099 -0.5823
   27MOL   H34717559   2.772   1.803   2.385  0.4803 -0.5050 -0.2496
   27MOL   H34817560   2.964   1.842   2.630  0.1526 -1.7947  0.1262
   27MOL   H34917561   2.786   1.805   2.662  1.0491  0.8610  1.3260
   27MOL   H35017562   2.889   1.608   2.661 -2.7094 -3.4583 -2.2470
   27MOL   H35117563   2.865   1.608   2.486 -0.0600 -0.0721 -0.1123
   27MOL   H35217564   3.116   1.691   2.633  3.4572 -1.0944 -1.3450
   27MOL   H35317565   3.083   1.704   2.449  2.5748 -2.3156 -0.9645
   27MOL   H35417566   3.227   1.515   2.483  0.1005  2.0089  0.7584
   27MOL   H35517567   3.056   1.474   2.445  0.8583  0.3697 -1.5595
   27MOL   H35617568   3.181   1.475   2.719 -2.0838 -1.5161  1.4823
   27MOL   H35717569   3.029   1.405   2.694  0.3827  0.0703  1.4057
   27MOL   H35817570   3.294   1.283   2.618  0.3134 -0.2649 -2.2418
   27MOL   H35917571   3.148   1.245   2.522  0.3802  0.0042  0.1514
   27MOL   H36017572   3.159   1.072   2.716  1.8782  0.4316 -1.6299
   27MOL   H36117573   3.035   1.190   2.745  0.8204  0.9691  3.6730
   27MOL   H36217574   3.323   1.191   2.854  0.6784  1.8200  1.3646
   27MOL   H36317575   3.203   1.316   2.891  2.5232 -0.3922 -0.2993
   27MOL   H36417576   3.170   1.164   2.949 -2.1731  1.5551 -0.6380
   27MOL   C36517577   2.607   1.980   2.482 -0.0698  0.7684  0.2494
   27MOL   C36617578   2.523   2.083   2.556 -0.2212 -0.0959  0.5964
   27MOL   C36717579   2.372   2.042   2.530 -0.2874  0.1244 -0.9017
   27MOL   C36817580   2.270   2.150   2.554 -0.0342  0.6807 -0.4511
   27MOL   C36917581   2.276   2.270   2.464 -0.7048  0.2869  0.6161
   27MOL   C37017582   2.201   2.395   2.497  0.1993 -0.3144  0.5007
   27MOL   C37117583   2.143   2.469   2.374 -0.2795  0.3570 -0.6098
   27MOL   C37217584   2.061   2.592   2.415 -0.5948 -0.5480 -0.1252
   27MOL   C37317585   1.969   2.629   2.301 -0.4522  0.3064 -0.5256
   27MOL   C37417586   1.849   2.536   2.278  0.5233  0.0835 -0.3431
   27MOL   C37517587   1.725   2.621   2.232  0.5756  0.3540 -0.4066
   27MOL   H37617588   2.565   1.979   2.382 -0.1688  2.2567  0.2629
   27MOL   H37717589   2.574   1.884   2.521 -1.3494  0.7955 -0.7341
   27MOL   H37817590   2.547   2.174   2.502 -0.7815  0.1106  0.6939
   27MOL   H37917591   2.344   1.950   2.583 -1.5135  0.2421 -1.3308
   27MOL   H38017592   2.360   2.027   2.423 -1.2538 -0.2768 -0.7429
   27MOL   H38117593   2.273   2.175   2.660 -0.1145  3.0661 -0.9691
   27MOL   H38217594   2.174   2.101   2.544  1.3888 -1.7977 -2.6556
   27MOL   H38317595   2.219   2.236   2.377 -1.1114 -2.0122  1.7464
   27MOL   H38417596   2.376   2.298   2.431 -1.1780  1.0360 -0.2347
   27MOL   H38517597   2.257   2.462   2.562  2.8656 -0.4150 -1.6224
   27MOL   H38617598   2.124   2.368   2.570  0.5881 -1.7921  0.3770
   27MOL   H38717599   2.229   2.495   2.312 -1.7209 -0.1540 -2.8837
   27MOL   H38817600   2.082   2.402   2.313 -0.0175  0.1915 -0.6921
   27MOL   H38917601   2.117   2.683   2.438  0.1673 -0.8961 -0.6234
   27MOL   H39017602   1.995   2.579   2.501  0.4197 -1.7915  0.4671
   27MOL   H39117603   1.929   2.725   2.332 -0.4954  0.0189  0.3259
   27MOL   H39217604   2.022   2.642   2.207 -0.2017  1.8735 -0.1757
   27MOL   H39317605   1.867   2.449   2.215 -0.7186 -0.6156  0.2383
   27MOL   H39417606   1.834   2.494   2.378  1.6334 -0.7795 -0.5316
   27MOL   H39517607   1.739   2.692   2.150  1.7324  2.2074  1.3625
   27MOL   H39617608   1.689   2.675   2.320  0.8919 -0.4633  0.2276
   27MOL   H39717609   1.646   2.554   2.200 -1.0052  1.5365  0.9694
   27MOL   C39817610   2.548   2.096   2.709  0.5441 -0.0262 -0.2610
   27MOL   C39917611   2.630   2.224   2.756  0.8202  0.1231  0.4336
   27MOL   C40017612   2.670   2.221   2.903  0.2475 -0.4546 -0.3763
   27MOL   C40117613   2.785   2.122   2.928  0.3666  0.7095  0.6113
   27MOL   C40217614   2.834   2.104   3.069 -0.3635 -0.2036 -0.4983
   27MOL   C40317615   2.991   2.072   3.073 -0.4478 -0.7959 -0.8539
   27MOL   C40417616   3.022   1.926   3.039  0.1060  0.1823  0.0666
   27MOL   C40517617   3.167   1.885   3.056  0.1939  0.6429 -0.3248
   27MOL   C40617618   3.192   1.736   3.021  0.2829  0.4074  0.5850
   27MOL   C40717619   3.330   1.690   3.047  0.8333 -0.0277 -0.2958
   27MOL   C40817620   3.324   1.540   3.025  0.0739 -0.3746 -0.4304
   27MOL   H40917621   2.589   2.001   2.746  0.3210 -0.8042 -1.9741
   27MOL   H41017622   2.452   2.125   2.752  1.2062  2.4815 -0.3891
   27MOL   H41117623   2.724   2.229   2.702  1.6914 -0.3726  1.8942
   27MOL   H41217624   2.590   2.220   2.978  0.8332 -0.8606  0.2462
   27MOL   H41317625   2.705   2.324   2.914  1.4563 -0.4453 -3.6180
   27MOL   H41417626   2.756   2.020   2.903 -1.3020  1.0588  1.0467
   27MOL   H41517627   2.868   2.144   2.861 -0.1380  0.5394 -0.0776
   27MOL   H41617628   2.822   2.202   3.116  0.1677 -0.1715 -0.4272
   27MOL   H41717629   2.770   2.041   3.131  2.0122 -0.7390  1.5259
   27MOL   H41817630   3.033   2.096   3.170 -0.4172 -1.0815 -0.7949
   27MOL   H41917631   3.040   2.134   2.998  0.2580 -1.7192 -1.1735
   27MOL   H42017632   2.961   1.850   3.088  1.4101 -0.9975 -0.1073
   27MOL   H42117633   2.996   1.913   2.934 -1.8966 -0.9007  0.6677
   27MOL   H42217634   3.205   1.910   3.156 -1.8264  0.8028  0.4312
   27MOL   H42317635   3.233   1.927   2.980 -0.3741 -0.1514 -1.2626
   27MOL   H42417636   3.122   1.678   3.081 -0.8046  0.1341 -0.9500
   27MOL   H42517637   3.164   1.721   2.917 -1.4681  1.8937  0.8122
   27MOL   H42617638   3.364   1.715   3.147  3.0822 -1.1323 -0.7388
   27MOL   H42717639   3.401   1.745   2.985 -0.4004  0.3794 -1.3773
   27MOL   H42817640   3.303   1.504   2.924  0.6641 -0.0671 -0.6621
   27MOL   H42917641   3.240   1.503   3.084 -0.5091  0.6823 -0.5929
   27MOL   H43017642   3.416   1.492   3.059  1.0451  0.0019 -2.4526
   27MOL   C43117643   2.560   2.361   2.714  0.1504 -0.2926  0.0048
   27MOL   C43217644   2.644   2.461   2.632 -0.1353 -0.0233 -0.7269
   27MOL   C43317645   2.771   2.508   2.704 -0.0371  0.0669  0.2172
   27MOL   C43417646   2.760   2.580   2.839 -0.0328 -0.0759  0.1400
   27MOL   C43517647   2.869   2.693   2.849 -0.2339 -0.2094  0.9072
   27MOL   C43617648   2.849   2.819   2.757 -0.4486  0.6244 -0.3823
   27MOL   C43717649   2.939   2.942   2.790 -0.6611 -0.4800 -0.8777
   27MOL   C43817650   2.914   3.064   2.691  0.1514  0.0890  0.4221
   27MOL   C43917651   3.027   3.171   2.698  0.7727 -0.2938 -0.1574
   27MOL   C44017652   3.057   3.228   2.835  0.2147  1.1006  0.1639
   27MOL   C44117653   3.142   3.360   2.844  0.7805 -0.0714  0.2397
   27MOL   H44217654   2.515   2.414   2.798  0.6834 -1.0839  0.7930
   27MOL   H44317655   2.478   2.322   2.654 -0.1851 -2.3166  1.7276
   27MOL   H44417656   2.673   2.406   2.542 -0.4801 -1.8113  0.2327
   27MOL   H44517657   2.844   2.427   2.713  0.9693  0.4244 -3.8138
   27MOL   H44617658   2.817   2.571   2.628  0.8853  1.5654  1.9934
   27MOL   H44717659   2.778   2.517   2.926 -1.3461  0.2524  0.6513
   27MOL   H44817660   2.661   2.624   2.834  0.2501  0.4042 -1.4889
   27MOL   H44917661   2.968   2.653   2.828 -0.7314 -1.7585  1.4331
   27MOL   H45017662   2.879   2.730   2.952 -0.7166 -0.6536  1.1143
   27MOL   H45117663   2.744   2.847   2.766  0.4738  4.4076 -0.8155
   27MOL   H45217664   2.870   2.788   2.655  1.3236  0.2851  0.0647
   27MOL   H45317665   3.047   2.923   2.787 -0.5322  0.1822 -0.4274
   27MOL   H45417666   2.925   2.966   2.895  0.1110 -0.7817 -0.6967
   27MOL   H45517667   2.904   3.017   2.593  3.1875 -0.3382  0.2608
   27MOL   H45617668   2.822   3.115   2.721 -1.6537 -2.2157 -1.0468
   27MOL   H45717669   2.990   3.247   2.630  1.6718 -1.3869 -1.8828
   27MOL   H45817670   3.122   3.135   2.660  1.9034  0.9997  1.3443
   27MOL   H45917671   3.122   3.155   2.885 -0.5306 -0.7679 -1.5465
   27MOL   H46017672   2.970   3.232   2.901 -1.2730 -1.4806 -1.5538
   27MOL   H46117673   3.074   3.434   2.801 -0.9333 -0.8774  1.4869
   27MOL   H46217674   3.161   3.385   2.948 -4.0352  0.2065  1.1638
   27MOL   H46317675   3.236   3.354   2.789  2.2015 -0.1794  2.6384
   27MOL   C46417676   2.554   2.581   2.577 -0.3235  0.4622 -0.4977
   27MOL   C46517677   2.614   2.669   2.470  0.4731  0.8763  0.4311
   27MOL   C46617678   2.656   2.595   2.348  0.3182  0.1921 -0.2463
   27MOL   C46717679   2.544   2.525   2.258 -0.1114  0.2737  0.0428
   27MOL   C46817680   2.613   2.423   2.178  0.2442 -0.2326 -0.1028
   27MOL   C46917681   2.536   2.330   2.080  0.4718  0.2301  0.2501
   27MOL   C47017682   2.616   2.216   2.015  0.6933  0.5974 -0.0863
   27MOL   C47117683   2.533   2.114   1.940 -0.1580  0.1710 -0.5404
   27MOL   C47217684   2.447   2.024   2.037  0.0403 -0.1189 -0.2058
   27MOL   C47317685   2.530   1.911   2.107  0.2051  0.4705 -0.3529
   27MOL   C47417686   2.534   1.784   2.018 -1.1340 -0.6320  0.1502
   27MOL   H47517687   2.530   2.646   2.661 -0.8006 -0.8272  0.3959
   27MOL   H47617688   2.461   2.531   2.548  0.6752 -1.3915 -0.6355
   27MOL   H47717689   2.700   2.709   2.525  1.4180  1.3466 -1.3503
   27MOL   H47817690   2.726   2.519   2.380 -0.4912 -0.2919  0.3654
   27MOL   H47917691   2.711   2.659   2.278  0.2404 -2.0167 -2.4080
   27MOL   H48017692   2.465   2.475   2.313 -1.0475  0.7556 -0.8529
   27MOL   H48117693   2.495   2.594   2.189 -0.3637  2.2835  2.1468
   27MOL   H48217694   2.655   2.359   2.256 -1.5920  0.6551  1.6606
   27MOL   H48317695   2.704   2.470   2.139  0.8786  1.1095  2.8096
   27MOL   H48417696   2.454   2.292   2.140 -0.5442  3.3629  0.9743
   27MOL   H48517697   2.486   2.394   2.007 -1.0175 -1.3772 -0.1536
   27MOL   H48617698   2.680   2.274   1.948  0.0929 -0.7990 -1.9244
   27MOL   H48717699   2.681   2.161   2.083  3.0886  0.9412 -2.0169
   27MOL   H48817700   2.472   2.161   1.863 -0.1407 -2.3412 -2.1494
   27MOL   H48917701   2.610   2.058   1.888  0.5956 -0.0177  0.7472
   27MOL   H49017702   2.402   2.093   2.108 -0.1848  1.0005 -1.4117
   27MOL   H49117703   2.370   1.972   1.980  0.4272 -1.3159  0.3530
   27MOL   H49217704   2.631   1.948   2.123 -0.3514  1.0264  2.0621
   27MOL   H49317705   2.483   1.889   2.203  0.8187 -2.1523 -0.6157
   27MOL   H49417706   2.441   1.737   1.987  0.0372 -2.6519 -0.4194
   27MOL   H49517707   2.595   1.712   2.073  0.0185 -0.6732 -1.1462
   27MOL   H49617708   2.598   1.813   1.934 -2.6280  0.0327 -0.7785
   27MOL   C49717709   2.503   2.778   2.436 -0.4515 -0.2606  0.2453
   27MOL   C49817710   2.538   2.899   2.341 -0.4705  0.0224 -0.0396
   27MOL   C49917711   2.673   2.959   2.396 -0.1060  0.3809  0.5422
   27MOL   C50017712   2.725   3.062   2.294  0.0594 -0.4105 -0.6846
   27MOL   C50117713   2.871   3.115   2.305  0.1188 -0.1096 -0.3289
   27MOL   C50217714   2.976   2.999   2.297  0.1316 -0.3434 -0.0764
   27MOL   C50317715   3.123   3.046   2.296  0.4424  0.5557  0.1965
   27MOL   C50417716   3.208   2.938   2.230 -0.2976 -0.6324  0.4482
   27MOL   C50517717   3.233   2.805   2.303 -0.2175  0.0677  0.4371
   27MOL   C50617718   3.302   2.702   2.213 -0.6067 -0.0583  0.0982
   27MOL   C50717719   3.315   2.566   2.287  0.1365  0.0581 -0.5599
   27MOL   H50817720   2.424   2.720   2.390  0.0454 -1.2374  0.6177
   27MOL   H50917721   2.468   2.815   2.532 -0.9824 -0.1677  0.0189
   27MOL   H51017722   2.566   2.850   2.248 -1.6757 -0.3533 -0.2083
   27MOL   H51117723   2.749   2.880   2.392 -0.0921  0.3384  1.4731
   27MOL   H51217724   2.677   3.005   2.495 -0.2754 -1.7698  1.5812
   27MOL   H51317725   2.659   3.149   2.295  2.0575  1.1433 -0.5268
   27MOL   H51417726   2.712   3.018   2.195  0.7899 -3.6177  0.5819
   27MOL   H51517727   2.883   3.183   2.220 -0.2414 -0.4622 -0.6699
   27MOL   H51617728   2.885   3.169   2.398  1.5163 -0.2410 -0.4559
   27MOL   H51717729   2.957   2.931   2.380  1.4491  0.3021  0.7676
   27MOL   H51817730   2.954   2.937   2.210  0.8235  0.7463 -1.0441
   27MOL   H51917731   3.124   3.138   2.238  1.7569  0.8272  0.6187
   27MOL   H52017732   3.165   3.068   2.395  0.8065 -0.3250  0.2408
   27MOL   H52117733   3.306   2.981   2.211 -0.9314 -0.5703 -2.9831
   27MOL   H52217734   3.171   2.905   2.133  0.5525 -0.2899  0.0026
   27MOL   H52317735   3.141   2.770   2.349 -1.5484  2.9771  0.0999
   27MOL   H52417736   3.286   2.825   2.397 -1.1872  0.0180  0.9974
   27MOL   H52517737   3.403   2.743   2.206 -1.8196  3.1751  0.8011
   27MOL   H52617738   3.269   2.704   2.110 -0.8692 -1.2153  0.1431
   27MOL   H52717739   3.362   2.582   2.385  2.0629 -0.8287 -1.2991
   27MOL   H52817740   3.375   2.491   2.237 -2.0280 -1.5257 -0.8358
   27MOL   H52917741   3.214   2.527   2.290 -0.2159  1.0227  1.0236
   27MOL   C53017742   2.424   3.001   2.307 -0.2153  0.8298  0.1253
   27MOL   C53117743   2.288   2.944   2.259 -0.4855  0.0099 -0.8534
   27MOL   C53217744   2.293   2.889   2.113  0.2432  0.0775 -0.0378
   27MOL   C53317745   2.354   2.980   2.007  0.1354 -0.1641 -0.0254
   27MOL   C53417746   2.341   2.932   1.861 -0.2801  0.0886  0.6680
   27MOL   C53517747   2.422   2.805   1.836  0.7451  0.0375 -0.6388
   27MOL   C53617748   2.571   2.813   1.879  0.9297 -0.1316  0.3683
   27MOL   C53717749   2.640   2.675   1.852  1.3154 -0.1959  0.0719
   27MOL   C53817750   2.792   2.687   1.871 -0.0123  0.5941 -0.3449
   27MOL   C53917751   2.865   2.554   1.873  0.9639  0.5069  0.9793
   27MOL   C54017752   3.015   2.569   1.894  0.5831  1.2406 -0.6579
   27MOL   H54117753   2.411   3.050   2.404  2.1606 -2.9076  2.4820
   27MOL   H54217754   2.458   3.073   2.233  0.1319 -0.6622 -1.1902
   27MOL   H54317755   2.268   2.860   2.325  2.8546 -0.9110 -0.9311
   27MOL   H54417756   2.189   2.868   2.089  0.2023  0.3505 -0.1014
   27MOL   H54517757   2.347   2.795   2.111 -1.0554 -0.6949  0.4169
   27MOL   H54617758   2.459   3.004   2.021  0.3469 -2.0867  1.8647
   27MOL   H54717759   2.304   3.077   2.014 -0.9597 -0.6857 -0.5766
   27MOL   H54817760   2.377   3.013   1.798 -0.6778  0.6117  1.1087
   27MOL   H54917761   2.233   2.921   1.847 -0.2955 -0.1643  0.9736
   27MOL   H55017762   2.417   2.775   1.731  1.4022 -0.4443 -0.5372
   27MOL   H55117763   2.377   2.725   1.895 -0.5118 -0.2486 -1.9523
   27MOL   H55217764   2.587   2.840   1.983  0.2048  1.6083  0.0290
   27MOL   H55317765   2.625   2.880   1.812 -0.1514 -1.1400 -1.5634
   27MOL   H55417766   2.627   2.661   1.745  1.1014  0.2529  0.0382
   27MOL   H55517767   2.593   2.591   1.903  0.0072 -0.2025 -1.1313
   27MOL   H55617768   2.818   2.732   1.967 -1.2498 -1.9965  1.2536
   27MOL   H55717769   2.832   2.748   1.790 -0.1636 -0.7876 -1.4703
   27MOL   H55817770   2.843   2.497   1.783 -0.6578  0.2724  1.5167
   27MOL   H55917771   2.843   2.500   1.965  2.0602 -0.5941  0.5991
   27MOL   H56017772   3.051   2.467   1.880  1.0466  1.1159  1.3773
   27MOL   H56117773   3.056   2.638   1.819  0.7505  1.2236 -0.5827
   27MOL   H56217774   3.039   2.610   1.992  0.8044  2.4356 -1.1998
   27MOL   C56317775   2.171   3.046   2.279  0.1650  0.4530  0.3235
   27MOL   C56417776   2.166   3.127   2.415 -0.1852  0.4304 -0.3192
   27MOL   C56517777   2.024   3.128   2.481  0.1059  0.1437 -0.0246
   27MOL   C56617778   1.951   2.995   2.519 -0.0720  0.0214 -0.8389
   27MOL   C56717779   1.828   3.019   2.607 -0.0526  0.0322  0.0551
   27MOL   C56817780   1.853   3.065   2.753 -0.2871 -0.4213 -0.0852
   27MOL   C56917781   1.714   3.096   2.804 -0.0840  0.2037 -1.4470
   27MOL   C57017782   1.691   3.076   2.952 -0.2362  0.2648 -0.5626
   27MOL   C57117783   1.544   3.103   2.992 -0.2685 -0.2440  0.4640
   27MOL   C57217784   1.518   3.129   3.141 -0.6989 -0.2956 -0.2571
   27MOL   C57317785   1.568   3.269   3.189  0.1879  0.0551 -0.0082
   27MOL   H57417786   2.075   2.995   2.278 -1.1148  2.7805  0.0956
   27MOL   H57517787   2.176   3.118   2.197 -1.0258  1.6012  1.2380
   27MOL   H57617788   2.208   3.064   2.492 -0.5919  0.2844 -0.2156
   27MOL   H57717789   1.953   3.181   2.418 -1.5248 -1.1343  0.7032
   27MOL   H57817790   2.045   3.183   2.572  1.1124 -1.4962  0.7714
   27MOL   H57917791   2.005   2.913   2.567 -0.5878 -0.0025 -0.2872
   27MOL   H58017792   1.907   2.950   2.430 -2.0333  0.4061 -0.0939
   27MOL   H58117793   1.780   2.921   2.610  0.2021 -0.1114 -0.4490
   27MOL   H58217794   1.769   3.098   2.560  0.8786 -0.5365 -2.1338
   27MOL   H58317795   1.907   2.991   2.812  1.9987  0.2058 -1.3417
   27MOL   H58417796   1.907   3.159   2.766  1.1004 -1.5438  2.9066
   27MOL   H58517797   1.685   3.200   2.790 -0.8715  0.1453 -0.3656
   27MOL   H58617798   1.639   3.051   2.741  0.8264  0.1538 -2.5088
   27MOL   H58717799   1.756   3.147   3.003 -0.4225 -0.0538  0.1159
   27MOL   H58817800   1.717   2.976   2.988 -3.3556 -0.2831  0.2721
   27MOL   H58917801   1.484   3.020   2.955  0.6986  0.1248 -2.0174
   27MOL   H59017802   1.507   3.193   2.943 -2.7468 -1.6705 -0.3558
   27MOL   H59117803   1.566   3.044   3.189 -0.6399 -0.0664  0.0930
   27MOL   H59217804   1.412   3.109   3.158 -0.3688 -4.1031 -2.1434
   27MOL   H59317805   1.520   3.299   3.282  0.2309  1.0850 -0.3176
   27MOL   H59417806   1.674   3.278   3.209  0.4051 -0.2170 -1.0086
   27MOL   H59517807   1.553   3.343   3.111  3.3564  0.1712 -0.5790
   27MOL   C59617808   2.225   3.266   2.386  0.2618 -0.1867  0.4553
   27MOL   C59717809   2.225   3.368   2.505  0.1754  0.6759  0.3232
   27MOL   C59817810   2.271   3.503   2.455 -0.1312  0.6976 -0.1012
   27MOL   C59917811   2.164   3.581   2.374 -0.3733 -0.5976 -0.5135
   27MOL   C60017812   2.211   3.718   2.310  0.0469 -0.0369 -0.6362
   27MOL   C60117813   2.106   3.758   2.205  0.3846 -0.2804 -0.2523
   27MOL   C60217814   2.147   3.888   2.134 -0.2314 -0.2593 -0.2711
   27MOL   C60317815   2.036   3.968   2.065 -0.1287  0.1935 -0.0291
   27MOL   C60417816   2.090   4.064   1.958  0.1226 -0.7612 -0.2178
   27MOL   C60517817   2.009   4.195   1.939 -0.1123  0.7234 -0.2886
   27MOL   C60617818   2.086   4.300   1.853  0.5968 -0.2004  0.1596
   27MOL   H60717819   2.326   3.250   2.349 -0.1133  0.4362 -0.8552
   27MOL   H60817820   2.170   3.305   2.300  0.3799  3.4418  1.9377
   27MOL   H60917821   2.124   3.368   2.546  0.6361 -1.1535  1.5128
   27MOL   H61017822   2.360   3.493   2.394 -0.0809 -0.1567  0.1136
   27MOL   H61117823   2.310   3.566   2.536 -0.0217  1.7465 -0.9555
   27MOL   H61217824   2.091   3.602   2.452 -0.5518  0.1927 -0.8930
   27MOL   H61317825   2.111   3.524   2.298  1.5914 -0.9297 -1.6525
   27MOL   H61417826   2.302   3.700   2.253 -1.7048  1.5199 -4.0751
   27MOL   H61517827   2.240   3.801   2.375  1.2378  1.6615 -3.2524
   27MOL   H61617828   2.090   3.678   2.133  2.8393 -0.0579 -1.0661
   27MOL   H61717829   2.010   3.780   2.253  0.8889 -1.8265  1.5316
   27MOL   H61817830   2.228   3.869   2.063  2.8097 -0.2504  3.0299
   27MOL   H61917831   2.200   3.960   2.197 -0.3523 -0.2281 -0.2046
   27MOL   H62017832   1.969   4.015   2.136  0.1313  0.0562  0.3054
   27MOL   H62117833   1.972   3.892   2.020 -0.0864  1.1790 -1.7935
   27MOL   H62217834   2.190   4.101   1.981 -0.5745  1.2464 -0.2800
   27MOL   H62317835   2.103   4.014   1.862  1.9422  1.1636 -1.0190
   27MOL   H62417836   1.966   4.235   2.031 -0.7488  0.7527 -0.5957
   27MOL   H62517837   1.914   4.159   1.897  0.8873 -2.3431 -0.0438
   27MOL   H62617838   2.098   4.262   1.752  1.8269  2.8545 -0.9159
   27MOL   H62717839   2.040   4.399   1.847 -0.9293 -0.8705  0.6348
   27MOL   H62817840   2.190   4.318   1.880  0.6948  0.2253 -0.4789
   27MOL   C62917841   2.312   3.315   2.621 -0.3348  0.4557  0.4803
   27MOL   C63017842   2.461   3.322   2.588  0.5366 -0.5255  0.3580
   27MOL   C63117843   2.546   3.237   2.685  0.4375  0.1929  0.0330
   27MOL   C63217844   2.513   3.241   2.832 -0.6564 -0.6090  0.2546
   27MOL   C63317845   2.597   3.142   2.915  0.1280  0.0804  0.4413
   27MOL   C63417846   2.540   3.130   3.062  0.1048  0.3377  0.6700
   27MOL   C63517847   2.625   3.067   3.175 -0.2804  0.3075  0.1270
   27MOL   C63617848   2.673   2.928   3.155 -0.3166 -0.3334  0.1324
   27MOL   C63717849   2.565   2.825   3.171 -0.6217  0.4161 -0.3045
   27MOL   C63817850   2.613   2.676   3.154 -0.9962 -0.3629  0.1024
   27MOL   C63917851   2.520   2.573   3.223  0.6202 -0.1150  0.9138
   27MOL   H64017852   2.279   3.384   2.699 -2.0217  1.2448 -0.9026
   27MOL   H64117853   2.282   3.212   2.643 -0.1858  0.3133  0.0232
   27MOL   H64217854   2.479   3.274   2.492  1.3393  2.0015 -0.8073
   27MOL   H64317855   2.557   3.133   2.656 -0.2693 -0.0094  0.4685
   27MOL   H64417856   2.648   3.272   2.668  0.4015 -0.6782 -2.1152
   27MOL   H64517857   2.405   3.230   2.841 -0.4773 -0.7191  2.8889
   27MOL   H64617858   2.529   3.342   2.870  2.2216 -1.5035  1.5975
   27MOL   H64717859   2.699   3.181   2.917 -0.3817  1.4340  0.4916
   27MOL   H64817860   2.603   3.050   2.858  0.5428  1.0604 -1.1514
   27MOL   H64917861   2.447   3.076   3.049 -1.0063  2.4847 -0.6037
   27MOL   H65017862   2.506   3.230   3.090 -1.6822 -0.6061  1.9483
   27MOL   H65117863   2.560   3.071   3.262  0.1912  2.3066  0.4133
   27MOL   H65217864   2.719   3.115   3.201 -1.1312  0.7253  2.5993
   27MOL   H65317865   2.747   2.898   3.229  0.3753  0.0291 -0.4114
   27MOL   H65417866   2.734   2.917   3.065 -0.3917 -0.5403  0.1058
   27MOL   H65517867   2.478   2.862   3.117 -0.3850  1.5112  0.0633
   27MOL   H65617868   2.525   2.831   3.272  1.3449 -0.7537  0.5750
   27MOL   H65717869   2.713   2.655   3.193 -0.7285  2.3151  0.9443
   27MOL   H65817870   2.617   2.651   3.048  2.8308  0.6937 -0.0778
   27MOL   H65917871   2.504   2.591   3.329 -1.8236  1.9381  0.2507
   27MOL   H66017872   2.554   2.471   3.207 -2.5947 -1.4549  2.1111
   27MOL   H66117873   2.422   2.584   3.175  1.7524 -0.0838 -1.4849
   27MOL   H66217874   2.503   3.422   2.577  0.5589 -0.3589  1.9608
   28MOL     C117875   0.056   2.362   7.310  0.2882 -0.1785  0.6995
   28MOL     C217876   0.091   2.498   7.371 -0.2631  0.3898  0.1745
   28MOL     C317877   7.682   2.562   7.452 -0.1922 -0.2328  0.4384
   28MOL     C417878   7.550   2.588   7.380 -0.3942 -0.0064 -0.5434
   28MOL     C517879   7.562   2.657   7.249  0.3271 -0.4552 -0.0901
   28MOL     C617880   7.416   2.661   7.182 -0.7578  0.7070  0.4984
   28MOL     C717881   7.416   2.722   7.039 -0.3202  0.2124 -0.7450
   28MOL     C817882   7.279   2.701   6.970 -0.5406  0.9717 -0.4960
   28MOL     C917883   7.285   2.722   6.819 -0.2945  0.5273 -0.1972
   28MOL    C1017884   7.147   2.722   6.742  0.0572 -0.1339 -0.4482
   28MOL    C1117885   7.054   2.838   6.789 -0.7124  0.1823  0.3238
   28MOL    H1217886   0.027   2.297   7.392 -0.4969 -3.4481 -2.0533
   28MOL    H1317887   0.139   2.315   7.257  1.1653 -0.7588  2.5466
   28MOL    H1417888   0.122   2.570   7.295 -1.7641  2.1532  1.1865
   28MOL    H1517889   0.011   2.660   7.487 -1.4497  0.2269  0.3095
   28MOL    H1617890   7.661   2.510   7.546  1.8630 -0.4886  0.7858
   28MOL    H1717891   7.490   2.640   7.455  2.1815 -2.2879  3.2870
   28MOL    H1817892   7.498   2.494   7.364  1.5621 -1.1995 -0.0902
   28MOL    H1917893   7.592   2.758   7.277  1.3689 -0.9427  0.5520
   28MOL    H2017894   7.631   2.615   7.177 -0.8017 -2.3472 -0.1033
   28MOL    H2117895   7.338   2.707   7.243 -1.1153 -0.7486  1.1755
   28MOL    H2217896   7.372   2.561   7.175  0.2530  0.1250  1.9998
   28MOL    H2317897   7.431   2.830   7.039 -0.6116  0.2552 -0.5071
   28MOL    H2417898   7.497   2.672   6.987 -0.1052 -0.1920 -0.0366
   28MOL    H2517899   7.221   2.787   7.004 -0.5391  0.6918  0.2303
   28MOL    H2617900   7.242   2.602   6.997 -0.6965  1.0785 -0.3130
   28MOL    H2717901   7.353   2.648   6.776 -1.1226  0.0419 -0.6696
   28MOL    H2817902   7.335   2.817   6.799  2.2052 -0.5492  0.6703
   28MOL    H2917903   7.098   2.625   6.752 -1.8057  0.9468  1.2615
   28MOL    H3017904   7.170   2.731   6.636 -0.5167 -1.2745 -0.6835
   28MOL    H3117905   6.966   2.850   6.727 -0.5956 -1.1074 -0.1008
   28MOL    H3217906   7.035   2.812   6.893 -3.0714 -0.8720 -0.3585
   28MOL    H3317907   7.115   2.927   6.771  1.1934 -1.0660  0.4397
   28MOL    H3417908   7.679   2.384   7.240  0.5350  0.6943  0.6842
   28MOL    C3517909   0.215   2.483   7.461 -0.5542  0.2588 -0.3896
   28MOL    C3617910   0.279   2.611   7.524  0.0346 -0.4822  0.1078
   28MOL    C3717911   0.405   2.583   7.610 -0.0035  0.4243 -0.4446
   28MOL    C3817912   0.371   2.529   0.044  0.0563  0.1241 -0.6242
   28MOL    C3917913   0.490   2.467   0.123  0.0606  0.0307 -0.3114
   28MOL    C4017914   0.468   2.460   0.277 -0.2204 -0.0686 -0.5843
   28MOL    C4117915   0.595   2.433   0.364 -0.0869 -0.8509  0.8936
   28MOL    C4217916   0.562   2.402   0.516  0.1387  0.3521  0.1981
   28MOL    C4317917   0.682   2.436   0.609  0.5920 -0.6769  0.5698
   28MOL    C4417918   0.649   2.403   0.753  0.7040 -0.5076  0.4862
   28MOL    C4517919   0.765   2.348   0.840 -0.4304  0.4088 -0.0837
   28MOL    H4617920   0.278   2.436   7.384 -2.6101 -1.3529 -1.1402
   28MOL    H4717921   0.196   2.414   7.543  1.4741  1.6862  1.3118
   28MOL    H4817922   0.212   2.656   7.597  2.1631 -1.3927  2.7202
   28MOL    H4917923   0.463   2.509   7.554 -0.3326 -0.0703 -0.1435
   28MOL    H5017924   0.464   2.673   7.624  1.1585 -0.6577  1.9347
   28MOL    H5117925   0.300   2.447   0.037 -1.2809  1.2446 -0.3293
   28MOL    H5217926   0.325   2.617   0.090 -5.5166 -2.3946 -1.1036
   28MOL    H5317927   0.581   2.523   0.104 -0.1471  0.4184 -0.1698
   28MOL    H5417928   0.505   2.368   0.080  1.1290 -0.0518  0.2529
   28MOL    H5517929   0.385   2.390   0.289  0.4464 -0.6643  0.7905
   28MOL    H5617930   0.423   2.551   0.315  2.0605  0.3516  1.2729
   28MOL    H5717931   0.647   2.345   0.325  0.3337 -0.4939  0.6420
   28MOL    H5817932   0.663   2.517   0.350  0.5441 -1.6348 -1.0295
   28MOL    H5917933   0.519   2.302   0.526  0.4444  0.1409 -0.5524
   28MOL    H6017934   0.487   2.475   0.545 -0.7611 -0.8957  1.0747
   28MOL    H6117935   0.711   2.541   0.603  0.9695 -0.8510 -0.9508
   28MOL    H6217936   0.764   2.380   0.565  0.9179  0.4936 -0.3371
   28MOL    H6317937   0.612   2.500   0.787  2.6410  1.0570 -1.7539
   28MOL    H6417938   0.563   2.336   0.757 -0.1930  0.6178  0.4158
   28MOL    H6517939   0.821   2.268   0.791 -2.6232 -0.6104 -1.0547
   28MOL    H6617940   0.829   2.435   0.851 -1.6265  1.0528  2.0479
   28MOL    H6717941   0.733   2.321   0.941  2.8983 -1.6481  0.4807
   28MOL    C6817942   0.320   2.720   7.421  0.3489 -0.1880  0.9119
   28MOL    C6917943   0.346   2.867   7.470  0.3343 -0.4493  0.1108
   28MOL    C7017944   0.389   2.958   7.354  0.1171  0.2672  0.3672
   28MOL    C7117945   0.512   2.920   7.266  0.5661 -0.3097  0.5161
   28MOL    C7217946   0.647   2.915   7.337  0.0982 -0.1827  0.1039
   28MOL    C7317947   0.730   3.042   7.343 -0.3479 -0.2882  0.3154
   28MOL    C7417948   0.881   3.026   7.368 -0.4273  0.6307  0.1142
   28MOL    C7517949   0.907   3.030   7.520  0.4529  0.2628 -0.5987
   28MOL    C7617950   1.059   3.062   7.571  0.5518  0.5873  0.1730
   28MOL    C7717951   1.077   3.129   7.702  0.2482 -0.0177 -0.1134
   28MOL    C7817952   1.010   3.262   0.004 -0.0793 -0.4814 -0.4390
   28MOL    H7917953   0.250   2.715   7.337 -0.1343  0.7242  1.2511
   28MOL    H8017954   0.411   2.687   7.371 -0.5723 -2.1788  0.4766
   28MOL    H8117955   0.431   2.870   7.538  0.5770  0.6358 -0.2304
   28MOL    H8217956   0.407   3.064   7.374 -0.5640  0.3092  0.7754
   28MOL    H8317957   0.301   2.956   7.289 -0.0023 -0.6742  0.5553
   28MOL    H8417958   0.495   2.819   7.227 -1.4152 -0.4387  1.6180
   28MOL    H8517959   0.524   2.989   7.182  0.0213 -0.1135  0.5972
   28MOL    H8617960   0.699   2.844   7.273  0.1672 -0.0545  0.0174
   28MOL    H8717961   0.636   2.871   7.436  0.8581 -1.8472 -0.5263
   28MOL    H8817962   0.734   3.095   7.248 -0.7682  0.5920  0.7878
   28MOL    H8917963   0.678   3.111   7.408 -0.9793 -2.0576  1.7322
   28MOL    H9017964   0.928   3.104   7.309  0.0289 -0.2339 -0.6817
   28MOL    H9117965   0.921   2.934   7.326 -2.7981  0.7601 -2.5674
   28MOL    H9217966   0.836   3.098   7.567  0.4009 -0.4503  0.3819
   28MOL    H9317967   0.883   2.934   7.566  2.9965  1.3145  3.0851
   28MOL    H9417968   1.120   2.972   7.578  0.4013  0.4399 -0.3849
   28MOL    H9517969   1.111   3.125   7.499  0.8743  0.2020  0.0713
   28MOL    H9617970   1.043   3.065   0.080 -1.6240 -0.2823 -1.0859
   28MOL    H9717971   1.185   3.138   0.013 -0.1047  1.6479  1.6011
   28MOL    H9817972   1.040   3.325   7.623  0.7289 -0.3354 -0.0521
   28MOL    H9917973   1.050   3.301   0.097  0.7500  0.3956 -1.1439
   28MOL   H10017974   0.907   3.253   0.036  0.8808 -2.1185  2.3389
   28MOL   C10117975   0.219   2.929   7.540 -0.2654  0.3996  0.7062
   28MOL   C10217976   0.248   3.066   7.607 -0.1562 -0.3999 -0.1178
   28MOL   C10317977   0.371   3.069   7.700  0.1003  0.2212 -0.4263
   28MOL   C10417978   0.374   2.964   0.111 -0.5427  0.2537 -0.0166
   28MOL   C10517979   0.467   3.015   0.228 -0.4018 -0.4360 -0.4244
   28MOL   C10617980   0.485   2.900   0.330  0.6133 -0.5334 -0.1838
   28MOL   C10717981   0.588   2.943   0.436 -0.9059 -0.5021 -0.4277
   28MOL   C10817982   0.633   2.819   0.519 -0.2886  0.1342 -0.1301
   28MOL   C10917983   0.715   2.871   0.639 -0.3455 -0.5678  0.0149
   28MOL   C11017984   0.785   2.770   0.737  0.2711 -1.1361  0.5077
   28MOL   C11117985   0.870   2.844   0.840 -0.2557 -0.1985  0.0012
   28MOL   H11217986   0.134   2.935   7.471  2.0024  2.6439 -2.0181
   28MOL   H11317987   0.188   2.854   7.613  1.0424  0.4793  1.3612
   28MOL   H11417988   0.277   3.134   7.528  0.5529  1.3975  1.6386
   28MOL   H11517989   0.467   3.059   7.648 -1.3889  1.7489 -3.6546
   28MOL   H11617990   0.381   3.164   0.050  1.6628 -1.4105  2.2837
   28MOL   H11717991   0.275   2.935   0.145 -0.6348  0.4260 -0.1398
   28MOL   H11817992   0.418   2.872   0.072 -0.1009 -0.3221  1.7908
   28MOL   H11917993   0.561   3.060   0.198 -1.0978  1.7536  0.5390
   28MOL   H12017994   0.407   3.092   0.277 -0.7041 -1.0444  0.1744
   28MOL   H12117995   0.393   2.879   0.384  0.5534 -0.7052 -0.3543
   28MOL   H12217996   0.521   2.809   0.282 -1.7751 -0.3963 -2.3417
   28MOL   H12317997   0.550   3.024   0.499 -0.5250  0.8499 -1.9093
   28MOL   H12417998   0.678   2.988   0.394  0.2212  0.8943  3.3077
   28MOL   H12517999   0.563   2.755   0.572 -2.2917  3.4440  1.4083
   28MOL   H12618000   0.684   2.743   0.460 -0.4695 -1.6423  1.9496
   28MOL   H12718001   0.803   2.930   0.609 -0.3082 -1.5573 -1.9065
   28MOL   H12818002   0.651   2.930   0.705 -1.8456 -1.1755 -0.8920
   28MOL   H12918003   0.850   2.710   0.674 -0.8583 -2.3025  0.4220
   28MOL   H13018004   0.708   2.710   0.787 -0.0651 -0.0853  1.2661
   28MOL   H13118005   0.927   2.929   0.804 -1.2719  0.5845  0.2124
   28MOL   H13218006   0.809   2.891   0.918  0.8447 -0.8891  1.3047
   28MOL   H13318007   0.936   2.770   0.886 -2.2791 -2.5219 -0.7138
   28MOL   C13418008   0.125   3.124   7.674 -0.5236 -0.0810  0.4660
   28MOL   C13518009   0.091   3.280   7.652  1.3266 -0.0660  0.4213
   28MOL   C13618010   0.179   3.366   0.038  0.2406 -0.4465  0.2852
   28MOL   C13718011   0.169   3.332   0.186 -0.1669  0.3280  0.3693
   28MOL   C13818012   0.251   3.426   0.272 -0.0819 -0.3620  0.5430
   28MOL   C13918013   0.264   3.382   0.416  0.4192  0.7756 -0.2162
   28MOL   C14018014   0.372   3.463   0.480 -0.3109 -0.1259  0.6476
   28MOL   C14118015   0.418   3.431   0.625  0.8811 -0.0517  0.1572
   28MOL   C14218016   0.319   3.477   0.737 -0.5038  0.8019  0.2106
   28MOL   C14318017   0.322   3.405   0.871  0.3555  0.0408  0.8228
   28MOL   C14418018   0.432   3.462   0.958  0.0799  0.3739 -0.1189
   28MOL   H14518019   0.043   3.064   7.635 -0.6122 -0.4286  1.1719
   28MOL   H14618020   0.134   3.095   0.076 -0.4616 -1.0657  0.1946
   28MOL   H14718021   0.119   3.309   7.550 -0.2631  1.1798  0.3115
   28MOL   H14818022   0.148   3.469   0.020 -0.3808 -0.7242 -0.2743
   28MOL   H14918023   0.283   3.367   0.008 -0.0405 -0.0937 -0.7023
   28MOL   H15018024   0.067   3.310   0.217 -0.3850  0.0633 -0.5293
   28MOL   H15118025   0.216   3.237   0.210  0.8079  0.6107 -0.3820
   28MOL   H15218026   0.353   3.426   0.235 -0.4814 -1.1366 -0.5704
   28MOL   H15318027   0.210   3.526   0.263 -1.1733 -0.9276 -0.9436
   28MOL   H15418028   0.170   3.399   0.468 -0.4278 -2.3216 -0.6691
   28MOL   H15518029   0.285   3.275   0.420 -0.0184  0.6678 -0.7450
   28MOL   H15618030   0.467   3.471   0.426 -0.5619 -0.8041  0.1024
   28MOL   H15718031   0.339   3.567   0.479  1.6709  0.5327 -2.0007
   28MOL   H15818032   0.431   3.323   0.629  0.2061 -0.1125  0.9849
   28MOL   H15918033   0.518   3.473   0.634  1.2787 -1.1953  1.1848
   28MOL   H16018034   0.317   3.585   0.753 -0.3416  0.8485 -0.0895
   28MOL   H16118035   0.227   3.451   0.683 -1.0571  0.2169  1.4195
   28MOL   H16218036   0.229   3.426   0.923 -0.9723 -0.4763 -1.3084
   28MOL   H16318037   0.322   3.297   0.859  3.3967 -0.0232  0.8554
   28MOL   H16418038   0.530   3.457   0.911  1.6199  2.0243  2.8011
   28MOL   H16518039   0.452   3.403   1.047 -0.5158 -0.5267 -0.5770
   28MOL   H16618040   0.417   3.564   0.994 -0.1096  0.3881 -0.2334
   28MOL   C16718041   7.642   3.299   7.670  0.4496  0.0003 -0.4329
   28MOL   C16818042   7.580   3.432   7.628 -0.2989  0.8972 -0.4503
   28MOL   C16918043   7.429   3.440   7.668  0.1203 -0.2600  0.1049
   28MOL   C17018044   7.365   3.580   7.687 -0.1618 -0.1225  0.8767
   28MOL   C17118045   7.226   3.584   0.042 -0.1861  0.5780 -0.1858
   28MOL   C17218046   7.187   3.719   0.096  0.3740 -0.6059 -0.3594
   28MOL   C17318047   7.038   3.723   0.128  0.4350 -0.1062 -0.1010
   28MOL   C17418048   6.964   3.861   0.157  0.4037 -0.7303  0.1450
   28MOL   C17518049   6.811   3.852   0.156  1.1458 -0.1770  0.1601
   28MOL   C17618050   6.740   3.735   0.231 -0.3851  0.3973  0.0464
   28MOL   C17718051   6.732   3.766   0.382 -0.5497 -0.1036 -0.6109
   28MOL   H17818052   7.585   3.220   7.620  1.4894 -0.5403 -0.7723
   28MOL   H17918053   7.627   3.284   0.074  0.6250  1.1034 -0.2550
   28MOL   H18018054   7.625   3.510   7.690 -0.4916  1.2051 -0.6950
   28MOL   H18118055   7.428   3.378   0.054  0.7212 -0.7721 -0.2428
   28MOL   H18218056   7.365   3.390   7.594 -0.6189  1.9448 -0.7969
   28MOL   H18318057   7.422   3.627   0.064  0.1566 -0.4963  0.8686
   28MOL   H18418058   7.360   3.626   7.588 -0.5426  0.6422  1.2402
   28MOL   H18518059   7.208   3.514   0.123 -1.9401 -0.2280 -1.2461
   28MOL   H18618060   7.174   3.559   7.652 -0.9493  0.7272  0.2001
   28MOL   H18718061   7.235   3.741   0.191  0.3921 -2.7415  0.1474
   28MOL   H18818062   7.207   3.800   0.025  0.8349 -0.6008 -0.2222
   28MOL   H18918063   7.013   3.649   0.204 -0.1836  1.6606  1.4262
   28MOL   H19018064   6.990   3.689   0.036 -2.7455 -0.7628  1.7077
   28MOL   H19118065   7.006   3.905   0.248 -0.4210  1.8463 -0.6887
   28MOL   H19218066   6.997   3.928   0.077  3.2968  0.7627  2.4541
   28MOL   H19318067   6.790   3.849   0.049  2.3482 -1.0552 -0.0688
   28MOL   H19418068   6.769   3.942   0.198  2.9021  1.3870 -1.3396
   28MOL   H19518069   6.779   3.635   0.213 -1.1343 -0.3361  2.3370
   28MOL   H19618070   6.642   3.731   0.184 -0.9940 -0.2102  1.3418
   28MOL   H19718071   6.682   3.860   0.404 -0.2310  0.4009 -1.9675
   28MOL   H19818072   6.834   3.778   0.418 -0.8685 -0.4557  0.4197
   28MOL   H19918073   6.686   3.690   0.445  0.6895 -0.1636  0.2427
   28MOL   C20018074   7.596   3.468   7.481  0.0837 -0.2320 -0.0376
   28MOL   C20118075   0.017   3.552   7.439  0.2830  0.4200 -0.1705
   28MOL   C20218076   0.001   3.701   7.474 -0.6871 -0.1890  0.2748
   28MOL   C20318077   0.132   3.778   7.467 -0.4507 -0.6969  0.0498
   28MOL   C20418078   0.193   3.790   7.604 -0.5181  0.0564  0.0630
   28MOL   C20518079   0.328   3.864   7.602 -0.2916 -0.9338 -0.5228
   28MOL   C20618080   0.380   3.897   0.038 -0.0646  0.1094  0.0809
   28MOL   C20718081   0.505   3.989   0.066 -0.0331  0.3038  0.1475
   28MOL   C20818082   0.490   4.061   0.202 -0.4351  0.0235 -0.2541
   28MOL   C20918083   0.595   4.168   0.215 -0.2492 -0.7604 -0.2724
   28MOL   C21018084   0.574   4.265   0.336 -0.0613 -0.4721  0.4848
   28MOL   H21118085   7.588   3.377   7.421 -0.7209  0.4584 -0.9811
   28MOL   H21218086   7.504   3.520   7.454 -2.1203 -1.6646  4.2702
   28MOL   H21318087   0.097   3.526   7.509 -0.1919 -3.0592 -0.8068
   28MOL   H21418088   7.658   3.716   7.572  1.2537  0.9446  1.0536
   28MOL   H21518089   7.635   3.746   7.403 -0.8210 -1.8730 -0.6719
   28MOL   H21618090   0.111   3.875   7.422  1.4169 -1.0260 -1.5811
   28MOL   H21718091   0.215   3.733   7.413  0.4733  0.1841  0.7292
   28MOL   H21818092   0.206   3.688   7.640 -0.2181  0.4536  1.1030
   28MOL   H21918093   0.119   3.827   7.674 -0.3681  0.0533  0.2227
   28MOL   H22018094   0.402   3.806   7.546  2.3782  2.2212 -0.3690
   28MOL   H22118095   0.318   3.955   7.543  1.2679 -0.0391  0.5577
   28MOL   H22218096   0.394   3.805   0.096 -0.9589 -1.0922 -1.5751
   28MOL   H22318097   0.294   3.944   0.086 -1.5284 -1.6719 -0.7288
   28MOL   H22418098   0.519   4.058   7.686  0.0328  1.6555  1.2613
   28MOL   H22518099   0.594   3.926   0.074  0.5912  1.3121  1.2955
   28MOL   H22618100   0.516   3.987   0.277  0.5271  0.7750  0.1647
   28MOL   H22718101   0.390   4.097   0.227 -0.4308 -0.5320  0.5826
   28MOL   H22818102   0.699   4.134   0.217 -0.0589 -0.1808 -0.2772
   28MOL   H22918103   0.585   4.227   0.124 -1.2876 -0.7920 -0.1765
   28MOL   H23018104   0.652   4.340   0.350 -2.8064  2.3661  1.3798
   28MOL   H23118105   0.565   4.213   0.431 -0.9243 -1.2027  0.0138
   28MOL   H23218106   0.483   4.324   0.323 -0.0586 -0.6719 -0.4384
   28MOL   C23318107   0.065   3.519   7.296  0.0784 -0.1902  0.6261
   28MOL   C23418108   7.679   3.584   7.177  0.0806 -0.0353 -0.5988
   28MOL   C23518109   7.563   3.489   7.135 -0.5833  0.0519  0.0053
   28MOL   C23618110   7.436   3.556   7.070 -0.6599 -0.1148 -0.4454
   28MOL   C23718111   7.326   3.638   7.150  0.1690 -0.7741  0.3909
   28MOL   C23818112   7.216   3.547   7.209  0.1200 -0.2549  0.1966
   28MOL   C23918113   7.104   3.626   7.267 -0.4430 -0.1337  0.6140
   28MOL   C24018114   6.998   3.535   7.345 -0.0855  0.4863  0.1692
   28MOL   C24118115   6.869   3.600   7.396 -0.2927  0.5926  0.3092
   28MOL   C24218116   6.768   3.514   7.467  0.0816  0.5239 -0.5514
   28MOL   C24318117   6.738   3.377   7.397 -0.1323  0.0074  0.6571
   28MOL   H24418118   0.071   3.410   7.292 -0.9911 -0.2078 -0.5428
   28MOL   H24518119   0.165   3.562   7.287  0.0995 -0.2295  0.6742
   28MOL   H24618120   7.641   3.685   7.197  0.9070  0.0990  0.3151
   28MOL   H24718121   7.605   3.406   7.078 -0.3892  1.6846 -2.3085
   28MOL   H24818122   7.519   3.432   7.217  3.3089 -0.1570  2.0906
   28MOL   H24918123   7.378   3.487   7.008 -3.3570  2.0995 -0.4852
   28MOL   H25018124   7.483   3.619   6.994 -1.1362  1.3372  0.4503
   28MOL   H25118125   7.281   3.706   7.078  0.5625  0.7633  1.5592
   28MOL   H25218126   7.379   3.705   7.218 -0.3605 -0.7157  0.7508
   28MOL   H25318127   7.262   3.503   7.298 -0.6215 -2.0247 -0.2574
   28MOL   H25418128   7.170   3.475   7.141  0.0622 -1.1222  1.1447
   28MOL   H25518129   7.133   3.706   7.335 -2.7659  2.6442 -1.5398
   28MOL   H25618130   7.055   3.681   7.187 -2.5978 -1.2888  1.1169
   28MOL   H25718131   6.978   3.453   7.276  0.1293  0.8833 -0.3743
   28MOL   H25818132   7.049   3.495   7.433  0.5086  1.7728  0.4161
   28MOL   H25918133   6.897   3.687   7.456  0.5253  0.5326  0.0269
   28MOL   H26018134   6.824   3.647   7.308 -1.4187 -0.5440  0.2729
   28MOL   H26118135   6.674   3.563   7.490 -0.7562 -1.0043 -0.6479
   28MOL   H26218136   6.815   3.495   7.564 -0.2830  3.2036  0.1940
   28MOL   H26318137   6.825   3.313   7.412  0.2869 -0.2719 -2.4595
   28MOL   H26418138   6.721   3.384   7.289 -2.3764 -0.9277  0.9190
   28MOL   H26518139   6.650   3.326   7.436 -0.8003 -0.3777 -1.2821
   28MOL   C26618140   0.072   3.601   7.053  0.7638  0.5198 -0.3446
   28MOL   C26718141   0.161   3.730   7.037 -0.0566 -0.0671  0.1794
   28MOL   C26818142   0.100   3.830   6.940  0.0347  0.6637 -0.4668
   28MOL   C26918143   7.678   3.891   6.989  0.2391 -0.1169 -0.0986
   28MOL   C27018144   7.645   4.005   6.889 -0.7595 -0.4265 -0.1886
   28MOL   C27118145   7.519   4.085   6.928 -0.1340  0.6725 -0.7009
   28MOL   C27218146   7.393   3.995   6.915 -0.2499 -0.0633  0.1847
   28MOL   C27318147   7.271   4.088   6.935 -0.5738 -0.5618 -0.0114
   28MOL   C27418148   7.133   4.018   6.949 -0.4598 -0.5324 -0.0835
   28MOL   C27518149   7.042   4.091   7.049  0.2572 -0.0132  0.3824
   28MOL   C27618150   6.905   4.032   7.082  0.6887 -0.3951  0.0136
   28MOL   H27718151   0.011   3.596   6.963 -0.0228  0.8971  0.1628
   28MOL   H27818152   0.125   3.508   7.032 -0.1328 -0.0447 -0.1095
   28MOL   H27918153   0.175   3.787   7.129 -3.0650  0.4181  0.4029
   28MOL   H28018154   0.175   3.907   6.924  0.2839  0.5680  0.2628
   28MOL   H28118155   0.088   3.773   6.847 -0.2832  0.1463 -0.1120
   28MOL   H28218156   7.686   3.938   7.087 -1.3292  2.1431 -1.0181
   28MOL   H28318157   7.611   3.806   6.978  0.6085 -0.1018 -2.6529
   28MOL   H28418158   7.622   3.957   6.794 -2.8937  1.4066 -0.6478
   28MOL   H28518159   0.020   4.080   6.881 -1.5242  0.3483 -0.5443
   28MOL   H28618160   7.517   4.178   6.871  1.9867  0.9142 -0.4136
   28MOL   H28718161   7.521   4.117   7.032  1.7012  2.2961 -1.1937
   28MOL   H28818162   7.396   3.935   6.824  1.3299 -1.1019  0.8894
   28MOL   H28918163   7.388   3.917   6.991  2.3368  0.9491  1.4472
   28MOL   H29018164   7.275   4.167   6.860 -1.5558 -1.7380 -1.3350
   28MOL   H29118165   7.287   4.134   7.032  0.6006  1.6003 -1.1834
   28MOL   H29218166   7.084   3.995   6.854  0.3029  0.6388 -0.7704
   28MOL   H29318167   7.153   3.921   6.994  0.7780 -0.1887  0.1263
   28MOL   H29418168   7.026   4.189   7.005  0.7571  0.5128  1.3442
   28MOL   H29518169   7.101   4.110   7.139  2.0366 -1.3486 -0.4797
   28MOL   H29618170   6.843   4.098   7.142 -1.2853 -1.1823 -1.1057
   28MOL   H29718171   6.913   3.936   7.133 -1.8016 -1.1912 -0.9985
   28MOL   H29818172   6.854   4.009   6.988 -3.0823 -1.2518  2.1523
   28MOL   C29918173   0.300   3.682   6.981 -1.0572  0.0710  0.7854
   28MOL   C30018174   0.406   3.778   6.942  0.3181 -0.1760 -0.1765
   28MOL   C30118175   0.528   3.707   6.881  0.1498  0.3413  0.2607
   28MOL   C30218176   0.495   3.640   6.743  0.4402 -0.4269  0.1515
   28MOL   C30318177   0.609   3.561   6.677 -0.5952 -0.2898  0.1354
   28MOL   C30418178   0.555   3.498   6.545  0.3336 -0.4569  0.1232
   28MOL   C30518179   0.555   3.594   6.420  0.1581 -0.3592  0.3577
   28MOL   C30618180   0.688   3.600   6.340  0.6440 -0.2693 -0.0746
   28MOL   C30718181   0.707   3.738   6.271 -0.3826 -0.2520  0.1912
   28MOL   C30818182   0.601   3.760   6.157  0.2917  0.6984  0.3106
   28MOL   C30918183   0.626   3.884   6.064  0.3938  1.0887 -0.6528
   28MOL   H31018184   0.282   3.612   6.900  1.2169  0.0660  0.2519
   28MOL   H31118185   0.348   3.617   7.054  0.0608  1.3367  1.2044
   28MOL   H31218186   0.369   3.841   6.861  1.0603  0.2181 -0.2156
   28MOL   H31318187   0.609   3.781   6.875  0.8203 -0.2855  1.4841
   28MOL   H31418188   0.571   3.633   6.948  0.4433 -0.1896 -0.5101
   28MOL   H31518189   0.410   3.571   6.745  1.8221 -2.1498  1.8506
   28MOL   H31618190   0.462   3.719   6.676 -0.3771  0.6501  1.8087
   28MOL   H31718191   0.697   3.618   6.648 -1.0805  0.1702 -0.4521
   28MOL   H31818192   0.640   3.480   6.744  0.1068 -0.3281 -0.2282
   28MOL   H31918193   0.454   3.459   6.554 -0.2295  0.5206 -1.7377
   28MOL   H32018194   0.622   3.416   6.518 -1.6417 -2.8320  2.2210
   28MOL   H32118195   0.471   3.564   6.357 -0.9705  1.6874  0.8126
   28MOL   H32218196   0.533   3.691   6.465  2.0902 -1.8508  4.8063
   28MOL   H32318197   0.683   3.514   6.273 -0.2649 -0.2357 -0.0475
   28MOL   H32418198   0.767   3.586   6.414  1.0170 -2.5792 -0.8654
   28MOL   H32518199   0.802   3.738   6.219 -0.0233 -1.3437  0.8361
   28MOL   H32618200   0.699   3.826   6.335 -0.6555 -0.3511  0.2981
   28MOL   H32718201   0.505   3.790   6.198  0.2313  2.6265 -1.1371
   28MOL   H32818202   0.613   3.678   6.086  0.0261  1.6368 -0.8490
   28MOL   H32918203   0.664   3.968   6.122  3.8007 -0.1698 -0.9929
   28MOL   H33018204   0.700   3.853   5.990 -0.7865 -2.3526 -0.4838
   28MOL   H33118205   0.530   3.903   6.016 -0.1297 -2.0793 -0.9706
   28MOL   C33218206   0.456   3.848   7.072 -0.5158  1.3100  0.3709
   28MOL   C33318207   0.404   3.990   7.095 -0.0415  0.0519 -0.2252
   28MOL   C33418208   0.474   4.089   6.991  0.1659 -0.1620 -0.7558
   28MOL   C33518209   0.370   4.187   6.924  0.5061 -0.1435  0.0495
   28MOL   C33618210   0.434   4.262   6.806  0.1266  0.2578  0.1014
   28MOL   C33718211   0.346   4.378   6.762 -0.3559  0.0778  0.1036
   28MOL   C33818212   0.200   4.342   6.747  0.1360 -0.5546  0.1330
   28MOL   C33918213   0.127   4.468   6.706 -0.5206 -0.0098 -0.2980
   28MOL   C34018214   7.678   4.463   6.713  0.7160 -0.2465  0.7009
   28MOL   C34118215   7.610   4.580   6.640 -0.3072  0.2203 -0.6912
   28MOL   C34218216   7.609   4.565   6.486  0.4235 -0.2582 -0.1231
   28MOL   H34318217   0.427   3.782   7.154  0.3013  0.7412  0.2123
   28MOL   H34418218   0.564   3.858   7.074 -0.2887 -0.6729 -0.1173
   28MOL   H34518219   0.298   3.980   7.073  0.0439 -2.1367  0.3325
   28MOL   H34618220   0.524   4.044   6.905  0.4659  0.1786 -0.7600
   28MOL   H34718221   0.557   4.143   7.037  0.5201  0.3810 -2.0131
   28MOL   H34818222   0.288   4.127   6.887 -0.9875  1.6271  0.4246
   28MOL   H34918223   0.327   4.259   6.994 -1.0895 -0.7402 -0.3206
   28MOL   H35018224   0.537   4.294   6.821  0.3270  0.7816 -2.3504
   28MOL   H35118225   0.446   4.199   6.718  1.9901 -0.7065  1.0102
   28MOL   H35218226   0.377   4.405   6.662  1.2649  0.6728  0.7480
   28MOL   H35318227   0.367   4.465   6.825 -0.4180  0.2074 -0.0567
   28MOL   H35418228   0.169   4.302   6.843  0.6222 -2.6523 -0.5546
   28MOL   H35518229   0.184   4.264   6.673 -0.8787  0.3111 -0.5616
   28MOL   H35618230   0.162   4.558   6.757  1.6308 -1.6498  1.1734
   28MOL   H35718231   0.159   4.481   6.603 -0.7733 -0.1313 -0.3919
   28MOL   H35818232   7.654   4.455   6.819 -0.5346  0.8589  0.5072
   28MOL   H35918233   7.636   4.375   6.665 -0.8970  0.6076  0.5262
   28MOL   H36018234   7.662   4.673   6.663  0.2677  0.2822 -2.2272
   28MOL   H36118235   7.510   4.589   6.682  0.0801 -0.4777  0.4103
   28MOL   H36218236   7.567   4.469   6.454  1.7078 -1.0861  0.6314
   28MOL   H36318237   7.565   4.646   6.429  0.5948  0.0547  0.1862
   28MOL   H36418238   0.007   4.550   6.448  0.1239 -1.3065 -0.5245
   28MOL   C36518239   0.427   4.033   7.240  0.6790  0.0139 -0.4998
   28MOL   C36618240   0.356   4.163   7.295 -0.1375 -0.2790 -0.0085
   28MOL   C36718241   0.205   4.143   7.309  0.8360 -0.0857  0.5179
   28MOL   C36818242   0.122   4.238   7.218 -0.3813 -0.8530  0.2606
   28MOL   C36918243   7.685   4.264   7.263  0.0949 -0.0972  0.0974
   28MOL   C37018244   7.606   4.368   7.185 -0.5255 -0.4087 -0.7110
   28MOL   C37118245   7.457   4.378   7.211  0.0703 -0.0443  0.3632
   28MOL   C37218246   7.385   4.417   7.080  0.3841 -0.5313 -0.3057
   28MOL   C37318247   7.386   4.569   7.054  0.4204 -0.1668  0.3574
   28MOL   C37418248   7.286   4.619   6.948 -0.1459 -0.5441  0.5417
   28MOL   C37518249   7.275   4.771   6.930 -0.6742 -0.0499  0.4578
   28MOL   H37618250   0.399   3.963   7.319 -0.1640  2.1701  1.1874
   28MOL   H37718251   0.535   4.047   7.239  0.5472  1.1213 -1.7891
   28MOL   H37818252   0.378   4.232   7.214 -3.3873  1.5540  0.5660
   28MOL   H37918253   0.170   4.163   7.411  2.2350  0.4569  0.8995
   28MOL   H38018254   0.175   4.045   7.272  1.8507 -0.7354  1.3642
   28MOL   H38118255   0.114   4.208   7.113 -1.8878  1.4511 -0.3484
   28MOL   H38218256   0.164   4.339   7.220 -1.3578 -0.4582  2.8526
   28MOL   H38318257   7.685   4.290   7.369  0.9052  3.3548 -0.7097
   28MOL   H38418258   7.626   4.172   7.266  0.3699 -0.2660  0.5744
   28MOL   H38518259   7.616   4.336   7.081 -0.0537 -0.3390 -0.6869
   28MOL   H38618260   7.655   4.466   7.185 -1.0136 -0.1605  0.6763
   28MOL   H38718261   7.418   4.283   7.248 -0.0426 -0.0654  0.1873
   28MOL   H38818262   7.450   4.452   7.291 -1.1043 -0.7906  0.9652
   28MOL   H38918263   7.278   4.404   7.095  0.5300  1.4309  3.1951
   28MOL   H39018264   7.413   4.361   6.991 -0.8026  0.9163 -1.6210
   28MOL   H39118265   7.351   4.615   7.146  0.2211  0.0394  0.1799
   28MOL   H39218266   7.480   4.612   7.019 -0.8339  2.2155 -0.1557
   28MOL   H39318267   7.286   4.575   6.848 -1.3560  2.5598 -0.8717
   28MOL   H39418268   7.193   4.575   6.985  0.1725 -2.1234 -0.4510
   28MOL   H39518269   7.345   4.813   6.857 -1.1734  1.9535  1.1031
   28MOL   H39618270   7.275   4.826   7.024 -1.6538 -0.5553  0.7624
   28MOL   H39718271   7.187   4.786   6.868  0.1628  0.6424 -0.5878
   28MOL   C39818272   0.431   4.226   7.412  0.3741  0.9380  0.5660
   28MOL   C39918273   0.386   4.367   7.451 -0.2409 -0.0428  0.9878
   28MOL   C40018274   0.418   4.471   7.335  0.4770 -0.6116 -0.1496
   28MOL   C40118275   0.342   4.608   7.350 -0.9777  0.2332 -0.9205
   28MOL   C40218276   0.193   4.609   7.312 -0.6635  0.1481 -0.1048
   28MOL   C40318277   0.132   4.753   7.324 -0.1565 -0.3425  0.4401
   28MOL   C40418278   7.684   4.742   7.297  1.0251  0.3718 -0.1357
   28MOL   C40518279   7.592   4.863   7.345 -0.3840 -0.5433  0.3407
   28MOL   C40618280   7.446   4.856   7.300 -0.5334  0.6250  0.1763
   28MOL   C40718281   7.357   4.971   7.353  0.1230  0.3897 -0.1760
   28MOL   C40818282   7.225   5.001   7.274 -0.7387 -0.0007 -0.8019
   28MOL   H40918283   0.535   4.225   7.379  0.5190  1.1558  1.0032
   28MOL   H41018284   0.426   4.169   7.505  1.1609  0.2416  0.1843
   28MOL   H41118285   0.277   4.367   7.456 -0.4290 -0.5717 -2.4757
   28MOL   H41218286   0.383   4.446   7.235 -0.6688 -1.4702  0.4558
   28MOL   H41318287   0.526   4.485   7.326  0.5822 -1.9175 -1.0345
   28MOL   H41418288   0.352   4.633   7.455 -0.4522 -0.0679 -0.8978
   28MOL   H41518289   0.394   4.681   7.289 -0.8917  0.4942 -0.5339
   28MOL   H41618290   0.185   4.579   7.208  1.0201  0.6760 -0.4042
   28MOL   H41718291   0.141   4.534   7.371 -0.7729 -0.3254 -0.8096
   28MOL   H41818292   0.172   4.809   7.240 -1.2440  1.1590  0.9114
   28MOL   H41918293   0.161   4.799   7.418 -0.2403 -0.5452  0.5651
   28MOL   H42018294   7.658   4.728   7.192 -0.0616 -0.0896  0.1878
   28MOL   H42118295   7.632   4.659   7.345  0.6364  0.9264  0.4149
   28MOL   H42218296   7.629   4.958   7.307  0.7924 -0.3594  1.8999
   28MOL   H42318297   7.593   4.880   7.453  1.7611 -1.3271  0.4779
   28MOL   H42418298   7.446   4.866   7.192 -2.3519 -0.0903  0.0751
   28MOL   H42518299   7.396   4.760   7.316  1.6249 -0.8431 -1.5257
   28MOL   H42618300   7.422   5.058   7.365 -0.0288  0.7696 -1.9384
   28MOL   H42718301   7.319   4.939   7.450 -1.1760  0.1647 -0.7538
   28MOL   H42818302   7.151   4.927   7.303  0.1094 -0.9018 -0.8835
   28MOL   H42918303   7.245   5.004   7.167  2.5099 -0.4876 -0.2844
   28MOL   H43018304   7.177   5.094   7.304  1.5805  0.5993  1.2811
   28MOL   C43118305   0.456   4.411   7.587  0.2456 -0.2295  0.2997
   28MOL   C43218306   0.367   4.476   7.696  0.4757  1.0221  0.2415
   28MOL   C43318307   0.458   4.555   0.085 -0.2848  0.3809  0.7805
   28MOL   C43418308   0.509   4.689   0.023 -0.0130 -0.1739 -0.0881
   28MOL   C43518309   0.399   4.797   0.008 -0.0410 -0.2178  0.0967
   28MOL   C43618310   0.457   4.934   7.676 -0.5621  0.3600  0.0179
   28MOL   C43718311   0.349   5.046   7.664  0.5960 -0.6012  1.3733
   28MOL   C43818312   0.401   5.179   7.607  0.4642 -0.6141 -0.1140
   28MOL   C43918313   0.433   5.193   7.454 -0.8842 -0.4878  0.2482
   28MOL   C44018314   0.514   5.318   7.420  0.0408  0.0517  0.4166
   28MOL   C44118315   0.435   5.458   7.444 -0.0631 -0.3686 -0.5630
   28MOL   H44218316   0.532   4.481   7.552  0.8864 -0.5514  1.0501
   28MOL   H44318317   0.504   4.321   7.626 -1.8014 -0.9912  1.1476
   28MOL   H44418318   0.293   4.539   7.648  1.4019  0.9399 -1.3441
   28MOL   H44518319   0.396   4.591   0.168 -0.4509 -1.2602  1.4065
   28MOL   H44618320   0.533   4.495   0.137 -0.5017 -0.2306  0.3966
   28MOL   H44718321   0.553   4.668   7.629  0.6712  0.1127  0.1555
   28MOL   H44818322   0.586   4.733   0.086 -0.8771  1.4330 -0.1481
   28MOL   H44918323   0.352   4.807   0.106  1.1065  0.7827  0.5662
   28MOL   H45018324   0.327   4.763   7.637 -0.8397  0.6012  0.5026
   28MOL   H45118325   0.517   4.926   7.586 -0.0820  1.4548  0.2398
   28MOL   H45218326   0.528   4.968   0.048  0.8318  1.5472 -1.8085
   28MOL   H45318327   0.309   5.051   0.062 -1.9955  2.8021  0.2698
   28MOL   H45418328   0.260   5.021   7.606  3.1832 -1.3313 -2.5112
   28MOL   H45518329   0.327   5.253   7.637  0.9634 -0.7203  1.4552
   28MOL   H45618330   0.493   5.199   7.663 -2.0047  1.0555  3.5035
   28MOL   H45718331   0.339   5.207   7.402 -0.8442 -0.3071  0.2242
   28MOL   H45818332   0.483   5.107   7.409  0.9718  0.3337  0.6670
   28MOL   H45918333   0.543   5.326   7.315 -0.4609 -0.0912  0.2679
   28MOL   H46018334   0.608   5.317   7.476 -1.0662 -0.8093  2.2856
   28MOL   H46118335   0.408   5.487   7.546 -1.4743 -0.7787 -0.8078
   28MOL   H46218336   0.491   5.546   7.411 -1.8398  0.3260 -1.7668
   28MOL   H46318337   0.334   5.445   7.406  0.3579 -0.2502 -1.7322
   28MOL   C46418338   0.300   4.362   0.078  0.0324 -0.2556  0.5656
   28MOL   C46518339   0.150   4.369   0.082 -0.1502 -0.1436 -1.2973
   28MOL   C46618340   0.085   4.240   0.146  0.1319  0.3681  0.2123
   28MOL   C46718341   0.044   4.137   0.039 -0.6772 -0.1518  0.5060
   28MOL   C46818342   7.600   4.155   7.695  0.7597 -0.5868  0.2281
   28MOL   C46918343   7.552   4.044   7.601 -0.2375  0.6155  0.4552
   28MOL   C47018344   7.415   4.077   7.533  0.4550 -0.0828  0.3967
   28MOL   C47118345   7.344   3.965   7.456  0.1193  0.2668  0.0302
   28MOL   C47218346   7.207   4.009   7.402  0.0117  0.9401 -0.0925
   28MOL   C47318347   7.091   3.965   7.497  0.6591 -0.2352 -0.3656
   28MOL   C47418348   6.947   3.983   7.449  0.2850 -0.3070  0.1330
   28MOL   H47518349   0.334   4.353   0.181  0.9778  2.7124  0.5638
   28MOL   H47618350   0.330   4.265   0.038 -1.2678  0.0628 -1.2433
   28MOL   H47718351   0.116   4.371   7.682  0.6945  0.8050 -1.5701
   28MOL   H47818352   0.003   4.260   0.215  1.9480 -1.4271  3.0058
   28MOL   H47918353   0.159   4.184   0.202  0.0396  1.4058  1.3924
   28MOL   H48018354   0.106   4.148   7.653 -1.1496  1.0648  0.3192
   28MOL   H48118355   0.058   4.036   0.076 -1.4857 -0.4532  0.0290
   28MOL   H48218356   7.594   4.254   7.648  1.9146 -0.5440  0.1528
   28MOL   H48318357   7.529   4.169   0.073 -0.3962  0.4103 -0.9282
   28MOL   H48418358   7.625   4.017   7.525 -0.5987  1.0712 -0.0592
   28MOL   H48518359   7.549   3.957   7.666  0.6275 -0.3828 -0.8095
   28MOL   H48618360   7.346   4.124   7.603  0.5702 -0.8899  1.0549
   28MOL   H48718361   7.432   4.153   7.457 -0.0355 -1.4578 -1.1173
   28MOL   H48818362   7.410   3.949   7.370 -0.6202 -1.1014 -0.2986
   28MOL   H48918363   7.359   3.872   7.510  2.0208  1.0355  0.8900
   28MOL   H49018364   7.205   4.116   7.380 -0.5002  1.4388  2.1932
   28MOL   H49118365   7.194   3.951   7.311 -0.6028 -2.3628  1.9965
   28MOL   H49218366   7.110   3.867   7.541  1.3443  0.4139  0.8249
   28MOL   H49318367   7.107   4.036   7.578  0.2836 -2.3408  1.6224
   28MOL   H49418368   6.885   4.012   7.534 -2.3571  0.6060 -2.0319
   28MOL   H49518369   6.908   3.886   7.420  1.0590 -0.5478 -0.1194
   28MOL   H49618370   6.930   4.066   7.381  1.2553  1.8845  2.4744
   28MOL   C49718371   0.104   4.491   0.161  0.0681 -0.5319  0.1574
   28MOL   C49818372   7.653   4.532   0.137 -0.0398 -0.7803 -0.1435
   28MOL   C49918373   7.630   4.603   7.698 -0.6157 -0.1304  0.1306
   28MOL   C50018374   7.487   4.629   7.652  0.2938  0.3167 -0.5354
   28MOL   C50118375   7.411   4.500   7.614 -0.7785  0.3669 -0.3306
   28MOL   C50218376   7.264   4.518   7.564 -0.0476  0.4953 -0.5356
   28MOL   C50318377   7.210   4.377   7.530 -0.3508 -0.0252  0.0217
   28MOL   C50418378   7.080   4.382   7.452 -0.5459 -0.3514  1.2502
   28MOL   C50518379   7.103   4.404   7.300 -0.7552  0.3519 -0.2668
   28MOL   C50618380   6.983   4.410   7.208  0.0466  0.0390  0.0501
   28MOL   C50718381   6.897   4.526   7.220 -0.4085 -0.3749  1.2031
   28MOL   H50818382   0.111   4.481   0.270 -0.0306  0.6955  0.2846
   28MOL   H50918383   0.161   4.581   0.139 -0.0586 -0.8044 -1.2891
   28MOL   H51018384   7.588   4.444   0.137 -1.2750  0.1215 -0.9678
   28MOL   H51118385   7.667   4.539   7.618  0.9807  0.8812  0.0304
   28MOL   H51218386   7.690   4.694   7.701 -0.9646  0.0545  2.5510
   28MOL   H51318387   7.487   4.701   7.570 -0.3514 -0.3844 -1.1620
   28MOL   H51418388   7.434   4.687   0.025 -1.1758  0.5296 -1.6859
   28MOL   H51518389   7.471   4.457   7.534 -0.9356 -0.3329 -0.0813
   28MOL   H51618390   7.407   4.422   7.691  0.8565 -0.1561 -0.7607
   28MOL   H51718391   7.200   4.571   7.635  0.3635 -0.4204  0.5242
   28MOL   H51818392   7.253   4.585   7.478 -0.4594  1.5673  0.3371
   28MOL   H51918393   7.289   4.327   7.474 -1.3211  0.0976 -1.4623
   28MOL   H52018394   7.194   4.319   7.621 -3.3091  0.8092  0.0911
   28MOL   H52118395   7.014   4.462   7.484 -0.0344  0.2477  0.8180
   28MOL   H52218396   7.033   4.284   7.459  2.5418 -1.9724  0.2499
   28MOL   H52318397   7.174   4.325   7.276  0.9603  1.4382  1.1556
   28MOL   H52418398   7.163   4.491   7.276  2.6879 -1.7376  0.3703
   28MOL   H52518399   6.930   4.316   7.216  0.0675  0.1785  2.1627
   28MOL   H52618400   7.021   4.411   7.106 -0.0733  0.7085  0.0043
   28MOL   H52718401   6.840   4.539   7.128  1.5024 -0.9277 -0.0768
   28MOL   H52818402   6.956   4.616   7.236  0.1697 -0.9041  2.1184
   28MOL   H52918403   6.821   4.512   7.298 -2.8819 -0.3220 -1.1133
   28MOL   C53018404   7.596   4.606   0.265  0.4233  0.1450  0.4048
   28MOL   C53118405   7.562   4.508   0.388 -0.4027 -0.4975  0.0541
   28MOL   C53218406   7.443   4.409   0.377  0.5974 -0.1224  0.1367
   28MOL   C53318407   7.312   4.476   0.325 -0.0309  0.7621 -0.5349
   28MOL   C53418408   7.197   4.386   0.290 -0.7894 -0.1483 -0.2059
   28MOL   C53518409   7.075   4.463   0.239 -0.0065 -0.1728 -0.2506
   28MOL   C53618410   6.972   4.361   0.190 -0.6039  0.6182 -0.5197
   28MOL   C53718411   6.861   4.319   0.288  0.2423  0.4559 -0.3917
   28MOL   C53818412   6.925   4.248   0.415 -0.1478  0.5533 -0.5604
   28MOL   C53918413   6.808   4.179   0.485 -0.3404 -0.5312 -0.2055
   28MOL   C54018414   6.841   4.051   0.570 -0.2747 -0.6631  0.2944
   28MOL   H54118415   7.663   4.687   0.293  0.1607 -0.0439  1.6212
   28MOL   H54218416   7.499   4.644   0.233  0.1069 -1.4996 -0.6251
   28MOL   H54318417   7.645   4.441   0.405 -1.3851 -1.9330 -0.7093
   28MOL   H54418418   7.438   4.347   0.466  0.3468 -0.3572 -0.0396
   28MOL   H54518419   7.472   4.343   0.295 -0.5925  0.3485 -0.6790
   28MOL   H54618420   7.329   4.536   0.236 -0.3522  2.2825  0.3997
   28MOL   H54718421   7.276   4.547   0.400 -0.9083  0.8587 -1.0439
   28MOL   H54818422   7.170   4.328   0.379  0.2875  0.2891  0.4040
   28MOL   H54918423   7.227   4.313   0.214  0.1254 -2.1106  1.9891
   28MOL   H55018424   7.102   4.521   0.151 -1.1222  1.6142  0.5520
   28MOL   H55118425   7.045   4.536   0.314  1.3457  1.5482 -1.3496
   28MOL   H55218426   7.016   4.265   0.161 -1.1416 -0.3917  1.9179
   28MOL   H55318427   6.927   4.414   0.106  1.6605  3.2805 -0.1254
   28MOL   H55418428   6.798   4.244   0.240  1.2828 -1.0094  0.4798
   28MOL   H55518429   6.799   4.406   0.312  1.5147  1.7627 -1.7498
   28MOL   H55618430   6.971   4.319   0.484 -2.4184  0.8484  0.7034
   28MOL   H55718431   7.002   4.176   0.386 -0.7545 -0.5913  0.6372
   28MOL   H55818432   6.729   4.145   0.417 -2.6532  0.0379  2.0992
   28MOL   H55918433   6.754   4.259   0.536  1.6734  0.3197  0.6379
   28MOL   H56018434   6.875   3.972   0.502 -1.5209  1.5530 -3.0447
   28MOL   H56118435   6.920   4.057   0.645  0.0176  1.0471 -0.1341
   28MOL   H56218436   6.749   4.019   0.618  0.2628  0.1438  1.9033
   28MOL   C56318437   7.538   4.595   0.517  0.3477  0.1512 -1.2604
   28MOL   C56418438   7.546   4.527   0.660 -0.1369 -0.2703  0.4354
   28MOL   C56518439   7.434   4.576   0.747  0.1897 -0.2931  0.0806
   28MOL   C56618440   7.422   4.514   0.888  0.3089  0.0657  0.2658
   28MOL   C56718441   7.296   4.570   0.967 -0.0784  0.2994  0.0327
   28MOL   C56818442   7.320   4.707   1.031 -0.3613  0.6168  0.4959
   28MOL   C56918443   7.182   4.778   1.053  0.4456 -0.4432 -0.3466
   28MOL   C57018444   7.135   4.852   0.921 -0.1596 -0.4289  0.7373
   28MOL   C57118445   6.983   4.903   0.926 -0.0631 -0.4262  0.5864
   28MOL   C57218446   6.973   5.023   1.023  0.4349 -0.2259 -0.3103
   28MOL   C57318447   6.821   5.065   1.054  0.2213 -0.1568  0.1096
   28MOL   H57418448   7.436   4.633   0.509  0.4037  0.3895 -0.8152
   28MOL   H57518449   7.601   4.684   0.522  1.2301 -0.5208 -0.2951
   28MOL   H57618450   7.540   4.419   0.645  0.4477 -0.1203 -0.9469
   28MOL   H57718451   7.338   4.557   0.698 -0.0695 -0.6713  0.7338
   28MOL   H57818452   7.456   4.683   0.749  1.0910 -0.4608 -0.3683
   28MOL   H57918453   7.512   4.527   0.949  1.2240  0.0676 -1.0578
   28MOL   H58018454   7.402   4.409   0.869  2.0388 -0.1685 -0.3929
   28MOL   H58118455   7.268   4.502   1.047 -3.1420 -0.6550 -1.7314
   28MOL   H58218456   7.213   4.576   0.896 -0.4114 -1.4807  0.2345
   28MOL   H58318457   7.375   4.698   1.125  0.0757  1.3016  0.3086
   28MOL   H58418458   7.393   4.763   0.973 -0.8294 -0.3067 -1.0095
   28MOL   H58518459   7.117   4.694   1.074  0.4030 -0.2925  0.1275
   28MOL   H58618460   7.186   4.836   1.145 -0.1591 -1.0725  0.0715
   28MOL   H58718461   7.156   4.793   0.831 -0.9388 -0.3831  0.5196
   28MOL   H58818462   7.191   4.945   0.925  0.7384 -1.0114  2.0535
   28MOL   H58918463   6.918   4.819   0.952 -3.0819  1.6988  0.0752
   28MOL   H59018464   6.960   4.929   0.823 -1.3560 -0.0774  0.9563
   28MOL   H59118465   7.021   5.105   0.968  1.2786  0.1227  0.9351
   28MOL   H59218466   7.031   5.005   1.113 -1.0251 -1.9540  0.3064
   28MOL   H59318467   6.762   5.087   0.964  0.9016 -1.0971 -0.5737
   28MOL   H59418468   6.783   4.973   1.097 -0.5072 -0.4990 -1.2190
   28MOL   H59518469   6.810   5.145   1.127  0.9975 -1.7724  2.0392
   28MOL   C59618470   7.680   4.549   0.729 -0.1578 -0.4447 -0.2408
   28MOL   C59718471   0.101   4.492   0.653 -0.8262 -0.2245 -0.3954
   28MOL   C59818472   0.125   4.342   0.657 -0.1764 -0.4128 -0.4911
   28MOL   C59918473   0.228   4.306   0.546 -0.1008  0.1528  0.6575
   28MOL   C60018474   0.253   4.153   0.554 -0.3048 -0.2116 -0.2928
   28MOL   C60118475   0.349   4.120   0.671 -0.3808  0.3926 -0.4031
   28MOL   C60218476   0.404   3.974   0.695  0.3223 -0.2783 -0.1176
   28MOL   C60318477   0.487   3.914   0.576 -0.0432  0.3908  0.0793
   28MOL   C60418478   0.550   3.780   0.616 -0.1465  0.0553 -0.2053
   28MOL   C60518479   0.634   3.707   0.509  0.4288  0.1386 -0.4365
   28MOL   C60618480   0.752   3.795   0.446  0.6545  0.1431  0.3541
   28MOL   H60718481   7.688   4.656   0.748 -2.9314 -0.4849  1.2381
   28MOL   H60818482   7.679   4.495   0.823  1.5764  1.1433  0.7276
   28MOL   H60918483   0.092   4.530   0.551 -1.5131  1.3726  0.2316
   28MOL   H61018484   0.032   4.290   0.632 -0.9434  0.8728 -0.3635
   28MOL   H61118485   0.154   4.313   0.758  3.4358 -0.0920 -1.3956
   28MOL   H61218486   0.317   4.367   0.528 -2.2290  2.7913 -1.2665
   28MOL   H61318487   0.176   4.336   0.455  0.8913  1.6416  0.5596
   28MOL   H61418488   0.304   4.119   0.464  1.4555 -1.5378  1.1752
   28MOL   H61518489   0.158   4.101   0.559 -0.8942  0.8405 -0.3163
   28MOL   H61618490   0.433   4.187   0.657 -0.7390  0.6419 -1.3551
   28MOL   H61718491   0.320   4.145   0.774  2.6697 -3.5670  1.5536
   28MOL   H61818492   0.328   3.906   0.733  0.5504  0.3732  1.5009
   28MOL   H61918493   0.467   3.974   0.784 -0.1937 -0.0679  0.2476
   28MOL   H62018494   0.561   3.988   0.546  0.2059  0.0033 -0.2618
   28MOL   H62118495   0.421   3.909   0.489  0.6240  1.1142 -0.4706
   28MOL   H62218496   0.615   3.796   0.702 -1.6829  0.0868  0.9685
   28MOL   H62318497   0.468   3.714   0.644 -0.6291  1.6607  2.3816
   28MOL   H62418498   0.569   3.675   0.427 -3.3458 -2.0968  3.2619
   28MOL   H62518499   0.681   3.623   0.559 -1.8382 -1.2321 -0.5524
   28MOL   H62618500   0.835   3.739   0.405  0.0424 -0.2081 -0.4069
   28MOL   H62718501   0.719   3.875   0.380  0.7524  2.0261  2.5179
   28MOL   H62818502   0.794   3.842   0.535  0.0031 -1.4315  1.5251
   28MOL   C62918503   0.222   4.569   0.711 -0.0842 -0.2664 -0.6800
   28MOL   C63018504   0.238   4.719   0.663 -0.0791  1.0295 -0.0054
   28MOL   C63118505   0.307   4.725   0.526  0.2791 -0.0246 -0.3223
   28MOL   C63218506   0.324   4.863   0.460 -0.3237 -0.0528 -0.7627
   28MOL   C63318507   0.192   4.938   0.423  0.2328 -0.7324 -0.0734
   28MOL   C63418508   0.237   5.073   0.357  0.3027 -0.5256  0.1037
   28MOL   C63518509   0.120   5.165   0.303 -0.6482  0.1111  0.5366
   28MOL   C63618510   0.164   5.309   0.265 -0.0811 -0.0257  0.0679
   28MOL   C63718511   0.153   5.410   0.382  0.4682 -1.6530 -0.3118
   28MOL   C63818512   0.184   5.556   0.339 -0.4974  0.0851 -0.3765
   28MOL   C63918513   0.154   5.649   0.459 -0.3141  0.4409 -0.4001
   28MOL   H64018514   0.211   4.558   0.819 -1.6227 -0.9491 -0.9056
   28MOL   H64118515   0.316   4.518   0.688  0.3155  0.5517 -0.9246
   28MOL   H64218516   0.140   4.766   0.672  0.4119  1.8361  1.1801
   28MOL   H64318517   0.399   4.667   0.530 -0.1827 -0.7518 -0.0799
   28MOL   H64418518   0.245   4.664   0.460  0.7814 -3.2947  2.1390
   28MOL   H64518519   0.385   4.852   0.370  0.0841 -1.1630 -0.3597
   28MOL   H64618520   0.382   4.931   0.523 -0.8761 -0.1172 -0.1802
   28MOL   H64718521   0.145   4.965   0.518  5.0996  1.6098  1.8410
   28MOL   H64818522   0.123   4.878   0.364 -1.5087  0.5165  0.6156
   28MOL   H64918523   0.292   5.054   0.265 -0.0085  1.2513 -0.4706
   28MOL   H65018524   0.301   5.132   0.422 -2.6571  0.4369  2.2718
   28MOL   H65118525   0.054   5.182   0.388  0.0878  0.5537  1.0317
   28MOL   H65218526   0.056   5.122   0.225 -2.5680 -0.1613  2.2260
   28MOL   H65318527   0.117   5.333   0.170  0.7112 -1.9460 -0.8195
   28MOL   H65418528   0.266   5.303   0.227  0.1661 -2.2516  0.9665
   28MOL   H65518529   0.229   5.399   0.460  1.2075  0.8732 -0.6421
   28MOL   H65618530   0.060   5.413   0.439 -0.2953 -0.3899 -1.5911
   28MOL   H65718531   0.122   5.592   0.256  0.2082 -2.6100 -2.1307
   28MOL   H65818532   0.289   5.566   0.312 -0.2994  0.4742  0.5459
   28MOL   H65918533   0.059   5.625   0.507  1.1710 -3.8520  0.5525
   28MOL   H66018534   0.136   5.752   0.428  2.7430  1.4832  1.1292
   28MOL   H66118535   0.238   5.643   0.528  0.1600  0.8290 -0.9413
   28MOL   H66218536   0.302   4.775   0.731  0.9734 -0.1214 -0.0339
   29MOL     C118537   4.390   7.085   3.879  0.0663 -0.3590 -0.1678
   29MOL     C218538   4.294   7.030   3.767 -0.0077 -0.3746  0.1597
   29MOL     C318539   4.196   6.921   3.818  0.0363 -0.4665 -0.3672
   29MOL     C418540   4.071   6.982   3.879  0.7153 -0.1664 -0.2445
   29MOL     C518541   3.973   6.868   3.921 -0.4853 -0.5122 -0.5019
   29MOL     C618542   3.866   6.936   4.003  0.3810  0.3686 -0.1288
   29MOL     C718543   3.753   6.842   4.057  0.0475  0.4557  0.3825
   29MOL     C818544   3.622   6.915   4.089  0.1742  0.3432 -0.5525
   29MOL     C918545   3.494   6.830   4.103  0.1479 -0.4286  0.0983
   29MOL    C1018546   3.361   6.917   4.121  0.2608  0.9555 -0.6077
   29MOL    C1118547   3.246   6.816   4.107  0.7298  0.4590 -0.2217
   29MOL    H1218548   4.472   7.143   3.837 -0.0739  0.2167  0.3415
   29MOL    H1318549   4.423   6.994   3.930  1.8721  0.7197  0.6622
   29MOL    H1418550   4.368   6.971   3.712 -0.4727  0.6822 -1.6157
   29MOL    H1518551   4.234   6.852   3.893 -0.1853 -0.8135 -0.5709
   29MOL    H1618552   4.175   6.855   3.734 -0.1519 -0.2613 -0.4836
   29MOL    H1718553   4.024   7.062   3.821 -0.1255 -0.6290 -0.2036
   29MOL    H1818554   4.100   7.039   3.967 -1.0369  1.4263 -0.6625
   29MOL    H1918555   3.932   6.825   3.830 -1.2616 -1.3975  0.2582
   29MOL    H2018556   4.023   6.794   3.984 -2.5689 -1.4865  0.0395
   29MOL    H2118557   3.811   7.000   3.934 -1.7553 -0.1014  1.0688
   29MOL    H2218558   3.893   6.992   4.093 -1.8107 -0.2030  0.9467
   29MOL    H2318559   3.728   6.761   3.988 -1.8446  0.6522  0.7945
   29MOL    H2418560   3.795   6.790   4.143 -4.8871 -2.4340  1.2587
   29MOL    H2518561   3.604   6.976   4.000 -0.3029  1.9750  0.6369
   29MOL    H2618562   3.638   6.997   4.159 -0.8278  1.5736 -1.7283
   29MOL    H2718563   3.495   6.769   4.194  1.7913 -0.8281 -0.1721
   29MOL    H2818564   3.484   6.768   4.014 -0.4754 -0.3929  0.1395
   29MOL    H2918565   3.370   6.996   4.046 -0.8406 -0.3080 -2.0938
   29MOL    H3018566   3.361   6.970   4.217 -3.3516  0.1035 -0.0824
   29MOL    H3118567   3.241   6.779   4.005 -0.1929 -1.2510  0.4128
   29MOL    H3218568   3.256   6.732   4.176 -0.1597 -0.3857 -1.0857
   29MOL    H3318569   3.161   6.879   4.134  0.5276  0.8091 -1.6213
   29MOL    H3418570   4.344   7.149   3.954  1.4016 -0.1297  0.4781
   29MOL    C3518571   4.241   7.143   3.678  0.1836 -0.1756 -0.5902
   29MOL    C3618572   4.179   7.085   3.550 -0.5773  0.2870 -0.2690
   29MOL    C3718573   4.087   7.182   3.478 -0.2605 -0.0707  0.0050
   29MOL    C3818574   3.943   7.169   3.534 -0.1363  0.2386 -0.4495
   29MOL    C3918575   3.848   7.252   3.449 -0.6992  0.5658 -0.5241
   29MOL    C4018576   3.783   7.178   3.331  0.7230 -0.6736  0.2708
   29MOL    C4118577   3.712   7.282   3.238  0.1494 -0.1414 -0.0602
   29MOL    C4218578   3.645   7.224   3.113  0.2549 -0.2568 -0.4330
   29MOL    C4318579   3.524   7.133   3.151 -0.5365 -0.1085 -0.1749
   29MOL    C4418580   3.465   7.063   3.028 -0.1394  0.1253  0.9334
   29MOL    C4518581   3.336   6.992   3.061  0.1181 -0.4778 -0.7758
   29MOL    H4618582   4.321   7.212   3.652  0.2933  0.4125  1.2482
   29MOL    H4718583   4.171   7.205   3.734  0.5510 -1.4929  1.3728
   29MOL    H4818584   4.128   6.989   3.562  0.5913 -0.4210 -0.7719
   29MOL    H4918585   4.142   7.277   3.479 -0.0929 -0.1575  2.5183
   29MOL    H5018586   4.074   7.160   3.372  1.0702  0.2159 -0.2383
   29MOL    H5118587   3.945   7.198   3.639 -1.1549  1.9886 -0.9041
   29MOL    H5218588   3.904   7.067   3.525  1.0476 -0.1838 -0.9433
   29MOL    H5318589   3.909   7.338   3.421 -0.1514  1.3528  2.8456
   29MOL    H5418590   3.762   7.283   3.508  0.9954  2.3483  1.1041
   29MOL    H5518591   3.722   7.101   3.378  0.0805 -0.0003  0.5620
   29MOL    H5618592   3.856   7.129   3.267  0.8397  0.5526 -0.5524
   29MOL    H5718593   3.651   7.353   3.294  1.1314  1.0806 -0.5227
   29MOL    H5818594   3.790   7.338   3.187  1.2083 -1.4443  0.1011
   29MOL    H5918595   3.711   7.167   3.048  1.5628  0.1184  0.5286
   29MOL    H6018596   3.601   7.308   3.058 -1.9992  0.0937  1.8169
   29MOL    H6118597   3.444   7.183   3.206 -0.1924 -1.6764  1.8054
   29MOL    H6218598   3.557   7.058   3.223 -0.2496 -0.7866 -1.0023
   29MOL    H6318599   3.443   7.133   2.946  2.0803  0.5387  0.6559
   29MOL    H6418600   3.535   6.992   2.985 -0.0599  1.1500 -0.6893
   29MOL    H6518601   3.366   6.904   3.118  0.0835 -0.8691 -1.3574
   29MOL    H6618602   3.267   7.052   3.120  0.8436 -0.3195 -0.0750
   29MOL    H6718603   3.269   6.970   2.978 -2.3064  1.0409  0.7342
   29MOL    C6818604   4.295   7.055   3.453  0.8754  0.9746 -0.0270
   29MOL    C6918605   4.258   6.982   3.321 -1.0548  0.2890  0.2641
   29MOL    C7018606   4.319   7.039   3.186 -0.4689 -0.2665  0.5159
   29MOL    C7118607   4.276   7.180   3.142  1.0443 -0.3598  0.5937
   29MOL    C7218608   4.337   7.212   3.005 -0.6817 -0.0411 -0.5350
   29MOL    C7318609   4.323   7.355   2.972  0.7223 -0.5765 -0.6690
   29MOL    C7418610   4.416   7.397   2.855 -0.3856 -0.3718 -0.6405
   29MOL    C7518611   4.568   7.389   2.876 -0.1532 -0.1063 -0.2734
   29MOL    C7618612   4.648   7.460   2.764  0.4048 -0.2383  0.1213
   29MOL    C7718613   4.721   7.587   2.798  0.2348 -0.3835 -0.4382
   29MOL    C7818614   4.811   7.646   2.684  0.0050 -0.2994  0.7298
   29MOL    H7918615   4.373   7.000   3.505 -1.0298 -0.6857  1.0969
   29MOL    H8018616   4.353   7.143   3.424  1.3270  1.0909  1.1967
   29MOL    H8118617   4.150   6.974   3.321 -0.9794 -2.5836 -4.0693
   29MOL    H8218618   4.308   6.967   3.106 -0.4360 -0.1992  0.4500
   29MOL    H8318619   4.428   7.036   3.189 -0.3694  2.1778  0.5451
   29MOL    H8418620   4.168   7.180   3.153  0.8851  0.7467 -0.8712
   29MOL    H8518621   4.323   7.246   3.216  3.7424 -0.4728 -0.9486
   29MOL    H8618622   4.310   7.136   2.931  0.7218 -1.9179  0.8249
   29MOL    H8718623   4.445   7.209   3.012 -0.8593 -4.0648  2.0711
   29MOL    H8818624   4.223   7.398   2.976  2.0942  2.8189 -0.8714
   29MOL    H8918625   4.360   7.418   3.053 -0.4281 -0.0887 -0.5171
   29MOL    H9018626   4.406   7.505   2.845  0.2970 -0.0213  1.9752
   29MOL    H9118627   4.378   7.351   2.764  1.0260 -1.4819 -0.6830
   29MOL    H9218628   4.591   7.430   2.974 -1.4425  1.8995 -0.7966
   29MOL    H9318629   4.617   7.291   2.877  0.4585  0.2056  1.4235
   29MOL    H9418630   4.715   7.388   2.717 -1.9983 -2.5317  0.0991
   29MOL    H9518631   4.594   7.490   2.674  2.6238  2.8402 -0.2766
   29MOL    H9618632   4.652   7.666   2.828  0.4823 -0.5106  0.4835
   29MOL    H9718633   4.775   7.575   2.892 -1.2601  3.2698  0.9884
   29MOL    H9818634   4.889   7.583   2.641  0.2958  0.9785 -0.6355
   29MOL    H9918635   4.858   0.035   2.717 -0.6167  0.8205 -1.4285
   29MOL   H10018636   4.739   7.682   2.611 -0.7965  1.0437  2.1586
   29MOL   C10118637   4.307   6.834   3.332  0.5834  0.6311  0.1415
   29MOL   C10218638   4.243   6.732   3.230  1.0193 -1.3519  0.9099
   29MOL   C10318639   4.121   6.655   3.289  0.4132 -0.4565 -0.4515
   29MOL   C10418640   4.006   6.744   3.337  0.3987 -0.2630 -0.5967
   29MOL   C10518641   3.885   6.661   3.372  0.2052 -0.5368  0.1727
   29MOL   C10618642   3.753   6.731   3.340  0.2095 -0.5300 -0.1746
   29MOL   C10718643   3.629   6.650   3.386  0.1515  0.3029  0.3923
   29MOL   C10818644   3.496   6.704   3.336  0.2492 -0.0301 -0.2644
   29MOL   C10918645   3.375   6.611   3.354  0.2201  0.6524 -0.1811
   29MOL   C11018646   3.251   6.642   3.277 -0.1357 -0.5256 -0.0709
   29MOL   C11118647   3.153   6.522   3.283 -0.0330  0.4465 -0.6457
   29MOL   H11218648   4.416   6.836   3.341  0.4324  1.9286  1.9972
   29MOL   H11318649   4.269   6.802   3.429 -1.9327 -2.0872 -1.6757
   29MOL   H11418650   4.205   6.787   3.144  1.4752 -3.5576 -0.7340
   29MOL   H11518651   4.082   6.591   3.210  3.0606 -1.8199 -0.7200
   29MOL   H11618652   4.167   6.591   3.366  0.1456 -0.7648 -0.5468
   29MOL   H11718653   4.038   6.795   3.427  1.7818 -0.2868 -1.0622
   29MOL   H11818654   3.986   6.821   3.262  1.1261  1.3729  0.8647
   29MOL   H11918655   3.880   6.574   3.306 -2.0593  0.6327 -1.2687
   29MOL   H12018656   3.892   6.623   3.474  0.7429  0.4809  0.5132
   29MOL   H12118657   3.746   6.820   3.403 -0.9340 -0.3343 -0.5597
   29MOL   H12218658   3.737   6.767   3.239  2.7470 -1.4031 -0.9172
   29MOL   H12318659   3.626   6.648   3.495 -0.5671 -0.1189  0.3692
   29MOL   H12418660   3.648   6.549   3.351  3.4675  0.5848  1.2660
   29MOL   H12518661   3.472   6.800   3.382  1.1620  0.2592 -0.3956
   29MOL   H12618662   3.502   6.721   3.228  1.2089 -0.9061 -0.3537
   29MOL   H12718663   3.403   6.511   3.322 -2.8627  0.3436 -2.1681
   29MOL   H12818664   3.352   6.593   3.459 -1.3166 -1.4438 -0.8292
   29MOL   H12918665   3.281   6.665   3.175  0.2654 -0.5407  0.0433
   29MOL   H13018666   3.196   6.728   3.313  2.0751  1.2518 -0.8113
   29MOL   H13118667   3.208   6.433   3.253  0.5901  0.4914  0.3215
   29MOL   H13218668   3.127   6.491   3.384  0.8436 -1.0320 -0.8598
   29MOL   H13318669   3.055   6.539   3.239 -1.1988 -0.1611  1.6233
   29MOL   C13418670   4.344   6.638   3.183 -0.0776  0.6842 -0.3297
   29MOL   C13518671   4.342   6.596   3.030  0.0551 -0.4073  0.1568
   29MOL   C13618672   4.399   6.707   2.934 -0.4461  0.2536 -0.0790
   29MOL   C13718673   4.549   6.754   2.952 -0.1328  0.3700  0.9960
   29MOL   C13818674   4.583   6.865   2.850 -0.1600 -0.9939 -0.5542
   29MOL   C13918675   4.728   6.918   2.869  0.1198  0.4649 -0.3331
   29MOL   C14018676   4.775   7.029   2.773  0.0477  0.1727  0.1169
   29MOL   C14118677   4.928   7.050   2.763  0.6143  0.3248  0.1350
   29MOL   C14218678   4.971   7.173   2.688 -0.3589  0.3948 -0.1384
   29MOL   C14318679   4.947   7.171   2.535 -0.2364 -0.0868 -0.8522
   29MOL   C14418680   4.988   7.298   2.464  0.3393  0.6015 -0.8792
   29MOL   H14518681   4.446   6.672   3.201 -0.6392  1.9396  0.5038
   29MOL   H14618682   4.337   6.539   3.228 -0.0279  1.1028  0.6015
   29MOL   H14718683   4.413   6.514   3.037  1.1626  0.5058 -0.2336
   29MOL   H14818684   4.345   6.801   2.941  0.6636  0.7567  2.2565
   29MOL   H14918685   4.394   6.659   2.836  0.0101  2.5297 -1.2339
   29MOL   H15018686   4.572   6.780   3.055  0.5373  0.2940  0.8702
   29MOL   H15118687   4.607   6.664   2.934  1.1489  1.3591  0.0883
   29MOL   H15218688   4.561   6.819   2.753  0.8118  0.4481 -1.4855
   29MOL   H15318689   4.510   6.945   2.862  0.0494 -1.3242  3.3861
   29MOL   H15418690   4.723   6.971   2.964 -2.4620  0.4129 -0.4085
   29MOL   H15518691   4.814   6.853   2.883  0.8686  1.7565  1.1461
   29MOL   H15618692   4.723   7.019   2.678 -0.1872 -1.0250  0.3667
   29MOL   H15718693   4.733   7.122   2.811 -1.2366 -0.5855  0.5670
   29MOL   H15818694   4.952   7.055   2.870 -1.8481  0.1446  0.7189
   29MOL   H15918695   4.978   6.958   2.731  0.3776  0.2152  0.0740
   29MOL   H16018696   4.927   7.260   2.737  0.2219 -0.1000  1.2854
   29MOL   H16118697   5.073   7.199   2.716 -0.2925  0.4718 -0.4433
   29MOL   H16218698   4.985   7.082   2.484  2.0456  0.4380 -0.1357
   29MOL   H16318699   4.843   7.161   2.504  0.6248  0.3753 -4.0554
   29MOL   H16418700   4.984   7.291   2.355  1.2939  2.5678 -1.0620
   29MOL   H16518701   5.096   7.306   2.474  0.4425 -0.1804 -1.2950
   29MOL   H16618702   4.942   7.386   2.508  0.7626 -0.6454  2.2104
   29MOL   C16718703   4.200   6.540   2.982  0.2882  0.0271  0.0236
   29MOL   C16818704   4.174   6.485   2.835 -0.2477  0.7418  0.3123
   29MOL   C16918705   4.285   6.392   2.789  0.5373  0.0920  0.4204
   29MOL   C17018706   4.287   6.262   2.869  0.1362  0.1409 -0.2126
   29MOL   C17118707   4.406   6.182   2.818  0.1245  0.0292  0.2462
   29MOL   C17218708   4.465   6.097   2.932  0.1115  0.0862  0.0346
   29MOL   C17318709   4.371   5.988   2.995 -0.1743  0.2744  0.6578
   29MOL   C17418710   4.422   5.925   3.125 -0.2602 -0.3149  0.1939
   29MOL   C17518711   4.340   5.806   3.171 -0.0990 -0.3483 -0.3659
   29MOL   C17618712   4.387   5.758   3.312  0.0374  0.1118  0.0131
   29MOL   C17718713   4.294   5.646   3.363 -0.2204 -0.2020 -0.0514
   29MOL   H17818714   4.164   6.461   3.048 -2.1277 -0.0169 -1.2781
   29MOL   H17918715   4.120   6.610   3.006 -0.2033  0.5133 -2.8661
   29MOL   H18018716   4.087   6.422   2.854  1.7556 -2.4509 -0.6038
   29MOL   H18118717   4.375   6.453   2.790 -0.0136  0.9033  0.6765
   29MOL   H18218718   4.266   6.365   2.685  1.0779  1.4884 -0.0406
   29MOL   H18318719   4.308   6.283   2.974 -1.5720  1.4326 -0.1084
   29MOL   H18418720   4.203   6.195   2.855  1.3110 -1.1813 -1.0612
   29MOL   H18518721   4.495   6.231   2.779  1.4610 -2.4334  0.0999
   29MOL   H18618722   4.370   6.121   2.735  1.1478 -2.0212  1.2857
   29MOL   H18718723   4.555   6.044   2.902  0.8197  1.3017 -0.0034
   29MOL   H18818724   4.494   6.164   3.013 -0.2706  0.7513 -0.3724
   29MOL   H18918725   4.376   5.902   2.929  1.1852 -0.1993  1.3767
   29MOL   H19018726   4.269   6.022   3.013 -0.1061  0.2059  1.1772
   29MOL   H19118727   4.527   5.897   3.110 -0.1351  0.2071  0.0831
   29MOL   H19218728   4.432   5.998   3.204 -2.8527 -1.1021  1.2837
   29MOL   H19318729   4.331   5.729   3.094  1.1956 -1.4113  0.5253
   29MOL   H19418730   4.234   5.831   3.171  0.1019  0.5066 -0.0698
   29MOL   H19518731   4.392   5.851   3.370 -1.1824  1.8576 -2.6185
   29MOL   H19618732   4.493   5.730   3.311  0.0023 -0.2737  2.3030
   29MOL   H19718733   4.319   5.626   3.467  1.0987  0.9241 -0.1429
   29MOL   H19818734   4.306   5.555   3.305 -1.8411 -1.8301  2.0796
   29MOL   H19918735   4.190   5.677   3.355  0.7595  3.8220  1.3867
   29MOL   C20018736   4.143   6.590   2.725 -0.0401  0.9370  0.0082
   29MOL   C20118737   4.046   6.702   2.764 -0.1149  0.4610  0.1190
   29MOL   C20218738   3.912   6.646   2.811 -0.1249  0.6920  0.4248
   29MOL   C20318739   3.826   6.750   2.884  0.6387  0.3732  0.9378
   29MOL   C20418740   3.689   6.714   2.934 -0.8273 -0.2816  0.0502
   29MOL   C20518741   3.576   6.695   2.830 -0.5914 -0.2821  0.4089
   29MOL   C20618742   3.438   6.698   2.894  1.3036 -0.2902 -0.4879
   29MOL   C20718743   3.329   6.734   2.791  0.3500  0.2956 -0.2764
   29MOL   C20818744   3.318   6.646   2.663 -0.1767 -0.6009 -0.4217
   29MOL   C20918745   3.199   6.684   2.573 -0.1036  0.2761 -0.0002
   29MOL   C21018746   3.199   6.605   2.440 -0.3161 -0.1387 -0.2714
   29MOL   H21118747   4.241   6.624   2.690 -0.0619 -0.9581 -2.0424
   29MOL   H21218748   4.101   6.539   2.638 -0.6793  0.9678  0.2995
   29MOL   H21318749   4.100   6.754   2.843  1.1493 -0.0101 -0.4302
   29MOL   H21418750   3.921   6.558   2.875 -0.9259 -0.0054 -0.3873
   29MOL   H21518751   3.843   6.622   2.729 -0.4463 -1.8576  1.3907
   29MOL   H21618752   3.823   6.846   2.831  1.0187 -0.3309 -0.3777
   29MOL   H21718753   3.881   6.784   2.972  2.5129 -2.1163  0.7876
   29MOL   H21818754   3.663   6.782   3.015  1.4324 -0.2611  0.7994
   29MOL   H21918755   3.695   6.618   2.984 -2.9984 -0.0564  0.7624
   29MOL   H22018756   3.573   6.794   2.785 -1.1010 -0.6174 -0.3046
   29MOL   H22118757   3.604   6.613   2.764  0.2599  0.6735 -0.4302
   29MOL   H22218758   3.437   6.780   2.965  0.4778 -0.6842 -0.0381
   29MOL   H22318759   3.411   6.613   2.957 -0.6524  0.4666 -0.2759
   29MOL   H22418760   3.336   6.837   2.757 -1.3080  0.9973  1.3750
   29MOL   H22518761   3.234   6.736   2.845 -0.9598 -1.5277 -2.4183
   29MOL   H22618762   3.300   6.544   2.697  0.7264 -0.5293  0.2704
   29MOL   H22718763   3.416   6.656   2.616  0.4255 -0.0983  0.9055
   29MOL   H22818764   3.113   6.657   2.634  0.5094 -1.6236  0.0403
   29MOL   H22918765   3.192   6.793   2.566 -1.1989  0.1227 -1.5019
   29MOL   H23018766   3.298   6.616   2.395  0.3451  0.6268  1.3549
   29MOL   H23118767   3.130   6.647   2.367 -2.2387  1.1150  2.1985
   29MOL   H23218768   3.166   6.502   2.459 -1.4054 -0.1502 -2.0662
   29MOL   C23318769   4.035   6.791   2.644  0.5735 -0.7251  0.2669
   29MOL   C23418770   4.134   6.911   2.631 -0.1116 -0.0019 -0.0685
   29MOL   C23518771   4.065   7.049   2.673 -0.0265  0.0335 -0.3265
   29MOL   C23618772   4.041   7.070   2.820  0.3287 -0.1673 -0.1833
   29MOL   C23718773   4.023   7.214   2.858 -0.5046 -0.9434  0.3765
   29MOL   C23818774   3.890   7.282   2.813 -0.0867 -0.4847 -0.2576
   29MOL   C23918775   3.865   7.430   2.851 -0.1200  0.2473 -0.1738
   29MOL   C24018776   3.727   7.484   2.802 -0.1186  0.9575  0.3497
   29MOL   C24118777   3.693   7.630   2.847  0.3803 -0.4284 -0.4944
   29MOL   C24218778   3.565   7.673   2.778  0.1557 -0.7487 -0.7421
   29MOL   C24318779   3.542   0.113   2.815 -0.4111 -1.0390  0.0071
   29MOL   H24418780   3.935   6.831   2.657  0.9580  0.8329 -1.3200
   29MOL   H24518781   4.023   6.743   2.547  3.4914  0.0935 -0.5522
   29MOL   H24618782   4.229   6.899   2.683 -0.5884  2.6322  1.5081
   29MOL   H24718783   4.117   7.131   2.624  1.5187 -1.9050 -1.9674
   29MOL   H24818784   3.969   7.047   2.622 -0.8942 -1.1316  1.2956
   29MOL   H24918785   4.116   7.015   2.876  1.4729  2.9981  1.4797
   29MOL   H25018786   3.949   7.021   2.854 -0.6607  1.6782 -0.1349
   29MOL   H25118787   4.100   7.271   2.806 -1.6487  1.4209  1.2046
   29MOL   H25218788   4.043   7.241   2.962 -0.4510 -0.8611  0.3443
   29MOL   H25318789   3.807   7.222   2.851 -0.9111  0.9317  0.2117
   29MOL   H25418790   3.876   7.274   2.705 -1.7260 -1.0876 -0.0221
   29MOL   H25518791   3.877   7.445   2.958  0.1921 -0.4509 -0.1113
   29MOL   H25618792   3.951   7.487   2.815 -0.3810  0.5057 -0.3893
   29MOL   H25718793   3.742   7.487   2.694  1.5570  1.3676  0.5792
   29MOL   H25818794   3.645   7.415   2.823  0.3127 -1.1925 -4.4042
   29MOL   H25918795   3.683   7.641   2.955  0.2501  0.5612 -0.6028
   29MOL   H26018796   3.774   7.699   2.821  0.1497 -0.4440 -1.2824
   29MOL   H26118797   3.476   7.615   2.802 -1.2358  1.5071 -0.2638
   29MOL   H26218798   3.570   7.665   2.669 -0.5890 -2.3428 -0.6739
   29MOL   H26318799   3.558   0.127   2.922 -0.4557 -1.1652  0.0309
   29MOL   H26418800   3.440   0.145   2.794 -0.5555 -2.8295 -2.1156
   29MOL   H26518801   3.619   0.174   2.767 -0.8641  0.7773  1.5365
   29MOL   C26618802   4.191   6.921   2.487  0.3518  0.1548 -0.2381
   29MOL   C26718803   4.255   6.783   2.440 -0.5657 -0.3347 -0.5735
   29MOL   C26818804   4.399   6.754   2.495 -0.0703  0.0055  0.8459
   29MOL   C26918805   4.510   6.839   2.439  0.3956  0.1691  0.3134
   29MOL   C27018806   4.644   6.776   2.453 -0.3576 -0.1863 -0.4063
   29MOL   C27118807   4.761   6.873   2.418  0.3657 -0.1997 -0.4348
   29MOL   C27218808   4.785   6.888   2.265  0.2557 -0.5219  0.6635
   29MOL   C27318809   4.891   6.993   2.214 -0.0949 -0.4263  1.2030
   29MOL   C27418810   4.897   7.010   2.060 -0.9848 -0.0525 -0.4675
   29MOL   C27518811   5.004   7.115   2.007 -0.5805 -0.6663  0.2171
   29MOL   C27618812   5.150   7.074   2.059  0.2222  0.1302 -0.7414
   29MOL   H27718813   4.267   6.999   2.478  0.6245  0.2569  2.5403
   29MOL   H27818814   4.115   6.951   2.415 -0.6588  0.1614  0.8084
   29MOL   H27918815   4.188   6.699   2.457 -1.1581  0.4143  0.8589
   29MOL   H28018816   4.398   6.769   2.603  0.4426  1.4636  0.6622
   29MOL   H28118817   4.424   6.649   2.479  1.9853  0.5031  0.5580
   29MOL   H28218818   4.499   6.939   2.480 -2.5265 -0.1240  0.3805
   29MOL   H28318819   4.494   6.853   2.332 -0.7242  0.7930  0.5547
   29MOL   H28418820   4.652   6.687   2.392  1.9105  0.1592 -0.6536
   29MOL   H28518821   4.652   6.756   2.560 -3.8461 -0.5822 -0.1452
   29MOL   H28618822   4.855   6.848   2.467 -1.1170 -0.6851  2.3099
   29MOL   H28718823   4.745   6.969   2.467  1.3030  0.2761 -1.0512
   29MOL   H28818824   4.798   6.787   2.226 -0.6583 -0.4313  0.1104
   29MOL   H28918825   4.692   6.923   2.221  0.3084 -1.5324 -0.2675
   29MOL   H29018826   4.988   6.960   2.250  0.9394 -0.9423 -1.9488
   29MOL   H29118827   4.867   7.085   2.266  1.6753  0.3346  0.6811
   29MOL   H29218828   4.916   6.921   2.001 -2.3474 -0.0351 -0.9613
   29MOL   H29318829   4.806   7.059   2.024 -0.6256  0.8302 -0.1907
   29MOL   H29418830   4.965   7.210   2.041  2.0093  0.5622 -0.0725
   29MOL   H29518831   5.008   7.119   1.898 -2.3662 -1.4610  0.1109
   29MOL   H29618832   5.158   7.080   2.167 -1.9467 -0.2210 -0.5528
   29MOL   H29718833   5.227   7.140   2.017 -1.2483  2.3607  0.0190
   29MOL   H29818834   5.173   6.973   2.026 -2.5047 -1.3608  1.7779
   29MOL   C29918835   4.245   6.779   2.284  0.2918  0.3019 -0.3668
   29MOL   C30018836   4.114   6.728   2.211 -0.3997  0.2137 -0.0423
   29MOL   C30118837   4.121   6.580   2.179 -0.2498  0.3928  0.0371
   29MOL   C30218838   4.128   6.488   2.294 -0.0110 -0.0014 -0.1452
   29MOL   C30318839   4.124   6.340   2.259  0.0302 -0.7795 -0.4452
   29MOL   C30418840   4.148   6.239   2.373 -0.6040  0.3451 -0.3990
   29MOL   C30518841   4.152   6.094   2.322 -0.1938 -0.3191 -0.0389
   29MOL   C30618842   4.183   5.995   2.446  0.1823 -0.2554 -0.1050
   29MOL   C30718843   4.331   5.970   2.473  0.2443 -0.0032  0.2733
   29MOL   C30818844   4.356   5.861   2.577  0.0741 -0.1876  0.0340
   29MOL   C30918845   4.496   5.803   2.572 -0.2495  0.3815 -0.4329
   29MOL   H31018846   4.326   6.721   2.239 -0.7123 -0.8455 -0.7550
   29MOL   H31118847   4.274   6.875   2.241 -0.1927  1.1524  1.1928
   29MOL   H31218848   4.031   6.755   2.276 -1.2015 -0.7175 -0.6701
   29MOL   H31318849   4.034   6.557   2.118  0.3234 -0.7515 -0.3689
   29MOL   H31418850   4.204   6.555   2.113  0.5368  0.4683  0.9783
   29MOL   H31518851   4.214   6.505   2.359 -0.6788 -1.0229  1.0353
   29MOL   H31618852   4.044   6.502   2.361 -0.7517 -1.7093 -0.6712
   29MOL   H31718853   4.028   6.327   2.210 -0.5407 -1.5653  0.8362
   29MOL   H31818854   4.206   6.321   2.189  0.5991  1.5423 -0.4558
   29MOL   H31918855   4.075   6.251   2.454 -0.3400  0.5571 -0.1889
   29MOL   H32018856   4.245   6.270   2.412  0.1097 -0.4926 -1.5113
   29MOL   H32118857   4.058   6.071   2.272  0.3314  0.0061 -1.1978
   29MOL   H32218858   4.229   6.087   2.245 -0.4755  0.7619 -0.4204
   29MOL   H32318859   4.136   5.902   2.415 -1.5737 -0.2264  2.3088
   29MOL   H32418860   4.126   6.035   2.530 -0.8281 -1.6909 -0.0949
   29MOL   H32518861   4.386   6.061   2.499 -1.1960  1.3249 -1.2157
   29MOL   H32618862   4.394   5.935   2.391  2.9854  0.6404  2.0304
   29MOL   H32718863   4.284   5.781   2.560  0.0262 -0.0232 -0.5494
   29MOL   H32818864   4.335   5.903   2.675  1.3166 -0.9783  0.6477
   29MOL   H32918865   4.488   5.748   2.666 -1.1421 -1.0444 -1.3307
   29MOL   H33018866   4.519   5.740   2.486  0.4134 -3.5883  2.4659
   29MOL   H33118867   4.579   5.874   2.576 -0.3307  0.4547  0.0061
   29MOL   C33218868   4.092   6.808   2.084 -0.0529 -0.1513  0.4092
   29MOL   C33318869   3.949   6.811   2.018  0.4354  0.6522  0.5458
   29MOL   C33418870   3.954   6.773   1.869 -0.1425  0.1390 -0.4552
   29MOL   C33518871   3.987   6.621   1.837 -0.3581  0.0431  0.2523
   29MOL   C33618872   3.890   6.504   1.875 -0.5898 -0.5557 -0.3259
   29MOL   C33718873   3.933   6.375   1.814 -0.6935  0.0425  0.2630
   29MOL   C33818874   3.831   6.267   1.830 -0.2253  0.2545  0.2880
   29MOL   C33918875   3.844   6.181   1.953  0.2020  0.8767 -0.4574
   29MOL   C34018876   3.741   6.057   1.943  1.3212  0.4898 -0.7833
   29MOL   C34118877   3.731   5.966   2.068  0.5356 -0.1756  0.1500
   29MOL   C34218878   3.856   5.897   2.112 -0.2035  0.0006  0.4322
   29MOL   H34318879   4.119   6.909   2.112  3.0777 -1.1459  1.1938
   29MOL   H34418880   4.175   6.775   2.022 -0.0700  1.3793 -0.4452
   29MOL   H34518881   3.886   6.736   2.066 -0.5794  1.7833  1.0326
   29MOL   H34618882   4.031   6.837   1.825  0.6648 -0.2612  0.3431
   29MOL   H34718883   3.858   6.793   1.823  0.2049  1.4851 -0.6001
   29MOL   H34818884   3.998   6.613   1.729 -1.5649  1.7402 -0.0054
   29MOL   H34918885   4.079   6.597   1.890 -1.0321 -2.2954  0.4290
   29MOL   H35018886   3.868   6.485   1.980  2.0525 -1.0916  0.1481
   29MOL   H35118887   3.792   6.521   1.830 -1.3466  0.7223  1.7164
   29MOL   H35218888   4.024   6.342   1.863 -1.2478 -1.2865  0.4382
   29MOL   H35318889   3.963   6.395   1.711 -0.6900  0.2122  0.2966
   29MOL   H35418890   3.829   6.210   1.737  0.2774  0.8217 -0.0727
   29MOL   H35518891   3.733   6.315   1.836  0.1932  1.4730 -2.0024
   29MOL   H35618892   3.943   6.135   1.952 -0.8231 -1.4121  0.8668
   29MOL   H35718893   3.821   6.247   2.036 -0.1176 -1.1336  1.0877
   29MOL   H35818894   3.774   5.994   1.859  2.5999  2.5900 -1.9121
   29MOL   H35918895   3.640   6.086   1.916  0.7511 -0.0728  0.7318
   29MOL   H36018896   3.662   5.891   2.029 -0.7553  1.0993 -0.0645
   29MOL   H36118897   3.675   6.018   2.146  1.5307  0.9381  0.1367
   29MOL   H36218898   3.841   5.830   2.196  1.4697 -1.0958 -0.1141
   29MOL   H36318899   3.891   5.838   2.028 -1.3803  0.9832 -0.7602
   29MOL   H36418900   3.937   5.966   2.140  1.5046 -2.6919  2.3718
   29MOL   C36518901   3.890   6.950   2.040 -0.1798  0.8662  0.5800
   29MOL   C36618902   3.808   6.952   2.170  0.5017 -0.0846 -0.5991
   29MOL   C36718903   3.791   7.093   2.231 -0.1972 -0.0067 -0.8449
   29MOL   C36818904   3.928   7.169   2.248 -0.0818  0.0669 -0.3007
   29MOL   C36918905   3.892   7.279   2.358 -0.2055 -0.6144 -0.2964
   29MOL   C37018906   4.002   7.377   2.378 -0.2484  0.0569 -0.2971
   29MOL   C37118907   3.958   7.482   2.485 -0.0948 -0.3503 -0.1243
   29MOL   C37218908   4.052   7.603   2.499  0.5601  0.3416  0.4944
   29MOL   C37318909   4.003   0.003   2.605 -0.2998  0.6912 -0.3860
   29MOL   C37418910   4.091   0.130   2.589  0.0620 -0.3094 -0.7912
   29MOL   C37518911   4.066   0.230   2.702 -0.2747 -0.6181 -0.1572
   29MOL   H37618912   3.964   7.030   2.034 -1.4326  2.0417  0.5476
   29MOL   H37718913   3.826   6.972   1.956 -0.2142  1.5885  0.7923
   29MOL   H37818914   3.863   6.893   2.243  0.5557  0.1708 -0.4295
   29MOL   H37918915   3.747   7.084   2.331  0.7071 -1.0627 -0.5297
   29MOL   H38018916   3.724   7.158   2.175 -1.1408 -0.4793 -0.2866
   29MOL   H38118917   3.956   7.210   2.151  1.7692 -0.4777 -0.0233
   29MOL   H38218918   4.011   7.106   2.281 -1.6137 -0.8807  1.8671
   29MOL   H38318919   3.873   7.235   2.456 -1.4678 -2.4819 -1.3492
   29MOL   H38418920   3.805   7.340   2.333 -1.7353 -1.7369  2.0734
   29MOL   H38518921   4.003   7.430   2.283  0.4376 -0.9330 -0.8560
   29MOL   H38618922   4.096   7.322   2.393 -0.4966  0.0079  1.1670
   29MOL   H38718923   3.859   7.517   2.458 -0.2878 -0.1652  0.8024
   29MOL   H38818924   3.939   7.431   2.579 -2.9254  1.4415  0.3495
   29MOL   H38918925   4.072   7.635   2.397 -1.0286 -2.1049 -0.6451
   29MOL   H39018926   4.154   7.577   2.526  0.0840 -2.0697  0.0310
   29MOL   H39118927   3.898   0.029   2.590 -0.8801 -1.3438 -0.0390
   29MOL   H39218928   4.024   7.663   2.703  3.2569  1.5173 -0.7159
   29MOL   H39318929   4.196   0.103   2.591 -0.7408 -3.6190 -1.1090
   29MOL   H39418930   4.070   0.174   2.491 -2.3922 -2.2999 -1.2039
   29MOL   H39518931   4.133   0.316   2.700  0.5136 -1.1854  1.3228
   29MOL   H39618932   4.068   0.184   2.800  0.9066  0.1211  0.1756
   29MOL   H39718933   3.959   0.249   2.696  0.0404  1.7668  1.0061
   29MOL   C39818934   3.666   6.892   2.154  0.1426 -0.0419 -0.0821
   29MOL   C39918935   3.581   6.874   2.275 -0.0587 -0.2669  0.0580
   29MOL   C40018936   3.647   6.788   2.386 -0.0882 -0.0224 -0.6505
   29MOL   C40118937   3.683   6.640   2.340 -0.2500 -0.2809 -0.1149
   29MOL   C40218938   3.725   6.555   2.448 -0.2257 -0.2025 -0.5480
   29MOL   C40318939   3.739   6.407   2.392 -0.0635 -0.5681 -0.0186
   29MOL   C40418940   3.745   6.296   2.497 -0.2245 -0.2083  0.1757
   29MOL   C40518941   3.762   6.157   2.439 -0.2460  0.1986  0.2524
   29MOL   C40618942   3.751   6.027   2.531 -0.3213 -0.1880 -0.2436
   29MOL   C40718943   3.784   5.888   2.472 -0.4554 -0.3557 -0.5650
   29MOL   C40818944   3.782   5.766   2.567 -0.1269 -0.2677 -0.3199
   29MOL   H40918945   3.673   6.798   2.099 -1.9043 -0.8224  0.9296
   29MOL   H41018946   3.618   6.954   2.079  2.4428  3.1573  0.9977
   29MOL   H41118947   3.556   6.967   2.326 -0.7411  0.1986 -1.0841
   29MOL   H41218948   3.593   6.792   2.481 -0.4733  1.6385 -0.9131
   29MOL   H41318949   3.737   6.832   2.429 -1.0668  0.1180  1.3296
   29MOL   H41418950   3.594   6.594   2.298 -0.9169  0.1056  0.8612
   29MOL   H41518951   3.762   6.643   2.264 -0.7669 -2.9505 -0.7774
   29MOL   H41618952   3.830   6.572   2.472  0.4308 -1.4254 -2.4785
   29MOL   H41718953   3.666   6.577   2.537  0.4890 -1.9436  0.3817
   29MOL   H41818954   3.828   6.408   2.329  0.8206 -0.0388  1.2140
   29MOL   H41918955   3.659   6.372   2.328 -1.3612 -0.0118  1.2709
   29MOL   H42018956   3.840   6.306   2.549  0.2339 -2.5836 -0.1639
   29MOL   H42118957   3.669   6.296   2.575 -0.3955 -0.2734  0.0113
   29MOL   H42218958   3.853   6.153   2.379  1.0301 -1.9010  2.2642
   29MOL   H42318959   3.690   6.133   2.361 -0.4944 -1.8569  1.0876
   29MOL   H42418960   3.816   6.042   2.617 -0.8793 -0.5059  0.2352
   29MOL   H42518961   3.650   6.027   2.571 -0.3062 -0.7922 -0.2061
   29MOL   H42618962   3.879   5.891   2.419  0.4322  2.0917  1.1038
   29MOL   H42718963   3.716   5.884   2.387 -2.9429 -0.4589  1.3679
   29MOL   H42818964   3.730   5.680   2.524 -2.0633  0.8456 -0.2223
   29MOL   H42918965   3.740   5.801   2.661 -0.9033 -0.7635 -0.4835
   29MOL   H43018966   3.887   5.744   2.588 -0.7914 -1.7972  1.5209
   29MOL   C43118967   3.444   6.802   2.240 -0.3219 -0.0630 -0.6328
   29MOL   C43218968   3.356   6.885   2.142 -0.0078 -0.6791  0.1943
   29MOL   C43318969   3.286   7.013   2.202  0.8357  0.2079 -0.0938
   29MOL   C43418970   3.201   6.980   2.333  0.1013 -0.2938 -0.4799
   29MOL   C43518971   3.101   7.090   2.373 -0.1267 -0.6272  0.4752
   29MOL   C43618972   3.008   7.043   2.486 -0.2300 -0.2101 -0.0638
   29MOL   C43718973   2.892   6.948   2.453  0.2576 -0.1766 -0.1436
   29MOL   C43818974   2.787   6.941   2.566  0.3725 -0.1236  0.4192
   29MOL   C43918975   2.656   6.881   2.517  0.6080 -0.2583 -0.0613
   29MOL   C44018976   2.551   6.987   2.475 -0.0152  0.3384 -0.4935
   29MOL   C44118977   2.421   6.912   2.439  0.2688  0.1339  1.0370
   29MOL   H44218978   3.395   6.782   2.335 -1.5132 -1.1406 -1.4504
   29MOL   H44318979   3.461   6.710   2.184 -0.2924 -0.0928 -0.5751
   29MOL   H44418980   3.420   6.911   2.058  1.3840  1.1521  1.7769
   29MOL   H44518981   3.352   7.098   2.215 -0.4085  1.1578  0.0185
   29MOL   H44618982   3.222   7.053   2.123 -0.1676 -0.1467  0.5363
   29MOL   H44718983   3.266   6.955   2.416 -1.9165  1.0190  1.5535
   29MOL   H44818984   3.132   6.896   2.321  0.9731 -1.1039  0.1339
   29MOL   H44918985   3.044   7.125   2.287 -0.6729  0.4129  1.2496
   29MOL   H45018986   3.149   7.181   2.407 -2.5158  0.3371  1.4012
   29MOL   H45118987   2.962   7.129   2.533  0.4459 -0.1127  0.4251
   29MOL   H45218988   3.071   6.991   2.558 -0.0271  1.1679  0.7463
   29MOL   H45318989   2.908   6.844   2.428  2.9250 -0.4588  2.5683
   29MOL   H45418990   2.830   7.000   2.379  0.6937  0.1201 -0.2990
   29MOL   H45518991   2.824   6.875   2.645  0.0417  0.4000  1.0196
   29MOL   H45618992   2.769   7.041   2.605  0.5704 -0.5614  1.6504
   29MOL   H45718993   2.617   6.812   2.592  0.8007 -0.6529 -0.3228
   29MOL   H45818994   2.668   6.816   2.431 -2.7229  0.8344 -1.4319
   29MOL   H45918995   2.584   7.035   2.383  0.0155  1.1879 -0.0442
   29MOL   H46018996   2.524   7.058   2.553  1.0420 -1.7530  1.8344
   29MOL   H46118997   2.439   6.823   2.379 -1.5071  0.3669  0.0938
   29MOL   H46218998   2.362   6.874   2.523 -1.3826  1.1788  0.3905
   29MOL   H46318999   2.353   6.983   2.391 -0.3571 -1.1271  0.0207
   29MOL   C46419000   3.252   6.798   2.070 -0.8713 -0.1075  0.1261
   29MOL   C46519001   3.173   6.837   1.940  0.1174  0.2802  0.0616
   29MOL   C46619002   3.258   6.852   1.810  0.2574  0.5302  0.1881
   29MOL   C46719003   3.307   6.722   1.739  0.1347 -0.4926  0.2565
   29MOL   C46819004   3.325   6.734   1.589  0.5940 -0.2755  0.3212
   29MOL   C46919005   3.379   6.610   1.518 -0.3640 -0.6804  0.4718
   29MOL   C47019006   3.391   6.631   1.368  0.2354 -0.2450 -0.5780
   29MOL   C47119007   3.509   6.721   1.332 -0.4822 -0.2046  0.1570
   29MOL   C47219008   3.538   6.695   1.178 -0.1852  0.2730 -0.6255
   29MOL   C47319009   3.629   6.795   1.110 -0.2626 -0.2211  0.5138
   29MOL   C47419010   3.677   6.764   0.967 -0.2908  0.4993  0.3646
   29MOL   H47519011   3.176   6.765   2.142 -0.2939  0.5564  1.0497
   29MOL   H47619012   3.308   6.709   2.042 -0.3780  0.5957 -1.1727
   29MOL   H47719013   3.134   6.937   1.958 -1.6501 -0.2732 -0.6309
   29MOL   H47819014   3.341   6.919   1.830  0.6736  0.6652 -1.8375
   29MOL   H47919015   3.197   6.899   1.733  0.7241 -1.2673 -1.3334
   29MOL   H48019016   3.391   6.679   1.794  1.0827 -0.5782 -1.2329
   29MOL   H48119017   3.235   6.641   1.752  0.4110 -0.4540  2.1576
   29MOL   H48219018   3.390   6.821   1.583  1.8881 -0.9623  3.4055
   29MOL   H48319019   3.232   6.761   1.538 -0.4428  0.1837  2.4152
   29MOL   H48419020   3.479   6.597   1.560 -0.4373  0.0779  0.8919
   29MOL   H48519021   3.318   6.522   1.537 -0.5442 -0.8145 -0.7017
   29MOL   H48619022   3.401   6.530   1.330  0.6119 -0.6775  0.6372
   29MOL   H48719023   3.292   6.661   1.334  0.2710  0.6582  0.0996
   29MOL   H48819024   3.485   6.824   1.360 -0.0281  0.0084 -0.2317
   29MOL   H48919025   3.604   6.695   1.378 -1.6371 -0.9578  2.1364
   29MOL   H49019026   3.581   6.595   1.168 -1.7569 -0.5062  0.4095
   29MOL   H49119027   3.444   6.690   1.123 -0.0869 -0.2437 -0.7542
   29MOL   H49219028   3.568   6.886   1.110 -0.6950 -0.4446 -3.7554
   29MOL   H49319029   3.709   6.811   1.183 -0.2985  0.2100  0.4638
   29MOL   H49419030   3.682   6.655   0.961 -0.8184  0.4763  0.3347
   29MOL   H49519031   3.774   6.812   0.959 -2.0561  4.1260 -0.4642
   29MOL   H49619032   3.612   6.795   0.885 -1.1405  1.3055  1.3260
   29MOL   C49719033   3.037   6.764   1.911  0.0205  0.5185 -0.3432
   29MOL   C49819034   2.910   6.818   1.977  0.1731 -0.0891  0.6861
   29MOL   C49919035   2.812   6.703   1.983  0.3631  0.3653  0.2623
   29MOL   C50019036   2.809   6.648   2.129 -0.3819  0.7244 -0.6438
   29MOL   C50119037   2.711   6.542   2.157 -0.4166  1.1987  0.0699
   29MOL   C50219038   2.568   6.605   2.172  0.2421  0.0049  0.3237
   29MOL   C50319039   2.466   6.521   2.248 -0.6223  0.2809  0.3002
   29MOL   C50419040   2.324   6.576   2.223 -0.0470  0.7863 -0.1665
   29MOL   C50519041   2.225   6.515   2.318  0.2311 -0.0362  0.2234
   29MOL   C50619042   2.178   6.367   2.294  0.5408 -0.4423 -0.0497
   29MOL   C50719043   2.254   6.260   2.371 -0.0027 -0.3559  0.0413
   29MOL   H50819044   3.023   6.742   1.805 -2.1971 -0.7529  0.1966
   29MOL   H50919045   3.054   6.664   1.950  0.2120  0.3256 -0.9102
   29MOL   H51019046   2.945   6.844   2.077  1.2521  0.8280  0.0803
   29MOL   H51119047   2.831   6.615   1.922 -0.8054 -0.9354  1.7273
   29MOL   H51219048   2.717   6.742   1.945 -0.0014 -0.5338  0.2526
   29MOL   H51319049   2.793   6.722   2.208 -0.7095  0.5596 -0.5551
   29MOL   H51419050   2.911   6.614   2.146 -1.5146 -2.0075  1.1392
   29MOL   H51519051   2.712   6.461   2.084 -1.5000  1.2347  0.0104
   29MOL   H51619052   2.749   6.495   2.247 -0.5837 -0.9425 -0.9528
   29MOL   H51719053   2.582   6.707   2.209  0.4407  0.4936 -1.0511
   29MOL   H51819054   2.537   6.616   2.068 -0.3960 -5.9141 -0.2859
   29MOL   H51919055   2.474   6.420   2.210  0.6348 -0.1701  1.7224
   29MOL   H52019056   2.492   6.524   2.354  0.8693  1.3248 -0.0868
   29MOL   H52119057   2.283   6.560   2.124 -0.9888  1.6489  0.0716
   29MOL   H52219058   2.317   6.684   2.238  2.8166  1.1591 -1.2236
   29MOL   H52319059   2.140   6.583   2.316  1.1172  1.0480 -1.8973
   29MOL   H52419060   2.278   6.516   2.413 -1.4368 -0.9112  1.1850
   29MOL   H52519061   2.178   6.345   2.187 -2.7789 -0.8552 -0.0177
   29MOL   H52619062   2.079   6.354   2.336  0.3616  0.4670 -0.1950
   29MOL   H52719063   2.363   6.265   2.365  0.0523 -2.2212 -0.8245
   29MOL   H52819064   2.223   6.161   2.338  3.1512 -0.9144 -1.4448
   29MOL   H52919065   2.225   6.274   2.475 -0.4976 -2.2651  0.1773
   29MOL   C53019066   2.863   6.943   1.894 -0.4339 -0.0659 -0.1242
   29MOL   C53119067   2.801   7.055   1.977 -0.7314 -0.2748  0.3989
   29MOL   C53219068   2.666   7.030   2.038 -0.0062  0.0164  0.3841
   29MOL   C53319069   2.550   6.980   1.951 -0.2827 -0.4644  0.0097
   29MOL   C53419070   2.507   7.084   1.848 -0.2358  0.1255  0.1474
   29MOL   C53519071   2.356   7.071   1.808 -0.5145  0.5013  0.9173
   29MOL   C53619072   2.309   7.175   1.707 -0.5455 -0.1969  0.4661
   29MOL   C53719073   2.341   7.156   1.564 -0.4390 -0.4826  0.0892
   29MOL   C53819074   2.308   7.273   1.473  0.4156  0.1877 -0.3553
   29MOL   C53919075   2.369   7.261   1.334 -0.2624 -0.6408  0.2971
   29MOL   C54019076   2.330   7.377   1.244  0.8510 -0.0758  0.3485
   29MOL   H54119077   2.941   6.988   1.832  0.2113 -0.2652  0.5323
   29MOL   H54219078   2.796   6.905   1.817  0.1501 -0.4502 -0.4449
   29MOL   H54319079   2.867   7.070   2.063 -2.1924 -0.5783  1.5843
   29MOL   H54419080   2.642   7.123   2.088 -2.2965 -0.7000  0.6564
   29MOL   H54519081   2.686   6.952   2.111  0.3447 -0.1389  0.1230
   29MOL   H54619082   2.471   6.957   2.023 -0.7968  1.5071  0.1026
   29MOL   H54719083   2.582   6.883   1.912 -1.5707 -1.1408  0.5833
   29MOL   H54819084   2.565   7.076   1.756 -2.3166  1.2264 -1.2794
   29MOL   H54919085   2.512   7.188   1.879 -0.0005  0.1381  0.0701
   29MOL   H55019086   2.298   7.096   1.896  3.0538 -0.2419  3.5755
   29MOL   H55119087   2.337   6.967   1.782  1.3073 -0.0051  1.4832
   29MOL   H55219088   2.351   7.268   1.745 -1.5102 -0.2882  1.7890
   29MOL   H55319089   2.202   7.192   1.718 -0.4125 -0.8004  3.0675
   29MOL   H55419090   2.277   7.074   1.530 -0.9255  0.7742 -2.1648
   29MOL   H55519091   2.445   7.128   1.545 -0.0040 -0.5295  2.3899
   29MOL   H55619092   2.328   7.366   1.527  0.7705  0.1420 -0.4084
   29MOL   H55719093   2.200   7.267   1.461  0.3988 -0.1121 -0.0669
   29MOL   H55819094   2.330   7.164   1.301 -0.6085 -0.4645  0.1907
   29MOL   H55919095   2.477   7.258   1.341 -0.0377  0.5351 -2.0818
   29MOL   H56019096   2.223   7.391   1.226  0.5904 -0.1069  1.7752
   29MOL   H56119097   2.362   7.477   1.275  3.0821 -0.4695 -0.6245
   29MOL   H56219098   2.380   7.366   1.148  1.8805  1.9702  0.6244
   29MOL   C56319099   2.796   7.188   1.888  0.2263 -0.8099  0.2330
   29MOL   C56419100   2.936   7.262   1.902 -0.3387  0.3305  0.1375
   29MOL   C56519101   2.944   7.336   2.034  0.4272 -0.3928 -0.7235
   29MOL   C56619102   3.086   7.353   2.097  0.6392 -0.5076 -0.2366
   29MOL   C56719103   3.071   7.437   2.229  0.4855  0.0653 -0.1616
   29MOL   C56819104   3.209   7.444   2.295 -0.1561 -0.8561  0.2780
   29MOL   C56919105   3.199   7.456   2.449  0.3573 -0.1788  0.1462
   29MOL   C57019106   3.329   7.419   2.515  0.2445  0.1769  0.2221
   29MOL   C57119107   3.356   7.265   2.530 -0.5739 -0.0428  0.1454
   29MOL   C57219108   3.494   7.246   2.596  0.3295  0.4354  0.0633
   29MOL   C57319109   3.520   7.100   2.645  0.4690 -0.3332  0.0027
   29MOL   H57419110   2.718   7.256   1.922 -0.1431 -1.5532  0.8633
   29MOL   H57519111   2.770   7.167   1.785 -2.3134  2.6595  0.0733
   29MOL   H57619112   3.014   7.187   1.894 -1.0990 -0.1857 -3.1171
   29MOL   H57719113   2.876   7.284   2.101  0.4186  2.9215  2.0109
   29MOL   H57819114   2.888   7.428   2.018 -1.3392 -1.0504  1.4601
   29MOL   H57919115   3.142   7.418   2.030  2.0530 -1.8194 -0.3504
   29MOL   H58019116   3.141   7.260   2.102 -0.0190 -0.9299 -0.7930
   29MOL   H58119117   3.008   7.391   2.304  1.0164 -0.9940 -0.3571
   29MOL   H58219118   3.048   7.543   2.222 -0.0473  0.4565  5.6117
   29MOL   H58319119   3.272   7.359   2.268 -2.1252 -2.2074 -0.1825
   29MOL   H58419120   3.258   7.538   2.270 -1.2158 -0.4869 -0.4149
   29MOL   H58519121   3.173   7.559   2.475 -1.2846 -0.2903 -1.0520
   29MOL   H58619122   3.121   7.396   2.494  1.3544 -0.2079  1.8831
   29MOL   H58719123   3.323   7.464   2.614  0.6564  1.3081 -0.2652
   29MOL   H58819124   3.411   7.466   2.463 -0.7471 -0.4873 -1.9884
   29MOL   H58919125   3.358   7.205   2.439  0.2552 -1.0088  0.7808
   29MOL   H59019126   3.283   7.223   2.600 -1.2357  3.5554  1.7057
   29MOL   H59119127   3.486   7.311   2.682 -1.1542 -0.7363  0.8498
   29MOL   H59219128   3.578   7.267   2.529  0.6845  0.8713  0.6445
   29MOL   H59319129   3.506   7.025   2.567 -0.9889  0.4664 -0.5289
   29MOL   H59419130   3.622   7.103   2.683  1.8151 -1.3918 -3.3294
   29MOL   H59519131   3.442   7.070   2.715 -0.4798 -0.9368 -1.2816
   29MOL   C59619132   2.970   7.357   1.779  0.9546 -0.0224 -0.7020
   29MOL   C59719133   2.998   7.277   1.649  0.7806 -0.5889  0.0784
   29MOL   C59819134   3.148   7.274   1.608  0.1912  0.3017  0.0845
   29MOL   C59919135   3.236   7.226   1.720 -0.5928  0.5378  0.2875
   29MOL   C60019136   3.389   7.241   1.688 -0.2304  0.0143  0.6153
   29MOL   C60119137   3.489   7.193   1.791  0.6467 -0.2654  0.3208
   29MOL   C60219138   3.474   7.257   1.936 -0.4659 -0.3764  0.1001
   29MOL   C60319139   3.527   7.400   1.937 -1.0121  0.3632  0.3188
   29MOL   C60419140   3.506   7.464   2.076 -0.2138  0.7906  0.0224
   29MOL   C60519141   3.564   7.607   2.088  0.1410  0.1058 -0.1115
   29MOL   C60619142   3.574   7.664   2.223 -0.2251 -0.5183  0.3415
   29MOL   H60719143   2.885   7.425   1.779  0.9437 -0.0023  1.3251
   29MOL   H60819144   3.055   7.418   1.808  0.6880  0.3365 -0.6719
   29MOL   H60919145   2.967   7.172   1.650 -0.9142 -0.1131  0.0485
   29MOL   H61019146   3.177   7.377   1.591 -0.2156  0.4863  0.5231
   29MOL   H61119147   3.162   7.213   1.518  0.7688 -1.5672  1.3972
   29MOL   H61219148   3.215   7.123   1.750  0.5226 -0.1856 -1.3652
   29MOL   H61319149   3.217   7.276   1.815 -1.2102  1.0098 -0.0796
   29MOL   H61419150   3.399   7.348   1.670  0.1999 -0.2391 -0.7295
   29MOL   H61519151   3.424   7.195   1.596  3.7836  1.4405  1.3013
   29MOL   H61619152   3.482   7.085   1.807  0.5266 -0.2333  0.4811
   29MOL   H61719153   3.593   7.212   1.764  0.8542  1.1412  2.0482
   29MOL   H61819154   3.531   7.198   2.008 -0.1872  1.7265  1.6755
   29MOL   H61919155   3.369   7.256   1.967 -0.2409 -0.3518  0.8738
   29MOL   H62019156   3.474   7.451   1.856 -0.0713 -1.3585 -1.4430
   29MOL   H62119157   3.628   7.401   1.897 -0.7013 -0.2536  1.0709
   29MOL   H62219158   3.400   7.466   2.102  0.1951 -0.8920  2.0170
   29MOL   H62319159   3.534   7.396   2.157  1.9719 -1.4873 -2.5138
   29MOL   H62419160   3.492   7.671   2.036  0.4511 -0.6193 -1.4711
   29MOL   H62519161   3.662   7.618   2.042  0.1198  0.9677  0.0420
   29MOL   H62619162   3.629   7.585   2.274  1.7626 -0.4431 -1.6297
   29MOL   H62719163   3.618   0.059   2.238  0.3248 -0.7397  0.1923
   29MOL   H62819164   3.473   7.664   2.264  0.2690  1.3763  1.6366
   29MOL   C62919165   2.917   7.331   1.531  0.1326 -0.1762 -0.3462
   29MOL   C63019166   2.930   7.245   1.394  0.2262  0.5152 -0.0109
   29MOL   C63119167   2.817   7.266   1.292 -0.2590  0.0345 -0.1954
   29MOL   C63219168   2.837   7.184   1.168 -0.6915  0.4690  0.4511
   29MOL   C63319169   2.733   7.219   1.067 -0.4267 -0.1764 -0.0545
   29MOL   C63419170   2.752   7.143   0.937  0.2056 -0.0015 -0.2814
   29MOL   C63519171   2.636   7.170   0.843 -0.0189 -0.4780 -0.0662
   29MOL   C63619172   2.621   7.317   0.810 -1.2310  0.0966 -0.6369
   29MOL   C63719173   2.510   7.353   0.708 -0.5464 -0.4635 -0.6035
   29MOL   C63819174   2.369   7.320   0.755  0.2066 -0.3962  0.7996
   29MOL   C63919175   2.262   7.377   0.661 -0.1545 -0.7506 -0.5462
   29MOL   H64019176   2.811   7.326   1.556  0.6115 -3.4783  1.2949
   29MOL   H64119177   2.939   7.436   1.513 -0.3856 -0.2743 -1.6195
   29MOL   H64219178   3.024   7.271   1.346  0.7386 -0.2813  0.5430
   29MOL   H64319179   2.719   7.242   1.334  0.8782 -2.2695  1.2730
   29MOL   H64419180   2.817   7.373   1.273  0.6499  0.3283  1.3561
   29MOL   H64519181   2.829   7.079   1.196 -0.7647  0.2928 -0.2431
   29MOL   H64619182   2.934   7.186   1.119 -1.8128 -1.5563 -1.9712
   29MOL   H64719183   2.723   7.326   1.050 -2.1345 -0.4881 -1.1637
   29MOL   H64819184   2.636   7.199   1.113  0.0893  0.1327  1.1850
   29MOL   H64919185   2.772   7.038   0.960  0.0039 -0.3102 -1.4917
   29MOL   H65019186   2.844   7.177   0.890  0.3085  0.0330 -0.0548
   29MOL   H65119187   2.542   7.133   0.885  0.1681 -0.0571  0.7468
   29MOL   H65219188   2.662   7.116   0.752  0.1792 -1.5593  0.6202
   29MOL   H65319189   2.713   7.348   0.761 -1.3953 -0.0767 -1.0593
   29MOL   H65419190   2.601   7.384   0.894  0.4492  2.4009 -2.0340
   29MOL   H65519191   2.527   7.320   0.606 -1.3730 -1.9850 -0.2481
   29MOL   H65619192   2.520   7.462   0.713  0.1153 -0.4795 -1.4500
   29MOL   H65719193   2.358   7.357   0.857  0.1235 -0.1072  0.6867
   29MOL   H65819194   2.354   7.212   0.763 -2.8541 -0.0309  0.8049
   29MOL   H65919195   2.166   7.361   0.710 -0.0528  0.9187  0.2051
   29MOL   H66019196   2.268   7.335   0.561 -2.8470  0.1636 -1.1445
   29MOL   H66119197   2.269   7.485   0.670 -0.2315 -0.8391  0.6139
   29MOL   H66219198   2.935   7.139   1.419 -1.9865 -0.1091 -2.0728
   30MOL     C119199   6.539   6.091   5.145 -0.1551  0.7261 -0.1247
   30MOL     C219200   6.428   6.163   5.062  0.3829  0.5033 -0.0704
   30MOL     C319201   6.451   6.311   5.050  0.7861 -0.4670  0.3416
   30MOL     C419202   6.465   6.396   5.177 -0.3949 -0.9435  0.2334
   30MOL     C519203   6.491   6.544   5.149  0.6474 -0.2266  0.2265
   30MOL     C619204   6.496   6.631   5.274  0.2391  0.5243 -0.4627
   30MOL     C719205   6.561   6.772   5.258  0.1482  0.4087  0.6638
   30MOL     C819206   6.486   6.855   5.160 -0.7261 -0.0652  0.1870
   30MOL     C919207   6.546   6.993   5.157 -0.6296  0.2856  0.0033
   30MOL    C1019208   6.488   7.075   5.035 -0.4341 -0.3543  0.2297
   30MOL    C1119209   6.544   7.212   5.015  0.0026  0.1544 -0.8037
   30MOL    H1219210   6.571   6.134   5.239  0.6603 -0.8743  0.3534
   30MOL    H1319211   6.634   6.090   5.091  1.3453 -0.9883  2.4169
   30MOL    H1419212   6.330   6.164   5.109  1.9548  0.7467  3.3351
   30MOL    H1519213   6.365   6.337   4.989  0.8227 -1.1028  0.0203
   30MOL    H1619214   6.549   6.332   5.008  0.0838  2.3084 -0.0315
   30MOL    H1719215   6.543   6.364   5.246 -0.6627 -0.0032  0.9869
   30MOL    H1819216   6.372   6.379   5.232 -1.1028  0.5527 -0.4742
   30MOL    H1919217   6.578   6.561   5.085  0.0025  0.5000 -0.4671
   30MOL    H2019218   6.397   6.563   5.097  0.2027  0.4947  1.3039
   30MOL    H2119219   6.555   6.574   5.345 -0.7350  0.0468 -0.0279
   30MOL    H2219220   6.400   6.627   5.325 -1.3390 -0.1271 -3.3482
   30MOL    H2319221   6.554   6.814   5.359 -0.7205  0.1680  0.7045
   30MOL    H2419222   6.667   6.752   5.242  0.8624  2.9038  1.8829
   30MOL    H2519223   6.380   6.864   5.187 -0.4998  0.0976  1.0465
   30MOL    H2619224   6.478   6.808   5.062  1.9863 -2.6852  1.1583
   30MOL    H2719225   6.652   6.984   5.136 -0.2465 -0.4320  2.0809
   30MOL    H2819226   6.528   7.050   5.249  0.6764 -0.9459  1.0445
   30MOL    H2919227   6.380   7.076   5.052 -0.3956  0.2605  0.4129
   30MOL    H3019228   6.494   7.017   4.943 -1.8322 -2.1512  1.2298
   30MOL    H3119229   6.546   7.262   5.112 -1.0943 -0.6359 -0.3687
   30MOL    H3219230   6.652   7.209   4.995  0.1642 -0.9267  0.1863
   30MOL    H3319231   6.493   7.263   4.934  0.2105 -0.6660 -1.4555
   30MOL    H3419232   6.521   5.983   5.154 -1.3635  0.8009 -1.3590
   30MOL    C3519233   6.383   6.086   4.929  0.6676 -0.3110 -0.6301
   30MOL    C3619234   6.499   6.055   4.828 -0.6600 -0.2100  0.0732
   30MOL    C3719235   6.451   5.931   4.745 -0.3652  0.7849 -0.0063
   30MOL    C3819236   6.315   5.952   4.668  0.3206  0.4324  0.2030
   30MOL    C3919237   6.259   5.820   4.606 -0.1124  0.0042 -0.2844
   30MOL    C4019238   6.118   5.842   4.539 -0.0552 -0.3951 -0.1281
   30MOL    C4119239   6.052   5.710   4.483  0.0268 -0.5754 -0.7413
   30MOL    C4219240   5.915   5.735   4.410 -0.7030 -0.0690  0.7553
   30MOL    C4319241   5.845   5.604   4.370 -0.3101 -0.6195  0.5851
   30MOL    C4419242   5.702   5.638   4.319  1.0627  0.2964  0.1673
   30MOL    C4519243   5.614   5.512   4.304  0.0250 -0.0603  0.0827
   30MOL    H4619244   6.311   6.151   4.880  0.6215  0.0548 -0.0853
   30MOL    H4719245   6.333   5.993   4.958  2.3713 -0.9642  0.3516
   30MOL    H4819246   6.587   6.026   4.886 -0.1213  3.8298  1.4929
   30MOL    H4919247   6.526   5.891   4.678 -0.2644  0.4132  0.3210
   30MOL    H5019248   6.450   5.846   4.814  0.5681  1.2689  0.6099
   30MOL    H5119249   6.322   6.030   4.592  0.4822 -0.4877 -0.7417
   30MOL    H5219250   6.241   6.003   4.730 -0.8771  0.2201 -1.0121
   30MOL    H5319251   6.260   5.736   4.676  1.3409  0.4820  0.2948
   30MOL    H5419252   6.330   5.773   4.538  0.8180 -1.0550  1.3619
   30MOL    H5519253   6.112   5.918   4.461  0.3030  1.6843  1.7937
   30MOL    H5619254   6.058   5.876   4.624 -0.9768  1.4635 -1.4953
   30MOL    H5719255   6.129   5.655   4.430 -0.0537 -0.9157 -0.5060
   30MOL    H5819256   6.050   5.636   4.563  1.8539  0.4107  0.2646
   30MOL    H5919257   5.944   5.801   4.328 -0.5847 -2.4095 -1.1738
   30MOL    H6019258   5.847   5.791   4.474 -2.1406 -0.0945 -0.6913
   30MOL    H6119259   5.834   5.519   4.438 -0.3608 -0.3144  0.9572
   30MOL    H6219260   5.908   5.552   4.297  0.0163 -0.3868  0.7001
   30MOL    H6319261   5.646   5.718   4.368 -0.3374 -0.5331 -0.0355
   30MOL    H6419262   5.704   5.675   4.217 -1.3559 -0.1769 -0.1016
   30MOL    H6519263   5.513   5.531   4.269  0.1051  0.9723  0.3669
   30MOL    H6619264   5.666   5.456   4.226  1.8880  2.3830 -0.5032
   30MOL    H6719265   5.617   5.463   4.402 -1.5816  0.5597  0.4599
   30MOL    C6819266   6.537   6.174   4.739 -0.7947 -0.0108  0.6571
   30MOL    C6919267   6.627   6.158   4.610  0.4475 -0.6806  0.3408
   30MOL    C7019268   6.585   6.262   4.502 -0.8098 -0.3085 -0.5879
   30MOL    C7119269   6.437   6.263   4.435  0.7483 -0.0199 -0.0552
   30MOL    C7219270   6.420   6.150   4.341 -0.1928 -0.5576  0.2971
   30MOL    C7319271   6.292   6.143   4.258  0.6263 -0.3136 -0.0348
   30MOL    C7419272   6.295   6.029   4.157 -0.5085 -0.0535  0.1950
   30MOL    C7519273   6.166   5.985   4.085 -0.7174 -0.1510 -0.5593
   30MOL    C7619274   6.191   5.879   3.974  0.3620 -0.2638 -0.5056
   30MOL    C7719275   6.198   5.734   4.024 -0.2563 -1.0015  0.8427
   30MOL    C7819276   6.053   5.672   4.041  0.2002  0.4422 -0.4936
   30MOL    H7919277   6.567   6.259   4.799  1.2729  0.0577 -0.4241
   30MOL    H8019278   6.443   6.210   4.698 -1.6700 -3.4251 -0.4783
   30MOL    H8119279   6.602   6.063   4.563 -1.0603 -1.2943  2.3079
   30MOL    H8219280   6.658   6.267   4.422 -1.4419  0.6973 -1.1079
   30MOL    H8319281   6.608   6.354   4.554 -0.9606 -1.5978  1.8544
   30MOL    H8419282   6.361   6.256   4.513  2.6600 -2.4431  1.6526
   30MOL    H8519283   6.425   6.361   4.389  1.8866  0.6316  1.0291
   30MOL    H8619284   6.443   6.054   4.389 -2.3708 -1.1091  0.2785
   30MOL    H8719285   6.506   6.164   4.275  1.5594  0.2719  2.6706
   30MOL    H8819286   6.201   6.115   4.311 -0.6487  1.3234 -1.2857
   30MOL    H8919287   6.269   6.235   4.204  0.5754 -0.2623  0.0749
   30MOL    H9019288   6.322   5.934   4.203 -1.3227  0.3755  1.5799
   30MOL    H9119289   6.358   6.045   4.069 -0.3868  0.0584  0.3011
   30MOL    H9219290   6.098   5.948   4.161 -1.0185 -2.4850 -1.9323
   30MOL    H9319291   6.127   6.080   4.046 -1.4083 -0.6266 -1.0461
   30MOL    H9419292   6.096   5.888   3.920  0.3862  0.3933 -0.4543
   30MOL    H9519293   6.277   5.916   3.917  0.8237  0.7527  0.8377
   30MOL    H9619294   6.267   5.685   3.956 -2.4167  0.6481 -2.7131
   30MOL    H9719295   6.238   5.738   4.125 -1.7613 -1.7661  1.4756
   30MOL    H9819296   5.994   5.736   4.106  0.7201  0.6158 -0.1982
   30MOL    H9919297   6.056   5.570   4.079 -0.2512 -0.2412 -2.2018
   30MOL   H10019298   5.997   5.660   3.947 -0.0431 -0.2812 -0.2611
   30MOL   C10119299   6.780   6.171   4.640  0.6686 -0.2814  0.8448
   30MOL   C10219300   6.856   6.045   4.681  0.2665 -0.9248 -0.5960
   30MOL   C10319301   6.981   6.073   4.772 -0.3414 -0.3109 -0.2925
   30MOL   C10419302   7.084   6.172   4.724 -0.9887 -0.1167 -0.0140
   30MOL   C10519303   7.185   6.242   4.822 -0.0569 -0.5969  0.4012
   30MOL   C10619304   7.270   6.152   4.912 -0.2420 -0.1436 -0.3676
   30MOL   C10719305   7.337   6.241   5.016  0.3151  0.6105 -0.5309
   30MOL   C10819306   7.407   6.156   5.137  0.1728  0.3108  0.3092
   30MOL   C10919307   7.522   6.068   5.083  0.1838  0.0490  0.2477
   30MOL   C11019308   7.634   6.146   5.012  0.4777  0.9040 -0.8630
   30MOL   C11119309   0.023   6.198   5.124 -0.5032 -0.1841 -0.1931
   30MOL   H11219310   6.835   6.219   4.559  1.4701 -2.5446  0.0078
   30MOL   H11319311   6.774   6.242   4.722  1.5849 -0.4493  1.0604
   30MOL   H11419312   6.798   5.979   4.745  1.0724  0.0150  1.1460
   30MOL   H11519313   6.941   6.097   4.871 -0.7563 -1.2015 -0.2339
   30MOL   H11619314   7.037   5.983   4.798  1.8029  1.3690  1.0803
   30MOL   H11719315   7.144   6.118   4.650  2.0355  1.1920  1.3687
   30MOL   H11819316   7.039   6.255   4.669  0.2913  1.0281  0.6040
   30MOL   H11919317   7.248   6.311   4.766  0.2476  2.0269  3.8495
   30MOL   H12019318   7.127   6.299   4.893 -0.0125  0.1112 -0.1264
   30MOL   H12119319   7.208   6.083   4.969 -0.0636 -0.8017 -0.9626
   30MOL   H12219320   7.339   6.093   4.852 -0.2053  0.1096 -0.5743
   30MOL   H12319321   7.258   6.298   5.065  0.2240  0.7244 -0.8118
   30MOL   H12419322   7.413   6.303   4.967  1.0757  0.6599  0.6931
   30MOL   H12519323   7.433   6.230   5.213 -0.4621  1.3502 -0.4643
   30MOL   H12619324   7.334   6.099   5.195 -1.0268  0.9725 -0.5228
   30MOL   H12719325   7.551   6.004   5.166 -0.8553  2.2943  2.4141
   30MOL   H12819326   7.479   6.001   5.009  0.6869 -2.2231  1.9468
   30MOL   H12919327   7.603   6.219   4.937  2.3150  1.0441 -1.5056
   30MOL   H13019328   7.693   6.070   4.961  1.5470  0.7855  0.5332
   30MOL   H13119329   0.120   6.226   5.084 -0.5917 -0.8380 -0.8870
   30MOL   H13219330   7.702   6.278   5.194  1.4462 -0.2068  0.5262
   30MOL   H13319331   0.048   6.116   5.190 -0.6293 -0.3785 -0.3856
   30MOL   C13419332   6.898   5.965   4.551 -0.1138 -0.1632 -0.2499
   30MOL   C13519333   6.815   5.839   4.524 -0.1830 -0.0122 -0.4749
   30MOL   C13619334   6.851   5.728   4.626  0.0756 -0.2699  0.4391
   30MOL   C13719335   6.748   5.616   4.645  0.4143 -0.5210  0.3185
   30MOL   C13819336   6.806   5.483   4.691 -0.7312 -0.1107 -0.0408
   30MOL   C13919337   6.696   5.376   4.665 -0.0077  0.3662  0.5617
   30MOL   C14019338   6.727   5.232   4.719 -0.0677  0.2217 -0.2399
   30MOL   C14119339   6.613   5.146   4.679 -0.0256  1.0661  0.2173
   30MOL   C14219340   6.623   5.000   4.736 -0.1095  0.5176 -0.4167
   30MOL   C14319341   6.520   4.903   4.681 -0.2447 -0.1835  0.1176
   30MOL   C14419342   6.401   4.887   4.767  0.6341 -0.2950 -0.1341
   30MOL   H14519343   6.899   6.034   4.466 -1.1779  0.1073 -0.0524
   30MOL   H14619344   7.005   5.944   4.564 -0.0701 -0.0870 -0.4923
   30MOL   H14719345   6.710   5.867   4.535 -0.4285 -1.3731  0.8273
   30MOL   H14819346   6.858   5.766   4.728 -0.6233 -0.1942  0.4683
   30MOL   H14919347   6.949   5.686   4.604  0.3903  0.7105 -0.0504
   30MOL   H15019348   6.668   5.646   4.713 -0.3171 -3.1107  0.6619
   30MOL   H15119349   6.695   5.598   4.551 -0.1635  1.7004  0.1757
   30MOL   H15219350   6.894   5.473   4.628 -1.7386  0.7344 -1.6289
   30MOL   H15319351   6.829   5.496   4.797  0.2855 -0.8549 -0.1632
   30MOL   H15419352   6.600   5.409   4.707 -0.2204  1.1825 -0.5250
   30MOL   H15519353   6.662   5.376   4.562  1.9929 -0.2343 -0.1149
   30MOL   H15619354   6.820   5.207   4.668 -0.3950  2.3044 -1.9090
   30MOL   H15719355   6.737   5.227   4.828  0.6061  1.5945 -0.2159
   30MOL   H15819356   6.520   5.190   4.715 -0.9377  0.3888 -1.2585
   30MOL   H15919357   6.615   5.129   4.571 -1.7357  1.0107  0.1721
   30MOL   H16019358   6.720   4.957   4.709  1.0436  2.9095 -0.2528
   30MOL   H16119359   6.619   5.004   4.845 -1.3923  0.7558 -0.4726
   30MOL   H16219360   6.476   4.943   4.590  0.8358  1.5619  0.3444
   30MOL   H16319361   6.574   4.809   4.677 -2.0069 -1.1398 -1.5721
   30MOL   H16419362   6.359   4.985   4.789 -2.1491 -1.5145  0.1323
   30MOL   H16519363   6.441   4.851   4.862 -1.6402  1.9890  1.7499
   30MOL   H16619364   6.325   4.820   4.727  0.3332 -0.0843  0.0838
   30MOL   C16719365   6.838   5.779   4.383  0.7356 -0.1915  1.0175
   30MOL   C16819366   6.758   5.856   4.277  0.7660  0.3031  0.6193
   30MOL   C16919367   6.617   5.802   4.252 -0.2423 -0.3631 -0.3818
   30MOL   C17019368   6.616   5.665   4.177 -0.0099 -0.5753 -0.2865
   30MOL   C17119369   6.500   5.562   4.209  0.3932  0.3586 -0.3731
   30MOL   C17219370   6.486   5.516   4.361  0.2579 -0.2053 -0.2225
   30MOL   C17319371   6.359   5.436   4.385 -0.0799  0.1964 -0.0404
   30MOL   C17419372   6.324   5.323   4.286 -0.2563  0.3726  0.0508
   30MOL   C17519373   6.198   5.234   4.313 -0.5954  0.0680 -0.7932
   30MOL   C17619374   6.069   5.299   4.279  0.3019  0.0712  0.2736
   30MOL   C17719375   5.951   5.195   4.267 -0.2525 -0.2563  0.7666
   30MOL   H17819376   6.946   5.769   4.369  0.3553 -1.2338 -1.3708
   30MOL   H17919377   6.796   5.679   4.384 -0.8067  0.3794 -2.0759
   30MOL   H18019378   6.735   5.957   4.312 -0.1464  0.5307 -0.6154
   30MOL   H18119379   6.556   5.879   4.205  1.4108  1.2679  0.0803
   30MOL   H18219380   6.572   5.777   4.348 -0.2811  1.0438 -0.0240
   30MOL   H18319381   6.606   5.684   4.070 -0.3059 -0.6457 -0.2701
   30MOL   H18419382   6.710   5.610   4.174 -1.7365 -3.7672  1.5542
   30MOL   H18519383   6.492   5.474   4.145 -0.4161 -1.9965  2.8481
   30MOL   H18619384   6.406   5.606   4.176 -0.5757 -3.8077 -3.6535
   30MOL   H18719385   6.574   5.455   4.382  2.7209  2.5681 -2.0325
   30MOL   H18819386   6.497   5.603   4.425  2.1399 -0.8418  0.3653
   30MOL   H18919387   6.271   5.501   4.376 -0.9755 -1.1893 -1.5463
   30MOL   H19019388   6.362   5.390   4.483 -1.4182  2.7163  1.2399
   30MOL   H19119389   6.327   5.357   4.182 -2.5845 -0.2071 -0.2512
   30MOL   H19219390   6.415   5.265   4.292  0.0958  1.0089  0.9658
   30MOL   H19319391   6.198   5.229   4.422 -3.1927  0.5674 -0.7452
   30MOL   H19419392   6.211   5.130   4.281  2.0616  0.1511 -0.0870
   30MOL   H19519393   6.088   5.351   4.185 -1.2447  1.6094  0.7835
   30MOL   H19619394   6.044   5.373   4.355  0.9024  1.1113 -0.5207
   30MOL   H19719395   5.937   5.136   4.357 -1.3711 -0.6682  0.3300
   30MOL   H19819396   5.998   5.125   4.198  0.7163 -1.9805  3.1096
   30MOL   H19919397   5.861   5.234   4.218 -1.3505 -1.8744  1.4393
   30MOL   C20019398   6.829   5.871   4.141  0.2347  0.7329 -0.1633
   30MOL   C20119399   6.934   5.982   4.144  0.4087  0.2652 -0.0395
   30MOL   C20219400   6.876   6.127   4.162 -0.3941  0.3076 -0.1189
   30MOL   C20319401   6.762   6.173   4.075  0.0277  0.6487 -0.2954
   30MOL   C20419402   6.722   6.318   4.101 -0.3781 -0.3490 -0.6060
   30MOL   C20519403   6.606   6.369   4.014 -0.1170 -0.2229 -1.1147
   30MOL   C20619404   6.622   6.360   3.863  0.6087 -0.1892  0.0232
   30MOL   C20719405   6.530   6.448   3.774  0.5548  0.6627 -0.2183
   30MOL   C20819406   6.382   6.405   3.777  0.0031 -0.8313 -0.3258
   30MOL   C20919407   6.296   6.484   3.684  0.9277 -0.3215  0.1748
   30MOL   C21019408   6.156   6.426   3.661 -0.2550 -0.2612 -0.2329
   30MOL   H21119409   6.883   5.777   4.127 -1.0361  0.0039 -0.3107
   30MOL   H21219410   6.759   5.901   4.063 -3.1292  1.3489  2.9704
   30MOL   H21319411   6.998   5.963   4.230  2.6780 -2.6242 -2.2571
   30MOL   H21419412   6.961   6.196   4.154  0.2987 -0.1986  2.4630
   30MOL   H21519413   6.849   6.140   4.267  1.7462 -2.4979  0.8403
   30MOL   H21619414   6.675   6.110   4.095 -0.6400  1.5505 -0.3506
   30MOL   H21719415   6.775   6.166   3.967 -1.9737  1.2522 -0.5961
   30MOL   H21819416   6.811   6.379   4.092 -1.0389  0.7621  0.2607
   30MOL   H21919417   6.696   6.319   4.207 -0.0425 -0.2278 -0.5248
   30MOL   H22019418   6.519   6.307   4.039  0.3690  0.3766  2.2513
   30MOL   H22119419   6.595   6.473   4.043 -1.1794 -0.2919 -1.2201
   30MOL   H22219420   6.628   6.258   3.823 -0.7299 -0.3807  0.3053
   30MOL   H22319421   6.728   6.386   3.857  0.0516  2.5210  1.4666
   30MOL   H22419422   6.561   6.434   3.671  1.0958  2.0082 -0.2408
   30MOL   H22519423   6.543   6.554   3.795 -1.5001  0.5504  1.9382
   30MOL   H22619424   6.337   6.403   3.877 -1.2896 -0.6567 -0.8947
   30MOL   H22719425   6.379   6.300   3.747 -0.2397 -0.2265 -2.4844
   30MOL   H22819426   6.292   6.581   3.732  1.2265 -1.0292  1.6650
   30MOL   H22919427   6.335   6.495   3.583 -1.7154  1.3819 -0.7209
   30MOL   H23019428   6.103   6.478   3.581 -1.8572 -0.9963  0.3385
   30MOL   H23119429   6.106   6.418   3.757 -0.6004 -0.3511 -0.4202
   30MOL   H23219430   6.172   6.326   3.619  0.1570  0.2317 -1.2804
   30MOL   C23319431   7.028   5.999   4.022  0.4430 -0.1264  0.0824
   30MOL   C23419432   7.110   5.873   3.981  0.1551  0.1093  0.9396
   30MOL   C23519433   7.190   5.807   4.099  0.6266  0.2409  0.2120
   30MOL   C23619434   7.310   5.890   4.148  0.2187  0.7416 -0.8104
   30MOL   C23719435   7.382   5.832   4.275  0.2647  0.2229  0.8735
   30MOL   C23819436   7.291   5.811   4.399 -0.0143 -0.4279  0.8025
   30MOL   C23919437   7.367   5.768   4.525  0.3919  0.3903  0.6648
   30MOL   C24019438   7.295   5.794   4.663  0.0977  0.3507 -0.7161
   30MOL   C24119439   7.384   5.746   4.785 -0.5968  0.2787  0.1540
   30MOL   C24219440   7.319   5.762   4.919  0.3189  0.4260  0.3096
   30MOL   C24319441   7.381   5.689   5.036 -0.0678 -0.3195  0.2579
   30MOL   H24419442   7.106   6.068   4.052 -0.4328  0.2466  1.5307
   30MOL   H24519443   6.970   6.041   3.939 -0.6814 -1.5537  0.1268
   30MOL   H24619444   7.035   5.796   3.960 -0.5703  1.0951 -0.1082
   30MOL   H24719445   7.126   5.783   4.183 -0.4762  0.1967 -0.6243
   30MOL   H24819446   7.203   5.705   4.064  0.9326  0.3605 -0.0326
   30MOL   H24919447   7.286   5.996   4.158  1.6399  1.2347 -2.3690
   30MOL   H25019448   7.390   5.893   4.073  0.3411 -0.5800 -0.7441
   30MOL   H25119449   7.463   5.901   4.298  1.4686 -0.0020 -2.3587
   30MOL   H25219450   7.426   5.736   4.250 -0.5053  0.6837 -2.5123
   30MOL   H25319451   7.210   5.739   4.390  1.4796 -1.8155 -2.0770
   30MOL   H25419452   7.229   5.895   4.428  0.1588 -0.3822  1.0433
   30MOL   H25519453   7.408   5.667   4.522  0.8482  0.5659  0.7985
   30MOL   H25619454   7.454   5.834   4.524  0.8712 -0.2091  1.6860
   30MOL   H25719455   7.269   5.899   4.678  1.7760  0.7780 -0.7226
   30MOL   H25819456   7.199   5.741   4.665  0.1813  0.2171  0.7372
   30MOL   H25919457   7.407   5.641   4.769 -1.1834 -0.2471  2.5682
   30MOL   H26019458   7.481   5.797   4.780  0.0971 -0.9014  1.2665
   30MOL   H26119459   7.218   5.723   4.904  0.5701 -1.2705  2.7935
   30MOL   H26219460   7.310   5.868   4.938 -3.7264  0.0831  0.8185
   30MOL   H26319461   7.480   5.730   5.059 -0.6282  1.7282 -0.8641
   30MOL   H26419462   7.389   5.581   5.023 -0.4710 -0.5648  1.8854
   30MOL   H26519463   7.320   5.703   5.125  1.0036  2.8812  0.5541
   30MOL   C26619464   7.202   5.891   3.860 -0.2033 -0.3700  0.8654
   30MOL   C26719465   7.115   5.921   3.729 -1.6073  0.3687 -0.0885
   30MOL   C26819466   7.021   5.797   3.691 -0.2074 -0.4163 -0.0474
   30MOL   C26919467   7.089   5.659   3.686  0.4470  0.5420  0.2973
   30MOL   C27019468   6.994   5.549   3.630 -0.0894  0.1103 -0.0853
   30MOL   C27119469   7.036   5.416   3.693  0.0241  0.1037  0.2531
   30MOL   C27219470   6.967   5.288   3.652 -0.5110  0.8427  0.2577
   30MOL   C27319471   7.015   5.249   3.512  0.3180  0.2072  0.2004
   30MOL   C27419472   6.962   5.115   3.464 -0.2563  0.4670  0.1577
   30MOL   C27519473   7.027   5.075   3.333  0.5764  0.3770  0.1768
   30MOL   C27619474   7.014   5.176   3.215  0.4342 -0.3387 -0.1026
   30MOL   H27719475   7.264   5.803   3.842  1.6593  0.2541  3.8913
   30MOL   H27819476   7.271   5.973   3.879 -0.1062 -0.0333 -0.7993
   30MOL   H27919477   7.054   6.011   3.741 -0.5105  0.9449  1.3002
   30MOL   H28019478   6.931   5.790   3.752 -1.1356 -1.7500 -1.5194
   30MOL   H28119479   6.990   5.818   3.589 -2.0435  2.8607  1.0885
   30MOL   H28219480   7.126   5.633   3.785  2.9337  0.8304 -0.5348
   30MOL   H28319481   7.179   5.675   3.628  0.2846 -3.2691 -1.2121
   30MOL   H28419482   7.018   5.531   3.525 -1.9309  0.4539 -0.5728
   30MOL   H28519483   6.891   5.559   3.664  0.9047 -0.1578  3.1440
   30MOL   H28619484   7.014   5.422   3.800 -0.9007 -0.7862  0.1153
   30MOL   H28719485   7.143   5.394   3.687 -0.1748 -0.5863 -0.6807
   30MOL   H28819486   6.993   5.205   3.717  1.2847  0.6602 -0.6728
   30MOL   H28919487   6.859   5.303   3.650 -0.5923  0.3334  0.7980
   30MOL   H29019488   7.122   5.267   3.508  0.5342 -1.1881 -0.5950
   30MOL   H29119489   6.972   5.322   3.444  0.3009 -1.8569 -2.0865
   30MOL   H29219490   7.007   5.045   3.534  0.4608  1.9855  1.2296
   30MOL   H29319491   6.853   5.105   3.467 -0.0709 -2.2387 -0.7981
   30MOL   H29419492   6.987   4.980   3.298  0.4224  1.0138 -1.4620
   30MOL   H29519493   7.127   5.042   3.360  1.4392  1.0028 -2.0847
   30MOL   H29619494   6.914   5.218   3.208 -0.2685 -1.9658  0.1445
   30MOL   H29719495   7.050   5.118   3.130  1.9832 -2.8268  2.2053
   30MOL   H29819496   7.074   5.266   3.230  1.4770 -0.6550 -2.2395
   30MOL   C29919497   7.208   5.959   3.606 -0.2619 -0.2123  0.6165
   30MOL   C30019498   7.134   6.035   3.493 -1.1086  0.6147  0.1197
   30MOL   C30119499   7.125   5.945   3.359 -0.1887  0.2876 -0.4301
   30MOL   C30219500   7.260   5.899   3.300 -0.5105  0.2427  0.0533
   30MOL   C30319501   7.247   5.826   3.161  0.6843 -0.0925  0.7079
   30MOL   C30419502   7.137   5.718   3.157  0.0922 -0.7488  0.0901
   30MOL   C30519503   7.143   5.630   3.028 -0.3530  0.4363  0.9117
   30MOL   C30619504   7.047   5.509   3.030 -1.2919 -0.2802 -0.0724
   30MOL   C30719505   7.012   5.456   2.892 -0.3095  0.0153  0.1303
   30MOL   C30819506   6.911   5.348   2.905 -0.7017 -0.4787  0.7326
   30MOL   C30919507   6.888   5.281   2.768  0.3762 -0.4775  0.1111
   30MOL   H31019508   7.255   5.867   3.571 -1.8916 -0.4062 -1.0980
   30MOL   H31119509   7.293   6.019   3.637 -1.6742  1.9900  0.3483
   30MOL   H31219510   7.032   6.052   3.527 -1.3146 -0.3124 -0.0019
   30MOL   H31319511   7.077   5.849   3.381  2.5180 -1.4401 -1.8480
   30MOL   H31419512   7.056   5.990   3.287 -1.8358  1.3449  1.7294
   30MOL   H31519513   7.320   5.986   3.272 -0.9170 -0.1049 -1.9518
   30MOL   H31619514   7.310   5.831   3.368  0.6031 -0.7715 -1.7443
   30MOL   H31719515   7.223   5.904   3.088 -1.8396  0.0365  1.6100
   30MOL   H31819516   7.341   5.785   3.124 -0.2709 -1.2801 -0.4273
   30MOL   H31919517   7.042   5.764   3.185  0.3279  0.2168 -0.6947
   30MOL   H32019518   7.164   5.647   3.236 -2.5477  0.2286  1.9431
   30MOL   H32119519   7.121   5.684   2.936 -0.0776 -0.2911  0.4108
   30MOL   H32219520   7.244   5.592   3.013 -1.1947 -1.4717 -0.2001
   30MOL   H32319521   6.955   5.537   3.081 -0.0312  1.1529  1.4490
   30MOL   H32419522   7.102   5.434   3.085 -0.4275 -0.7126 -1.4893
   30MOL   H32519523   7.101   5.424   2.839  0.5101  1.3776  0.6740
   30MOL   H32619524   6.966   5.534   2.831  1.5457 -0.1386 -1.4713
   30MOL   H32719525   6.814   5.386   2.937 -0.1855 -0.2988  2.1055
   30MOL   H32819526   6.936   5.268   2.976  2.0769  0.7485  1.1981
   30MOL   H32919527   6.805   5.210   2.769  1.0604 -1.3294  3.4243
   30MOL   H33019528   6.883   5.359   2.692  1.9259 -0.9369 -0.4689
   30MOL   H33119529   6.959   5.206   2.733  0.8872 -1.0947  2.3966
   30MOL   C33219530   7.197   6.172   3.462  0.5336  0.0927 -0.3114
   30MOL   C33319531   7.106   6.277   3.391  0.0288 -0.8053  0.0890
   30MOL   C33419532   7.191   6.394   3.354 -0.5869 -0.5028  0.0952
   30MOL   C33519533   7.268   6.361   3.215 -0.1668 -0.0896 -0.3325
   30MOL   C33619534   7.352   6.478   3.169 -0.0387 -0.2638 -0.6780
   30MOL   C33719535   7.437   6.440   3.048 -0.6065  0.5652  0.3522
   30MOL   C33819536   7.475   6.549   2.951  1.3804  0.9616 -0.2780
   30MOL   C33919537   7.540   6.488   2.823 -0.1299  0.3480  0.1821
   30MOL   C34019538   7.592   6.604   2.737 -0.3444  0.0732 -0.3437
   30MOL   C34119539   7.490   6.637   2.628  0.1501 -0.0525 -0.0778
   30MOL   C34219540   7.537   6.751   2.539  0.1616  0.2988 -0.1978
   30MOL   H34319541   7.201   6.227   3.557 -1.0780  1.6718 -1.1345
   30MOL   H34419542   7.295   6.163   3.414  0.4178 -0.3035 -0.4701
   30MOL   H34519543   7.055   6.234   3.305  0.4026  0.0362 -0.5635
   30MOL   H34619544   7.244   6.438   3.439 -1.6386 -0.7691  0.8889
   30MOL   H34719545   7.125   6.477   3.330 -0.0602 -0.2434 -0.4699
   30MOL   H34819546   7.339   6.281   3.230 -0.6547 -0.4125  0.2626
   30MOL   H34919547   7.201   6.327   3.136 -0.7316  0.0286  0.0877
   30MOL   H35019548   7.290   6.563   3.143 -1.7254 -0.6617  1.9026
   30MOL   H35119549   7.416   6.528   3.242 -2.3127  0.3566  0.9244
   30MOL   H35219550   7.383   6.372   2.982  0.1265  0.3983 -0.0770
   30MOL   H35319551   7.524   6.389   3.088 -0.0792  2.9358  2.3781
   30MOL   H35419552   7.550   6.611   3.000 -1.4475  2.6522  2.0730
   30MOL   H35519553   7.399   6.619   2.915  0.6332 -0.8284 -2.3492
   30MOL   H35619554   7.619   6.422   2.859  1.5790  0.1775 -3.6291
   30MOL   H35719555   7.465   6.432   2.768  1.7985 -1.4174 -0.7221
   30MOL   H35819556   7.686   6.572   2.692  0.1745 -1.8669  2.0202
   30MOL   H35919557   7.621   6.693   2.793 -0.4109  0.2487 -0.5880
   30MOL   H36019558   7.394   6.658   2.674 -0.6411  1.8342 -2.4775
   30MOL   H36119559   7.465   6.548   2.570  2.1053 -0.0714 -0.9632
   30MOL   H36219560   7.633   6.741   2.490  1.9396 -1.9624  3.5142
   30MOL   H36319561   7.462   6.786   2.468 -0.8363 -1.3254  0.0273
   30MOL   H36419562   7.548   6.838   2.604 -0.4076  0.2623 -0.0424
   30MOL   C36519563   6.998   6.334   3.477  1.2198  0.1176  0.1374
   30MOL   C36619564   6.880   6.414   3.412 -0.0613 -0.2669  0.0396
   30MOL   C36719565   6.741   6.360   3.443 -0.0069 -0.8184 -1.4052
   30MOL   C36819566   6.719   6.210   3.434  0.3072  0.0462 -0.5832
   30MOL   C36919567   6.586   6.176   3.504  0.2662  0.1320 -0.4705
   30MOL   C37019568   6.536   6.037   3.466 -0.0311  0.4385  0.5898
   30MOL   C37119569   6.416   5.988   3.543  0.7703 -0.0632  0.1759
   30MOL   C37219570   6.365   5.842   3.511 -0.6858  0.0696 -0.5307
   30MOL   C37319571   6.229   5.815   3.573  1.1755  0.3237 -0.6157
   30MOL   C37419572   6.195   5.661   3.572 -1.2251 -0.4184  0.2878
   30MOL   C37519573   6.057   5.632   3.632  0.1980 -0.8632  0.5021
   30MOL   H37619574   6.959   6.265   3.552 -0.4976 -0.2773 -1.0897
   30MOL   H37719575   7.044   6.403   3.547  1.6545  1.6582 -1.6379
   30MOL   H37819576   6.892   6.406   3.304  0.2886 -1.8564  0.1834
   30MOL   H37919577   6.674   6.414   3.377  0.0782  1.3409  0.2090
   30MOL   H38019578   6.711   6.378   3.546  1.6765 -2.9948 -0.4957
   30MOL   H38119579   6.797   6.148   3.477 -1.0811 -2.1756 -1.1684
   30MOL   H38219580   6.734   6.183   3.329 -0.0352  1.4715 -1.0101
   30MOL   H38319581   6.512   6.248   3.468  1.4772  1.7008  0.0782
   30MOL   H38419582   6.593   6.186   3.613 -0.6378  1.4444 -0.5185
   30MOL   H38519583   6.618   5.968   3.482 -0.5904 -0.0036  1.5719
   30MOL   H38619584   6.511   6.026   3.360  1.5611  2.2736 -0.0171
   30MOL   H38719585   6.427   5.997   3.651 -0.4057 -1.4887  0.4315
   30MOL   H38819586   6.335   6.058   3.524  1.3878  1.0126  1.4362
   30MOL   H38919587   6.437   5.767   3.546 -1.2088  0.5518  1.6329
   30MOL   H39019588   6.357   5.834   3.402 -1.7057 -0.4509 -0.4176
   30MOL   H39119589   6.230   5.859   3.673  1.7929  1.4503 -1.1133
   30MOL   H39219590   6.159   5.880   3.522  0.5325  0.8122  0.8715
   30MOL   H39319591   6.189   5.627   3.468  0.5344 -0.4259  0.1833
   30MOL   H39419592   6.262   5.591   3.622 -2.6407 -0.5613  2.0314
   30MOL   H39519593   5.974   5.657   3.565 -1.2507 -0.6647  2.3329
   30MOL   H39619594   6.044   5.691   3.722 -1.4431 -1.8068  0.8947
   30MOL   H39719595   6.043   5.526   3.650 -1.4644 -0.9692 -1.3230
   30MOL   C39819596   6.890   6.566   3.456  0.6440 -0.2137  0.7569
   30MOL   C39919597   6.815   6.667   3.361 -0.9490  0.6209 -0.3971
   30MOL   C40019598   6.896   6.694   3.235 -0.5749 -0.3236 -0.0873
   30MOL   C40119599   7.031   6.772   3.254 -0.1705 -0.0327  0.1726
   30MOL   C40219600   7.090   6.822   3.119  0.0074 -0.0365 -0.1145
   30MOL   C40319601   7.215   6.917   3.148  0.2926 -0.3445 -0.2517
   30MOL   C40419602   7.255   6.976   3.015  0.8887  0.2715  0.5364
   30MOL   C40519603   7.356   7.085   3.018 -0.5189  0.2812 -0.2937
   30MOL   C40619604   7.408   7.130   2.885  0.0862 -0.3862  0.0896
   30MOL   C40719605   7.540   7.205   2.883  0.2798 -0.2902  0.0990
   30MOL   C40819606   7.585   7.264   2.741  0.1153  0.2846 -0.8218
   30MOL   H40919607   6.990   6.598   3.486  0.1718  2.4439 -0.3574
   30MOL   H41019608   6.837   6.562   3.552  1.3097 -0.3529  1.1181
   30MOL   H41119609   6.723   6.619   3.329 -1.9435  0.7288  2.1279
   30MOL   H41219610   6.828   6.752   3.173 -0.3058 -1.4106 -1.4402
   30MOL   H41319611   6.908   6.611   3.165 -0.4681 -0.7610  0.4442
   30MOL   H41419612   7.002   6.862   3.309 -0.6248 -0.3975  0.5483
   30MOL   H41519613   7.104   6.733   3.325 -1.0770 -1.4467  0.3624
   30MOL   H41619614   7.121   6.731   3.069  0.0408  0.1071 -0.3537
   30MOL   H41719615   7.008   6.875   3.071  0.1094  2.0184  1.8653
   30MOL   H41819616   7.302   6.868   3.192  0.2901 -0.1095  0.0152
   30MOL   H41919617   7.181   6.999   3.211  0.2706 -0.1146 -0.5627
   30MOL   H42019618   7.293   6.896   2.952  1.6628 -1.3505  2.9758
   30MOL   H42119619   7.165   7.018   2.971  1.1762  1.2755  0.9037
   30MOL   H42219620   7.446   7.054   3.071 -0.5155  1.4984  0.4404
   30MOL   H42319621   7.318   7.172   3.072  0.9302  0.8739 -0.1867
   30MOL   H42419622   7.419   7.040   2.825 -1.9110 -0.4431 -0.2345
   30MOL   H42519623   7.332   7.190   2.834  1.1747 -1.5893 -3.0890
   30MOL   H42619624   7.620   7.139   2.915  2.2320  1.0361 -1.9134
   30MOL   H42719625   7.540   7.292   2.948 -1.7475 -0.2033  0.0386
   30MOL   H42819626   7.610   7.177   2.680 -0.1179  1.2120 -2.2626
   30MOL   H42919627   7.672   7.330   2.746  0.6539 -0.5869  1.7040
   30MOL   H43019628   7.504   7.323   2.700 -2.1990 -2.0671  0.2113
   30MOL   C43119629   6.769   6.807   3.420  0.2957  0.2327 -0.4721
   30MOL   C43219630   6.669   6.805   3.538  0.5639  1.0770 -0.4714
   30MOL   C43319631   6.538   6.730   3.523  0.2494 -0.4715  0.6325
   30MOL   C43419632   6.462   6.788   3.400  0.6439 -0.9669  0.2492
   30MOL   C43519633   6.305   6.773   3.402  0.1231 -0.1958  0.1142
   30MOL   C43619634   6.241   6.862   3.514  0.6874 -0.5938  0.2682
   30MOL   C43719635   6.097   6.818   3.519 -0.5210 -1.3838 -0.9453
   30MOL   C43819636   6.009   6.882   3.620 -0.1296  0.2208 -0.5202
   30MOL   C43919637   6.053   6.864   3.772  0.2700 -1.0003  0.9318
   30MOL   C44019638   5.961   6.950   3.858 -0.5080 -0.3223 -0.2024
   30MOL   C44119639   6.005   6.942   4.000 -0.9541 -0.1430 -0.3444
   30MOL   H44219640   6.719   6.854   3.335 -1.4766  1.6419  1.3095
   30MOL   H44319641   6.857   6.863   3.450 -0.7249  2.0316 -0.7309
   30MOL   H44419642   6.719   6.760   3.624  2.2132  2.3017 -0.7735
   30MOL   H44519643   6.569   6.626   3.511 -2.3325 -1.0594 -1.1833
   30MOL   H44619644   6.486   6.720   3.618  1.6267 -0.7006  1.3888
   30MOL   H44719645   6.485   6.729   3.312  0.2253  0.2100 -0.6618
   30MOL   H44819646   6.488   6.890   3.372 -2.9665  0.2747  1.1506
   30MOL   H44919647   6.285   6.666   3.413 -3.3212  0.3029 -0.8111
   30MOL   H45019648   6.269   6.795   3.301  2.7822 -1.3803 -1.1485
   30MOL   H45119649   6.247   6.966   3.483 -0.4299 -0.7347 -0.4853
   30MOL   H45219650   6.301   6.838   3.601 -0.1088  0.1734  1.0411
   30MOL   H45319651   6.095   6.712   3.544 -0.5387 -1.0230  0.6562
   30MOL   H45419652   6.049   6.818   3.422 -1.2532  0.6777 -0.5894
   30MOL   H45519653   6.002   6.987   3.593 -0.6386 -0.1857 -2.0431
   30MOL   H45619654   5.907   6.844   3.611  0.1802 -0.5491 -0.7725
   30MOL   H45719655   6.153   6.905   3.790  0.5529 -1.0365 -0.4873
   30MOL   H45819656   6.051   6.763   3.814  0.6494 -1.1036  0.7034
   30MOL   H45919657   5.860   6.909   3.859 -0.2866 -0.8827 -0.3333
   30MOL   H46019658   5.978   7.052   3.825  0.8280  0.1576  1.8701
   30MOL   H46119659   5.940   7.010   4.055  2.6926  3.1348  0.1137
   30MOL   H46219660   5.991   6.842   4.041 -0.5330  0.1627  0.5487
   30MOL   H46319661   6.107   6.977   4.015 -0.9157 -0.6722  0.6574
   30MOL   C46419662   6.660   6.947   3.594 -0.1390  0.1880  0.4450
   30MOL   C46519663   6.574   6.981   3.714 -0.8389  0.1903 -0.2528
   30MOL   C46619664   6.610   6.908   3.853 -0.3151 -0.1374 -0.5700
   30MOL   C46719665   6.483   6.849   3.921 -0.5578 -0.1952 -0.2228
   30MOL   C46819666   6.520   6.781   4.053  0.3600  0.2452 -0.1405
   30MOL   C46919667   6.406   6.729   4.134 -0.2037 -0.1756 -0.4417
   30MOL   C47019668   6.326   6.616   4.064 -0.0189  0.5403  0.5667
   30MOL   C47119669   6.196   6.577   4.130  0.1725  0.0705 -0.2082
   30MOL   C47219670   6.110   6.477   4.045  0.3996  0.0839  0.1822
   30MOL   C47319671   5.967   6.434   4.102 -0.0389  0.3247 -0.3002
   30MOL   C47419672   5.878   6.348   4.006 -0.3141 -0.0173  0.5119
   30MOL   H47519673   6.627   7.016   3.516 -0.6652  1.4240  1.7452
   30MOL   H47619674   6.762   6.979   3.615 -0.1953  0.0572  0.9038
   30MOL   H47719675   6.476   6.944   3.687  0.0470 -1.2820 -1.5589
   30MOL   H47819676   6.657   6.977   3.922 -0.2292 -1.4786  0.7475
   30MOL   H47919677   6.683   6.828   3.844 -0.4167 -0.4308  0.9626
   30MOL   H48019678   6.418   6.935   3.936 -0.3579 -0.2497  1.0161
   30MOL   H48119679   6.451   6.772   3.850 -0.7912 -1.4784  1.2540
   30MOL   H48219680   6.578   6.857   4.105  0.3338  0.5022 -0.4894
   30MOL   H48319681   6.603   6.710   4.041  0.7976  0.6244  0.5821
   30MOL   H48419682   6.447   6.695   4.229  0.8488 -3.6704 -2.0581
   30MOL   H48519683   6.337   6.806   4.169  1.2195  0.0169  2.0860
   30MOL   H48619684   6.308   6.639   3.959 -2.7156  1.7810  1.2630
   30MOL   H48719685   6.389   6.527   4.063  1.6392  1.6779  0.6344
   30MOL   H48819686   6.205   6.531   4.229 -1.9498 -0.6350 -0.3043
   30MOL   H48919687   6.136   6.668   4.132 -0.3233 -0.2550 -0.0091
   30MOL   H49019688   6.084   6.512   3.945 -0.4163 -2.7749 -0.6641
   30MOL   H49119689   6.164   6.383   4.032 -0.8453 -0.9022  1.8882
   30MOL   H49219690   5.981   6.367   4.186 -1.5479  0.7297  0.2958
   30MOL   H49319691   5.898   6.513   4.133  1.0156  1.7434 -1.4965
   30MOL   H49419692   5.934   6.264   3.964  0.7823  1.8132 -1.8392
   30MOL   H49519693   5.839   6.405   3.921  0.9729  1.7543  1.0599
   30MOL   H49619694   5.787   6.312   4.052 -3.0285  4.3444 -1.0577
   30MOL   C49719695   6.557   7.132   3.734  0.0924  0.9032  0.6761
   30MOL   C49819696   6.424   7.192   3.685 -0.1104 -0.0621  0.2973
   30MOL   C49919697   6.418   7.196   3.532 -0.2515 -0.7378  0.1412
   30MOL   C50019698   6.536   7.278   3.465  0.0434  0.3369 -0.0074
   30MOL   C50119699   6.512   7.295   3.318  0.1212 -0.9063 -0.1398
   30MOL   C50219700   6.643   7.345   3.256  0.4767  0.2197 -0.8846
   30MOL   C50319701   6.703   7.245   3.154  0.8168  0.3981  0.5463
   30MOL   C50419702   6.839   7.297   3.101 -0.3480 -0.3700  1.8710
   30MOL   C50519703   6.893   7.226   2.971  0.0414 -0.4205  0.7903
   30MOL   C50619704   7.025   7.298   2.930  0.4004 -0.2320 -0.4422
   30MOL   C50719705   7.073   7.255   2.798  0.3282 -0.4356 -0.0913
   30MOL   H50819706   6.563   7.153   3.841  1.4675  1.3570  0.5184
   30MOL   H50919707   6.635   7.205   3.711  0.2523  0.8841  1.1431
   30MOL   H51019708   6.342   7.131   3.723 -0.7163  0.2602 -0.4736
   30MOL   H51119709   6.323   7.242   3.502  0.0582 -0.3275 -0.2108
   30MOL   H51219710   6.417   7.098   3.484  2.6825 -0.4866 -0.5010
   30MOL   H51319711   6.632   7.229   3.482  0.7045  1.6915  0.2560
   30MOL   H51419712   6.543   7.379   3.506 -1.2401 -0.0135  1.0913
   30MOL   H51519713   6.469   7.205   3.274 -0.4595 -1.2184  1.0583
   30MOL   H51619714   6.439   7.371   3.293 -0.0679 -0.6151  1.2516
   30MOL   H51719715   6.619   7.443   3.215 -1.5032  0.3094  0.4420
   30MOL   H51819716   6.717   7.370   3.332  0.1536 -0.2915 -0.3930
   30MOL   H51919717   6.710   7.151   3.210 -1.8546  1.0950  2.1479
   30MOL   H52019718   6.634   7.229   3.071 -0.1586 -0.4025  1.4877
   30MOL   H52119719   6.916   7.289   3.177  1.6913 -0.1807 -0.1291
   30MOL   H52219720   6.824   7.404   3.085 -0.0764 -0.3721  1.5870
   30MOL   H52319721   6.827   7.226   2.885  0.0783  2.8877  0.6901
   30MOL   H52419722   6.907   7.122   2.999 -1.7174 -0.5204  1.3429
   30MOL   H52519723   7.105   7.299   3.003 -0.8618 -1.0779  0.9639
   30MOL   H52619724   7.000   7.404   2.926  1.5110  0.1721  2.3073
   30MOL   H52719725   7.163   7.313   2.775  1.0461 -0.6499  2.0088
   30MOL   H52819726   6.998   7.264   2.720  0.4546 -0.5721 -0.2273
   30MOL   H52919727   7.115   7.155   2.804 -0.4834 -0.6342  3.7421
   30MOL   C53019728   6.395   7.330   3.756  0.0034  0.3639  0.8094
   30MOL   C53119729   6.313   7.321   3.888  0.5937 -0.8506 -0.2883
   30MOL   C53219730   6.162   7.335   3.874  0.4863 -0.2614  0.0872
   30MOL   C53319731   6.076   7.302   4.000  0.0409  0.0734 -0.4875
   30MOL   C53419732   5.923   7.309   3.983  0.2421  0.7001  0.2917
   30MOL   C53519733   5.853   7.297   4.120  0.0708 -0.4927  0.5653
   30MOL   C53619734   5.701   7.341   4.122 -0.1764  0.5459 -0.4428
   30MOL   C53719735   5.644   7.334   4.263  0.1900 -0.3625  0.2139
   30MOL   C53819736   5.690   7.453   4.353 -0.1623  0.6853  0.0759
   30MOL   C53919737   5.642   7.428   4.501 -0.5041 -0.2384 -0.3892
   30MOL   C54019738   5.709   7.529   4.599 -0.0053 -0.1407  0.6020
   30MOL   H54119739   6.487   7.388   3.763 -0.0230  0.5697 -0.3963
   30MOL   H54219740   6.329   7.382   3.687  0.4066  0.3992  0.4466
   30MOL   H54319741   6.325   7.218   3.922 -2.8144 -1.0336  0.5996
   30MOL   H54419742   6.134   7.264   3.797 -0.2299 -0.2676  0.3514
   30MOL   H54519743   6.135   7.437   3.846 -0.2698  0.0304  1.8223
   30MOL   H54619744   6.106   7.357   4.090  0.9279 -1.9096  0.4428
   30MOL   H54719745   6.081   7.200   4.037  0.3216  0.9197  1.9059
   30MOL   H54819746   5.876   7.245   3.909  1.8400 -0.7709  0.5202
   30MOL   H54919747   5.906   7.411   3.948  0.3674  0.0329 -1.7631
   30MOL   H55019748   5.911   7.352   4.194  1.5838 -1.0780 -0.1428
   30MOL   H55119749   5.863   7.194   4.155 -1.4433 -1.1575 -0.9232
   30MOL   H55219750   5.638   7.277   4.061  0.9443 -0.3084 -0.7240
   30MOL   H55319751   5.681   7.447   4.105 -0.5412  0.4551 -0.5718
   30MOL   H55419752   5.680   7.243   4.311  2.1300 -0.4891 -1.4247
   30MOL   H55519753   5.535   7.337   4.253  0.5007  3.0287 -3.3435
   30MOL   H55619754   5.660   7.552   4.318 -0.6309 -0.1970 -2.1022
   30MOL   H55719755   5.798   7.445   4.354 -0.1351  1.0647  0.8674
   30MOL   H55819756   5.671   7.327   4.528 -0.4753  0.0010  0.4886
   30MOL   H55919757   5.533   7.437   4.498 -0.4437  0.9910  0.5293
   30MOL   H56019758   5.694   7.508   4.705  0.5492  0.0683  0.7217
   30MOL   H56119759   5.814   7.531   4.569  0.0478 -0.5926  0.7524
   30MOL   H56219760   5.666   7.628   4.585  1.9295  0.9070  1.8007
   30MOL   C56319761   6.364   7.426   3.983 -0.8984  0.3792 -0.0725
   30MOL   C56419762   6.500   7.386   4.057 -0.7944  0.0402 -0.0591
   30MOL   C56519763   6.474   7.342   4.204  0.7132 -0.2056 -0.7647
   30MOL   C56619764   6.439   7.194   4.224  0.0601  0.2549 -0.5709
   30MOL   C56719765   6.469   7.149   4.365 -0.1606  0.3170 -0.1471
   30MOL   C56819766   6.457   6.995   4.372 -1.0518 -0.1703 -0.3780
   30MOL   C56919767   6.520   6.942   4.496  0.4644  0.1800 -0.1369
   30MOL   C57019768   6.474   6.806   4.535  0.4842  0.4316 -0.5484
   30MOL   C57119769   6.544   6.754   4.662  0.2916  0.1845  0.3496
   30MOL   C57219770   6.524   6.605   4.692 -0.1380 -0.2286 -0.8481
   30MOL   C57319771   6.380   6.561   4.735  0.8500  0.4628  0.1546
   30MOL   H57419772   6.286   7.447   4.056 -0.9400 -2.8913  0.9025
   30MOL   H57519773   6.369   7.523   3.934  1.0292  0.5389  0.3890
   30MOL   H57619774   6.537   7.305   3.994 -1.4180 -0.9332  0.8149
   30MOL   H57719775   6.393   7.392   4.255  3.2631  0.8463  2.4633
   30MOL   H57819776   6.567   7.361   4.259  0.7650  2.2556 -1.6798
   30MOL   H57919777   6.486   7.137   4.145  2.2799  1.5091 -0.1921
   30MOL   H58019778   6.332   7.182   4.208 -0.1591 -1.6446  1.9653
   30MOL   H58119779   6.405   7.187   4.445 -1.8109 -2.5621 -0.0199
   30MOL   H58219780   6.574   7.179   4.374 -0.5318  2.1513 -1.7433
   30MOL   H58319781   6.350   6.979   4.372 -1.2767  1.1523  1.6378
   30MOL   H58419782   6.498   6.942   4.286 -2.0705 -0.4315 -0.7105
   30MOL   H58519783   6.629   6.939   4.485  0.5513  1.8041  0.0762
   30MOL   H58619784   6.508   7.011   4.580 -3.2701  0.1705 -0.6015
   30MOL   H58719785   6.491   6.747   4.445  2.0563  0.3221 -0.2027
   30MOL   H58819786   6.367   6.817   4.548  0.5849  2.7216 -1.3742
   30MOL   H58919787   6.535   6.811   4.754  0.5350  1.1613 -0.2289
   30MOL   H59019788   6.650   6.752   4.635 -0.3856  0.7254 -2.5556
   30MOL   H59119789   6.594   6.587   4.773 -2.0162 -0.4462  0.7624
   30MOL   H59219790   6.559   6.544   4.608  1.4922  0.5169 -0.7217
   30MOL   H59319791   6.339   6.639   4.799 -2.8036 -1.3986  0.1972
   30MOL   H59419792   6.317   6.550   4.647 -0.3523  1.3637  0.8977
   30MOL   H59519793   6.374   6.463   4.782  0.8629 -0.6278 -2.0782
   30MOL   C59619794   6.606   7.495   4.033 -0.6471 -0.0163 -0.4199
   30MOL   C59719795   6.751   7.453   4.073 -0.7692 -0.2027  0.2630
   30MOL   C59819796   6.849   7.569   4.045  0.1961  0.3942  0.0779
   30MOL   C59919797   6.842   0.002   4.113  0.0016  0.0388 -0.2090
   30MOL   C60019798   6.836   0.009   4.269 -0.4956 -0.3768 -0.0004
   30MOL   C60119799   6.862   0.148   4.325 -0.9819 -0.0415 -0.4195
   30MOL   C60219800   6.873   0.158   4.478 -0.2833  1.0348 -0.0650
   30MOL   C60319801   6.892   0.305   4.531 -0.7094 -0.2703  0.0521
   30MOL   C60419802   6.884   0.300   4.680 -0.1372 -0.6309 -0.2378
   30MOL   C60519803   7.004   0.237   4.758  0.3686 -0.0256  0.6087
   30MOL   C60619804   7.147   0.277   4.730  0.9550 -0.5504 -0.3224
   30MOL   H60719805   6.608   7.517   3.927  1.9080  1.7276 -0.0479
   30MOL   H60819806   6.572   7.586   4.083 -0.7017 -0.0476 -0.3996
   30MOL   H60919807   6.758   7.437   4.181 -1.4290 -1.4616  0.1304
   30MOL   H61019808   6.845   7.590   3.938 -2.6131 -0.1673  0.0433
   30MOL   H61119809   6.951   7.541   4.072  1.0467 -1.3988 -4.5354
   30MOL   H61219810   6.750   0.049   4.079  0.0776  1.0936  0.9962
   30MOL   H61319811   6.919   0.072   4.080  0.4118  0.0958  0.8622
   30MOL   H61419812   6.907   7.637   4.304  0.1006 -0.3277 -1.0764
   30MOL   H61519813   6.735   7.679   4.296 -0.5834 -0.4550 -0.4139
   30MOL   H61619814   6.954   0.193   4.287 -0.0270  0.0668  1.9441
   30MOL   H61719815   6.782   0.217   4.297 -1.9750 -1.0552 -0.1090
   30MOL   H61819816   6.959   0.100   4.511  0.0341  1.6958  0.2849
   30MOL   H61919817   6.784   0.119   4.527  0.6767 -1.1469  0.0149
   30MOL   H62019818   6.814   0.370   4.494  0.2351  0.5036 -0.5927
   30MOL   H62119819   6.983   0.340   4.482  0.5651 -1.6327  1.3849
   30MOL   H62219820   6.880   0.403   4.717 -0.5128 -0.4519 -0.7641
   30MOL   H62319821   6.789   0.258   4.711 -0.2758  1.0569  1.7481
   30MOL   H62419822   6.992   0.130   4.741  1.2292 -0.1774  0.9230
   30MOL   H62519823   6.985   0.251   4.865  1.8752  0.1508  0.8589
   30MOL   H62619824   7.156   0.257   4.623  0.7643 -0.9603 -0.2619
   30MOL   H62719825   7.167   0.385   4.734 -0.9979 -0.2399  1.9771
   30MOL   H62819826   7.216   0.215   4.786  0.5614  0.3404  1.1763
   30MOL   C62919827   6.784   7.318   4.013 -0.2032  1.2228  0.5301
   30MOL   C63019828   6.925   7.263   4.059  0.1925  0.4340 -0.3479
   30MOL   C63119829   6.958   7.116   4.046  0.2765 -0.5304 -0.2026
   30MOL   C63219830   6.882   7.028   4.158 -0.8593 -0.2648 -0.6663
   30MOL   C63319831   6.903   6.873   4.152 -0.6760 -0.0409  0.7886
   30MOL   C63419832   6.829   6.799   4.264 -0.0144  0.3628  0.7464
   30MOL   C63519833   6.839   6.655   4.271  0.6761 -0.3165 -0.3315
   30MOL   C63619834   6.784   6.591   4.401 -0.2124 -0.0494  0.1203
   30MOL   C63719835   6.870   6.632   4.526 -0.1023  0.1376  0.2341
   30MOL   C63819836   7.017   6.604   4.526 -0.2019  0.2761 -0.1316
   30MOL   C63919837   7.079   6.642   4.663  0.5153  0.8451  0.1507
   30MOL   H64019838   6.714   7.242   4.051 -0.9849  1.5312 -0.2822
   30MOL   H64119839   6.791   7.319   3.904  0.0189 -1.1067  0.4805
   30MOL   H64219840   7.002   7.317   4.004  0.4791  2.0215  1.5557
   30MOL   H64319841   6.945   7.068   3.948 -1.0253  1.0542 -0.8439
   30MOL   H64419842   7.066   7.106   4.057  0.3608  0.7825  0.2437
   30MOL   H64519843   6.774   7.028   4.146 -1.1561 -1.5325  1.7853
   30MOL   H64619844   6.905   7.069   4.257 -3.3267  1.4554 -0.7554
   30MOL   H64719845   7.009   6.850   4.159 -0.3853  1.3342  1.1772
   30MOL   H64819846   6.868   6.836   4.055 -0.0988 -0.7435  0.8471
   30MOL   H64919847   6.724   6.826   4.260 -0.0871 -0.1299 -0.9728
   30MOL   H65019848   6.856   6.841   4.361 -0.3137 -0.1542  1.0576
   30MOL   H65119849   6.945   6.631   4.271  0.5365 -0.9583  1.8650
   30MOL   H65219850   6.802   6.609   4.179 -0.9042  1.1760 -0.4544
   30MOL   H65319851   6.784   6.485   4.376 -0.5282  0.6135 -2.8141
   30MOL   H65419852   6.681   6.618   4.427  0.3760  1.8454  0.5626
   30MOL   H65519853   6.813   6.572   4.597 -1.2795  0.6139 -0.3086
   30MOL   H65619854   6.857   6.735   4.558 -1.5214  0.1061 -0.2260
   30MOL   H65719855   7.058   6.664   4.445  1.9283 -1.3271 -0.2802
   30MOL   H65819856   7.035   6.501   4.496  1.0388  0.2049  0.7886
   30MOL   H65919857   7.053   6.574   4.744 -0.6999  3.1137  1.7118
   30MOL   H66019858   7.041   6.735   4.706  0.7370  0.1872  1.8157
   30MOL   H66119859   7.188   6.645   4.657  0.6823 -0.7465  1.6794
   30MOL   H66219860   6.960   7.284   4.160  3.0513 -2.3788 -0.6582
   31MOL     C119861   6.034   1.026   0.906  0.2434  0.4018 -0.8185
   31MOL     C219862   5.904   0.955   0.954  0.2010 -0.2499  0.2736
   31MOL     C319863   5.845   1.036   1.072  0.0538 -0.4350  0.2353
   31MOL     C419864   5.891   0.987   1.216  0.2669  0.3673 -0.4738
   31MOL     C519865   5.824   1.069   1.329 -0.7374  0.8476  0.3444
   31MOL     C619866   5.673   1.042   1.347 -0.1095  0.0697  0.5187
   31MOL     C719867   5.636   1.081   1.490 -0.0501  0.4681 -0.3369
   31MOL     C819868   5.485   1.091   1.508  0.2858 -0.5795 -0.5848
   31MOL     C919869   5.446   1.110   1.660 -0.5161  0.0453 -0.3305
   31MOL    C1019870   5.300   1.123   1.687 -0.5105 -0.6523  0.8959
   31MOL    C1119871   5.272   1.153   1.837 -0.2550  0.0169  0.1260
   31MOL    H1219872   6.016   1.118   0.851 -1.8899  1.2300  1.2069
   31MOL    H1319873   6.095   0.966   0.838 -1.3791  1.5268 -3.3265
   31MOL    H1419874   5.936   0.856   0.986  2.4410  0.3558 -0.0129
   31MOL    H1519875   5.738   1.016   1.072  0.3037 -1.9640  3.4433
   31MOL    H1619876   5.846   1.143   1.053 -1.0665 -0.0927  2.0440
   31MOL    H1719877   5.997   1.003   1.229  0.1915 -1.3494  2.7457
   31MOL    H1819878   5.872   0.880   1.227  1.6354  0.0735 -0.8567
   31MOL    H1919879   5.877   1.039   1.419 -0.6688  2.6788  0.9219
   31MOL    H2019880   5.840   1.173   1.301  2.4073 -0.1594 -1.9842
   31MOL    H2119881   5.651   0.936   1.339  1.5963 -0.1166 -2.0632
   31MOL    H2219882   5.617   1.099   1.273 -0.1310 -1.6142 -0.7637
   31MOL    H2319883   5.679   0.999   1.547  1.6207  0.0371 -2.1334
   31MOL    H2419884   5.676   1.176   1.525 -0.3542  0.5306 -0.1532
   31MOL    H2519885   5.428   1.007   1.468  0.1199 -0.6469 -0.2112
   31MOL    H2619886   5.437   1.175   1.458 -1.4879 -0.3184  1.4505
   31MOL    H2719887   5.492   1.200   1.703 -1.1677  0.8108 -1.2184
   31MOL    H2819888   5.492   1.029   1.715 -0.6454 -0.1095 -0.4511
   31MOL    H2919889   5.251   1.029   1.660  2.0340 -1.2983 -1.7738
   31MOL    H3019890   5.259   1.201   1.623  0.6860 -1.0238 -0.3263
   31MOL    H3119891   5.164   1.163   1.847 -0.7472 -0.8461 -3.4860
   31MOL    H3219892   5.302   1.077   1.909 -0.9844  0.6242  1.0941
   31MOL    H3319893   5.327   1.243   1.864 -1.4077  1.2496 -1.5061
   31MOL    H3419894   6.102   1.051   0.988 -0.6643 -0.9169  0.3663
   31MOL    C3519895   5.806   0.931   0.835 -0.6760  0.7481 -0.3081
   31MOL    C3619896   5.852   0.820   0.745  0.7247  0.0611 -0.1590
   31MOL    C3719897   5.855   0.677   0.800  0.2060  0.6862  0.0736
   31MOL    C3819898   5.974   0.593   0.748 -0.3269  0.0128  0.0261
   31MOL    C3919899   6.113   0.625   0.814 -0.4141 -0.5612 -0.3933
   31MOL    C4019900   6.117   0.594   0.968  0.8275 -0.1112 -0.1849
   31MOL    C4119901   6.256   0.638   1.034 -0.2967  0.1204  0.0490
   31MOL    C4219902   6.289   0.782   1.044 -0.0028 -0.5304  0.2926
   31MOL    C4319903   6.399   0.820   1.139  0.1189  0.2884 -0.6516
   31MOL    C4419904   6.369   0.941   1.227 -0.0885 -0.6837  0.1491
   31MOL    C4519905   6.375   1.080   1.164 -0.6238 -0.3224 -0.9200
   31MOL    H4619906   5.792   1.025   0.782 -0.1133  2.0513  1.8047
   31MOL    H4719907   5.710   0.908   0.883 -1.0174  0.7341 -0.9902
   31MOL    H4819908   5.950   0.845   0.705 -0.2949  3.1617 -0.8488
   31MOL    H4919909   5.851   0.681   0.909 -1.9973  1.8084 -0.0047
   31MOL    H5019910   5.759   0.630   0.774  0.1696  0.4456  0.6381
   31MOL    H5119911   5.985   0.595   0.640  1.3994 -0.6806  0.1789
   31MOL    H5219912   5.943   0.494   0.782  0.4481 -0.3668 -0.3739
   31MOL    H5319913   6.138   0.728   0.787 -1.3591 -0.6653 -1.7103
   31MOL    H5419914   6.190   0.571   0.758  2.3090  0.5483  2.1159
   31MOL    H5519915   6.091   0.489   0.975  1.4087 -0.3258 -1.0925
   31MOL    H5619916   6.049   0.635   1.042  0.8260 -1.2317  0.4457
   31MOL    H5719917   6.266   0.586   1.129  1.1593 -0.5329 -0.4563
   31MOL    H5819918   6.344   0.596   0.986 -0.2989 -0.5077  0.5929
   31MOL    H5919919   6.200   0.841   1.066 -1.1819 -1.8196 -0.9121
   31MOL    H6019920   6.327   0.817   0.948 -0.2803  2.9722  1.3817
   31MOL    H6119921   6.499   0.836   1.099  0.5359 -2.4180 -0.7736
   31MOL    H6219922   6.416   0.730   1.199 -1.4699  0.5151  0.1356
   31MOL    H6319923   6.265   0.934   1.260 -0.1361 -1.8327 -0.2035
   31MOL    H6419924   6.438   0.947   1.311  1.1318  0.6229 -0.9192
   31MOL    H6519925   6.347   1.157   1.237 -0.9838 -0.0338 -1.3631
   31MOL    H6619926   6.475   1.098   1.124 -0.0396  0.0256  0.6483
   31MOL    H6719927   6.309   1.087   1.078 -0.6555  0.4562 -0.8422
   31MOL    C6819928   5.760   0.817   0.619 -0.0681 -0.4673  0.4498
   31MOL    C6919929   5.764   0.935   0.516 -0.4889 -0.2730 -0.4566
   31MOL    C7019930   5.855   0.909   0.393 -0.0740  0.1157  0.4317
   31MOL    C7119931   6.000   0.888   0.426 -0.4855 -0.6522 -0.1520
   31MOL    C7219932   6.082   0.887   0.288 -0.0308  0.0531 -0.4623
   31MOL    C7319933   6.228   0.850   0.303 -0.8778 -0.9617  0.4421
   31MOL    C7419934   6.253   0.709   0.360  0.3110  0.7782  0.6548
   31MOL    C7519935   6.393   0.655   0.363  0.3172 -0.1901  0.6280
   31MOL    C7619936   6.475   0.716   0.483  0.0286 -0.4201 -0.2869
   31MOL    C7719937   6.445   0.666   0.630  0.2353  0.5689  0.1137
   31MOL    C7819938   6.560   0.703   0.732 -0.7889 -0.2265 -0.5874
   31MOL    H7919939   5.656   0.812   0.649 -0.1245  0.2499  0.3843
   31MOL    H8019940   5.785   0.724   0.569  0.4592 -0.4698  0.7090
   31MOL    H8119941   5.791   1.029   0.562  0.6162 -0.5251 -0.5763
   31MOL    H8219942   5.842   0.988   0.320  0.2945 -0.5858 -0.4000
   31MOL    H8319943   5.816   0.823   0.338  2.1933 -0.7566  0.1204
   31MOL    H8419944   6.035   0.973   0.484 -1.1115  0.6101 -1.5735
   31MOL    H8519945   6.017   0.799   0.486  2.8254  1.1831  1.7432
   31MOL    H8619946   6.084   0.982   0.236 -1.4384 -0.3124 -1.2173
   31MOL    H8719947   6.034   0.811   0.227 -0.6297  0.1801 -0.1508
   31MOL    H8819948   6.272   0.859   0.204  1.5959 -1.9806  1.4077
   31MOL    H8919949   6.272   0.932   0.361  0.7557 -2.0187  0.7377
   31MOL    H9019950   6.190   0.641   0.302 -0.1044  2.4943 -0.9662
   31MOL    H9119951   6.212   0.699   0.460 -3.7899 -0.9617 -1.0484
   31MOL    H9219952   6.389   0.547   0.372  1.0753 -0.3958 -1.1368
   31MOL    H9319953   6.439   0.667   0.264  0.2885 -3.9807  0.0775
   31MOL    H9419954   6.580   0.690   0.468 -0.0766 -1.1074  0.1341
   31MOL    H9519955   6.465   0.824   0.479  2.0619 -0.1714  0.7176
   31MOL    H9619956   6.352   0.705   0.672  0.2459  0.7733 -0.0511
   31MOL    H9719957   6.438   0.557   0.624 -0.0763  0.6857 -1.8664
   31MOL    H9819958   6.653   0.668   0.688  0.1820  0.5574  0.8146
   31MOL    H9919959   6.561   0.666   0.834  3.5136 -1.7884 -1.1028
   31MOL   H10019960   6.577   0.810   0.742 -1.1602 -0.3053  0.9471
   31MOL   C10119961   5.621   0.961   0.456 -0.4426  0.0201 -0.3459
   31MOL   C10219962   5.510   1.035   0.538 -0.4904 -0.2414  0.2214
   31MOL   C10319963   5.362   1.020   0.485  0.5032 -0.1686  0.2023
   31MOL   C10419964   5.322   0.886   0.432 -0.2050  0.9007 -0.0122
   31MOL   C10519965   5.174   0.868   0.402 -0.3126  0.5416 -0.1175
   31MOL   C10619966   5.153   0.750   0.311 -0.4282  0.5433 -0.4761
   31MOL   C10719967   5.002   0.750   0.276  0.1577  0.0822  0.4385
   31MOL   C10819968   4.957   0.623   0.198  0.0155  0.3755 -0.3264
   31MOL   C10919969   4.804   0.608   0.182 -0.0883  0.0898 -0.5367
   31MOL   C11019970   4.746   0.479   0.109  0.3637  0.3602 -0.7267
   31MOL   C11119971   4.597   0.489   0.085  0.4440 -0.5443  0.8989
   31MOL   H11219972   5.637   1.028   0.371 -0.1663  0.8995  0.4034
   31MOL   H11319973   5.584   0.868   0.413 -1.6160 -0.4288  1.6050
   31MOL   H11419974   5.515   0.976   0.629  0.0074  0.4089  0.6199
   31MOL   H11519975   5.290   1.055   0.559  1.3921  0.6269  0.6950
   31MOL   H11619976   5.353   1.079   0.394  0.9067 -1.5142 -0.7177
   31MOL   H11719977   5.375   0.871   0.338 -2.9952  0.4144 -1.5551
   31MOL   H11819978   5.336   0.802   0.501 -3.0006 -0.1666 -0.6508
   31MOL   H11919979   5.130   0.854   0.501 -4.2080  2.4525 -1.4754
   31MOL   H12019980   5.123   0.952   0.357  0.3978  2.2697  2.1751
   31MOL   H12119981   5.222   0.746   0.227 -0.0008 -1.1400 -0.0769
   31MOL   H12219982   5.176   0.657   0.363 -1.7954 -0.1957 -1.1936
   31MOL   H12319983   4.973   0.830   0.207 -0.8706  0.4854  1.3204
   31MOL   H12419984   4.942   0.756   0.367 -0.8536  0.0619 -0.2152
   31MOL   H12519985   4.999   0.611   0.098 -2.7780  0.3835 -1.5324
   31MOL   H12619986   4.997   0.536   0.251 -0.6367  1.2882  1.7210
   31MOL   H12719987   4.751   0.625   0.275  0.4878  0.9477 -0.3534
   31MOL   H12819988   4.776   0.687   0.112  3.8442  1.2852 -0.8911
   31MOL   H12919989   4.761   0.385   0.163  1.7826  1.7810  1.4219
   31MOL   H13019990   4.809   0.465   0.022 -2.3845  1.3852 -2.9494
   31MOL   H13119991   4.553   0.537   0.173 -0.5476  0.6794 -0.2513
   31MOL   H13219992   4.566   0.553   0.003 -1.3449 -1.0209  1.1703
   31MOL   H13319993   4.565   0.390   0.054 -2.6160  0.3917  0.8460
   31MOL   C13419994   5.548   1.179   0.565  0.0853 -0.1999 -0.6369
   31MOL   C13519995   5.462   1.262   0.665  0.1668 -0.2213 -0.0235
   31MOL   C13619996   5.516   1.410   0.674  0.0753  0.4918 -0.5720
   31MOL   C13719997   5.476   1.496   0.553 -0.5662 -0.7447  0.3050
   31MOL   C13819998   5.510   1.645   0.569 -0.3020  0.0133  0.1814
   31MOL   C13919999   5.435   1.754   0.489 -0.4231  0.0621 -0.3784
   31MOL   C14020000   5.295   1.789   0.553 -0.4529  0.5721  0.7253
   31MOL   C14120001   5.305   1.884   0.669 -0.3329  0.1319 -0.3012
   31MOL   C14220002   5.168   1.907   0.747 -0.7965  0.2263  0.1671
   31MOL   C14320003   5.137   1.812   0.869  0.5617 -0.0144 -0.6796
   31MOL   C14420004   5.216   1.844   1.002 -0.2143 -0.7921 -0.2270
   31MOL   H14520005   5.640   1.184   0.623 -0.5961 -0.0367  0.4453
   31MOL   H14620006   5.557   1.229   0.468  0.5048  1.3491  0.1838
   31MOL   H14720007   5.362   1.271   0.623  0.2130 -0.5357 -0.2032
   31MOL   H14820008   5.624   1.417   0.688  0.3696  2.6994 -3.4214
   31MOL   H14920009   5.480   1.450   0.768 -2.5897 -1.4175 -0.7443
   31MOL   H15020010   5.507   1.463   0.453 -0.0621 -1.7590  0.7850
   31MOL   H15120011   5.367   1.491   0.556 -0.5380 -0.1967  2.8120
   31MOL   H15220012   5.492   1.667   0.674  1.1017 -1.6947  0.7954
   31MOL   H15320013   5.617   1.653   0.556 -0.1995 -0.1966  0.8777
   31MOL   H15420014   5.497   1.842   0.477  1.8562 -1.5516 -0.7695
   31MOL   H15520015   5.420   1.719   0.386  1.1157  0.3706 -0.7106
   31MOL   H15620016   5.228   1.824   0.475  2.5108  0.4269 -1.9703
   31MOL   H15720017   5.258   1.695   0.594  1.0208  0.4688  1.8633
   31MOL   H15820018   5.371   1.850   0.749 -0.5753  0.8181  0.1964
   31MOL   H15920019   5.336   1.984   0.639 -0.5102 -0.5092 -2.7151
   31MOL   H16020020   5.165   2.012   0.774  0.8766  0.2369  0.3694
   31MOL   H16120021   5.083   1.902   0.679  0.2312 -0.6895 -1.1031
   31MOL   H16220022   5.034   1.799   0.900  1.2375 -3.2551  0.3735
   31MOL   H16320023   5.182   1.716   0.844  1.2955 -0.0943  0.8904
   31MOL   H16420024   5.323   1.831   0.989 -0.2147  1.9377 -3.8186
   31MOL   H16520025   5.184   1.762   1.066 -4.0143  0.5762 -0.2219
   31MOL   H16620026   5.184   1.936   1.051 -0.0521 -1.3141  0.8596
   31MOL   C16720027   5.446   1.189   0.803 -0.7848  0.5844 -0.0010
   31MOL   C16820028   5.368   1.245   0.917 -0.1258 -0.1733  0.0602
   31MOL   C16920029   5.458   1.293   1.036 -0.2269  0.2671 -0.0132
   31MOL   C17020030   5.393   1.388   1.138 -0.2325 -0.0891  0.0424
   31MOL   C17120031   5.492   1.414   1.250 -0.3564  0.2637  0.2652
   31MOL   C17220032   5.429   1.489   1.357 -0.2170 -0.1147 -0.5647
   31MOL   C17320033   5.519   1.500   1.479 -0.2452  0.7354 -0.2658
   31MOL   C17420034   5.470   1.577   1.603  0.2565 -0.5460 -0.2013
   31MOL   C17520035   5.335   1.517   1.650  0.1608 -0.3922  0.7575
   31MOL   C17620036   5.277   1.596   1.772 -0.0385  0.0298  0.4609
   31MOL   C17720037   5.169   1.516   1.843  0.3166  0.4270 -0.5594
   31MOL   H17820038   5.408   1.092   0.772  0.4044  0.5163 -1.3161
   31MOL   H17920039   5.548   1.165   0.835 -0.9708 -0.7699 -0.3978
   31MOL   H18020040   5.327   1.336   0.872  1.3369  1.1707  1.3624
   31MOL   H18120041   5.546   1.339   0.991 -0.9583  0.6931 -1.0219
   31MOL   H18220042   5.498   1.201   1.081 -0.0628 -0.2670 -1.2423
   31MOL   H18320043   5.358   1.476   1.084  0.8360  0.5325  0.3443
   31MOL   H18420044   5.305   1.342   1.183 -0.4093  0.1570 -0.0529
   31MOL   H18520045   5.581   1.464   1.211  0.0162 -0.5016  0.1053
   31MOL   H18620046   5.531   1.320   1.289 -1.3941  0.3546  1.5262
   31MOL   H18720047   5.416   1.592   1.325  2.0013  0.9765  1.8321
   31MOL   H18820048   5.328   1.459   1.385 -0.7138  1.8711 -0.1563
   31MOL   H18920049   5.620   1.539   1.471 -0.9623  2.7486 -0.0380
   31MOL   H19020050   5.547   1.399   1.510 -1.1223  0.3402 -0.7490
   31MOL   H19120051   5.542   1.574   1.684 -0.8249  0.0854  0.7978
   31MOL   H19220052   5.455   1.681   1.576  0.5266 -0.1041  1.3131
   31MOL   H19320053   5.340   1.412   1.678 -1.4915 -1.1591 -1.6787
   31MOL   H19420054   5.274   1.524   1.560  0.8552  0.4686  0.3394
   31MOL   H19520055   5.255   1.700   1.751  2.2977  0.3784 -0.4640
   31MOL   H19620056   5.353   1.598   1.850 -0.6076 -2.6435  1.1364
   31MOL   H19720057   5.225   1.452   1.912  0.9184  1.9714  0.4077
   31MOL   H19820058   5.099   1.467   1.776 -2.1256  2.3765  0.5040
   31MOL   H19920059   5.107   1.578   1.908 -0.0492  1.3874 -1.8239
   31MOL   C20020060   5.258   1.148   0.978 -0.4588  0.2670 -0.3249
   31MOL   C20120061   5.135   1.137   0.888  0.3124 -0.8079  0.9103
   31MOL   C20220062   5.080   1.271   0.815  0.0846  0.5581  0.1139
   31MOL   C20320063   5.029   1.380   0.911 -0.4877  0.5223  0.4087
   31MOL   C20420064   4.880   1.388   0.931  0.5766 -0.0274  0.6897
   31MOL   C20520065   4.823   1.529   0.993  0.0710 -0.1437  0.3402
   31MOL   C20620066   4.837   1.528   1.148  0.5443 -0.3425 -0.2554
   31MOL   C20720067   4.843   1.659   1.226  0.1609 -0.1081  0.4415
   31MOL   C20820068   4.855   1.653   1.377 -0.5203 -0.4061 -0.5451
   31MOL   C20920069   4.730   1.599   1.445  0.0121  0.0197 -0.0722
   31MOL   C21020070   4.741   1.629   1.596 -0.0205 -0.2642  0.9367
   31MOL   H21120071   5.289   1.049   1.010 -1.3114  0.1527  0.1611
   31MOL   H21220072   5.231   1.192   1.074  1.1726  0.2783  0.1396
   31MOL   H21320073   5.166   1.081   0.799  1.1029 -1.9065  1.8663
   31MOL   H21420074   5.003   1.252   0.740 -0.4122  0.5423  0.6212
   31MOL   H21520075   5.159   1.316   0.756 -0.5197  1.1406 -0.2534
   31MOL   H21620076   5.064   1.477   0.873  0.1400  0.8791  1.8490
   31MOL   H21720077   5.084   1.368   1.005 -2.4710 -0.1931  1.5041
   31MOL   H21820078   4.843   1.316   1.004 -0.0560  1.5955  2.0306
   31MOL   H21920079   4.836   1.372   0.833  2.1378 -1.3888  0.1967
   31MOL   H22020080   4.877   1.607   0.940  0.2936 -0.1558  0.5481
   31MOL   H22120081   4.716   1.543   0.979  0.6524  3.9686 -0.5975
   31MOL   H22220082   4.925   1.469   1.172  1.2927  0.6786 -0.4662
   31MOL   H22320083   4.760   1.463   1.188  2.1798 -1.0420  1.7895
   31MOL   H22420084   4.759   1.722   1.199  1.0801  1.2533  0.6822
   31MOL   H22520085   4.931   1.717   1.195 -0.0283 -0.9479 -1.7439
   31MOL   H22620086   4.867   1.757   1.408 -0.2559 -0.8393  0.7996
   31MOL   H22720087   4.939   1.593   1.410  0.4850  0.8919 -0.7005
   31MOL   H22820088   4.643   1.656   1.412 -0.1253 -0.5766 -0.7436
   31MOL   H22920089   4.717   1.492   1.426  1.8715  0.2325 -2.9653
   31MOL   H23020090   4.822   1.572   1.642  0.0279  1.0765  2.5633
   31MOL   H23120091   4.647   1.605   1.646 -0.3745 -0.3485  0.2424
   31MOL   H23220092   4.737   1.735   1.620  1.0504 -0.0651  0.2860
   31MOL   C23320093   5.026   1.049   0.943  0.3184  0.3214  0.6431
   31MOL   C23420094   5.051   0.897   0.967  0.1678  0.4767  0.2014
   31MOL   C23520095   5.093   0.829   0.837 -0.1401 -0.3979 -0.1261
   31MOL   C23620096   5.111   0.672   0.842 -0.4706 -0.2714  0.1171
   31MOL   C23720097   5.201   0.614   0.730 -0.4475  0.0369 -0.3746
   31MOL   C23820098   5.208   0.457   0.746 -0.5715 -0.6280  0.0235
   31MOL   C23920099   5.261   0.383   0.628 -0.2730  0.6644  0.4596
   31MOL   C24020100   5.242   0.229   0.639  0.0312  0.6339 -0.0400
   31MOL   C24120101   5.279   0.157   0.506  0.0036 -0.4808 -0.4928
   31MOL   C24220102   5.282   7.701   0.511 -0.2682  0.1236  0.3038
   31MOL   C24320103   5.143   7.643   0.546 -0.1401 -0.8493  0.1675
   31MOL   H24420104   4.927   1.060   0.899  0.6293 -0.8834 -0.3917
   31MOL   H24520105   5.003   1.088   1.042 -2.1532  1.1945 -0.2401
   31MOL   H24620106   5.129   0.886   1.042 -0.2902 -2.1884  0.3362
   31MOL   H24720107   5.018   0.845   0.759 -0.5516  0.2903  0.4045
   31MOL   H24820108   5.191   0.871   0.811  0.0443  0.6218  2.1391
   31MOL   H24920109   5.017   0.617   0.838 -1.4790  1.4800 -0.6969
   31MOL   H25020110   5.151   0.648   0.941  0.4476 -0.9654 -0.4042
   31MOL   H25120111   5.301   0.658   0.722 -0.1806 -0.7578 -1.4964
   31MOL   H25220112   5.152   0.634   0.635 -0.7337 -2.3515 -0.7506
   31MOL   H25320113   5.109   0.418   0.765 -0.5196 -0.6193  0.3163
   31MOL   H25420114   5.275   0.433   0.829  1.6949  0.4241 -1.4436
   31MOL   H25520115   5.200   0.415   0.544 -1.5667 -0.4066  0.9832
   31MOL   H25620116   5.365   0.413   0.616 -0.2859  0.1236 -1.0598
   31MOL   H25720117   5.305   0.200   0.723 -0.1479  0.5149  0.0526
   31MOL   H25820118   5.138   0.206   0.665 -0.1619  0.4018 -0.9896
   31MOL   H25920119   5.210   0.181   0.425 -1.5095 -1.6436  0.4319
   31MOL   H26020120   5.375   0.189   0.464 -0.9770  0.9633 -1.6680
   31MOL   H26120121   5.365   7.664   0.572  0.0430 -0.5345 -0.5013
   31MOL   H26220122   5.300   7.665   0.410 -1.1855  0.9807 -0.1631
   31MOL   H26320123   5.144   7.534   0.540 -0.7951 -0.7871 -1.3660
   31MOL   H26420124   5.068   7.691   0.484 -0.2160 -0.1179  0.8200
   31MOL   H26520125   5.102   7.676   0.641 -3.0313 -0.6247 -1.1048
   31MOL   C26620126   4.922   0.832   1.036 -0.1583 -0.1888 -0.3833
   31MOL   C26720127   4.898   0.834   1.184  0.0608  0.4237  0.0244
   31MOL   C26820128   5.003   0.759   1.269  0.1261 -0.1130  0.0741
   31MOL   C26920129   5.001   0.794   1.418 -0.7075 -0.1255  0.1725
   31MOL   C27020130   5.126   0.752   1.493 -0.3712  0.0604 -0.2731
   31MOL   C27120131   5.123   0.782   1.647  0.4621 -0.4844 -0.0405
   31MOL   C27220132   5.256   0.740   1.719 -0.7820  0.3916 -0.1955
   31MOL   C27320133   5.257   0.766   1.870 -0.1743  0.5670 -0.1681
   31MOL   C27420134   5.384   0.717   1.944  0.2239 -0.6296  0.6269
   31MOL   C27520135   5.392   0.759   2.089  0.0399 -0.4147 -0.2913
   31MOL   C27620136   5.525   0.731   2.153 -0.8958 -0.3763  0.1316
   31MOL   H27720137   4.914   0.729   1.000 -1.4003  0.5144 -2.2298
   31MOL   H27820138   4.833   0.871   0.986  0.2258  0.2622 -0.7249
   31MOL   H27920139   4.919   0.937   1.214  0.6520  0.4016 -0.3007
   31MOL   H28020140   4.981   0.652   1.264 -4.1442  0.5267  2.4791
   31MOL   H28120141   5.105   0.783   1.237 -0.3167  1.0257 -0.4997
   31MOL   H28220142   4.915   0.738   1.455 -0.6041  0.4232  1.2662
   31MOL   H28320143   4.998   0.903   1.430  2.8386 -0.1918  2.6925
   31MOL   H28420144   5.206   0.811   1.449 -0.6872  0.4205 -0.3625
   31MOL   H28520145   5.159   0.651   1.470  1.0513  0.8006 -1.5871
   31MOL   H28620146   5.040   0.731   1.697 -2.2036  2.6381 -1.1403
   31MOL   H28720147   5.107   0.887   1.671 -0.7693 -0.8591  0.8705
   31MOL   H28820148   5.266   0.634   1.698  1.1877  1.4091 -4.8952
   31MOL   H28920149   5.335   0.783   1.658  1.2228 -0.4309  1.7414
   31MOL   H29020150   5.166   0.729   1.918 -0.9111  1.6594 -0.6962
   31MOL   H29120151   5.240   0.873   1.880  3.7123  1.1280  1.2089
   31MOL   H29220152   5.409   0.611   1.937  1.8446 -0.3748  2.0772
   31MOL   H29320153   5.470   0.752   1.888  0.2449  3.4838  2.9509
   31MOL   H29420154   5.311   0.706   2.139 -0.0274 -1.6658 -1.6855
   31MOL   H29520155   5.353   0.860   2.087  1.5607  0.1839  0.1568
   31MOL   H29620156   5.602   0.786   2.100 -1.5213  2.4360  1.9925
   31MOL   H29720157   5.563   0.630   2.138  0.4073  0.2934 -1.1683
   31MOL   H29820158   5.518   0.763   2.257  0.9293 -0.1416  0.1987
   31MOL   C29920159   4.760   0.784   1.220  0.7058  0.1663  0.1037
   31MOL   C30020160   4.634   0.870   1.189  0.9466  0.3216 -0.5252
   31MOL   C30120161   4.637   1.002   1.271 -0.2156  0.7051  0.5840
   31MOL   C30220162   4.526   1.098   1.220  0.1598 -0.0694 -0.0498
   31MOL   C30320163   4.532   1.238   1.290 -0.5544 -0.5979 -0.5194
   31MOL   C30420164   4.429   1.341   1.236 -0.2500  0.0447 -0.3444
   31MOL   C30520165   4.444   1.482   1.292  0.3681 -0.9044 -0.5706
   31MOL   C30620166   4.334   1.580   1.254 -0.0645  0.5982 -0.3079
   31MOL   C30720167   4.365   1.717   1.325 -0.1353 -0.0134  0.5874
   31MOL   C30820168   4.281   1.838   1.284  0.1881  0.3731  0.2889
   31MOL   C30920169   4.133   1.829   1.323 -0.0186 -0.4433  0.2874
   31MOL   H31020170   4.769   0.780   1.328 -1.8684  1.6591  0.4288
   31MOL   H31120171   4.758   0.684   1.176  2.1117  1.5345 -3.2274
   31MOL   H31220172   4.631   0.883   1.080 -1.4779 -0.8315 -0.6373
   31MOL   H31320173   4.634   0.977   1.378 -4.6158 -1.6879  0.0282
   31MOL   H31420174   4.725   1.059   1.244  0.1161  0.7088  1.6208
   31MOL   H31520175   4.561   1.126   1.120 -0.8040 -0.2813 -0.4559
   31MOL   H31620176   4.424   1.060   1.216 -0.1565  0.8748 -2.1900
   31MOL   H31720177   4.514   1.221   1.396 -2.7073  1.3321 -0.5253
   31MOL   H31820178   4.631   1.284   1.289 -0.8400  0.1648  1.7347
   31MOL   H31920179   4.332   1.300   1.265  0.0299 -1.8227 -1.9172
   31MOL   H32020180   4.417   1.350   1.128  0.4056  1.9347 -0.2849
   31MOL   H32120181   4.465   1.478   1.399 -2.5884  0.2476  0.0971
   31MOL   H32220182   4.526   1.523   1.234  1.3130 -1.7738  0.1177
   31MOL   H32320183   4.238   1.541   1.288  0.9677 -0.1059  1.9548
   31MOL   H32420184   4.326   1.604   1.149  2.4637  0.6797 -0.5247
   31MOL   H32520185   4.463   1.748   1.289  0.1726 -0.9715  0.5618
   31MOL   H32620186   4.376   1.708   1.433  0.7962 -0.1979  0.4811
   31MOL   H32720187   4.271   1.830   1.176 -2.0737 -2.3131  0.6412
   31MOL   H32820188   4.325   1.936   1.302 -0.5752  0.5017  1.4793
   31MOL   H32920189   4.106   1.873   1.419 -0.6660  0.9067 -0.5010
   31MOL   H33020190   4.076   1.872   1.240  1.2371 -0.6952 -0.7206
   31MOL   H33120191   4.109   1.722   1.326 -0.8768 -0.2640  0.0279
   31MOL   C33220192   4.500   0.794   1.212  0.0755  0.1248 -0.4108
   31MOL   C33320193   4.400   0.818   1.093 -0.1627  0.2348 -0.7180
   31MOL   C33420194   4.256   0.795   1.141  0.0196 -0.3056  0.7614
   31MOL   C33520195   4.201   0.914   1.225  0.6549 -0.0932 -0.8569
   31MOL   C33620196   4.052   0.892   1.269  0.0283 -0.6964 -0.0714
   31MOL   C33720197   3.986   1.004   1.346  0.4220 -0.2176 -0.7665
   31MOL   C33820198   3.981   1.136   1.281  0.2183 -0.6936  0.2068
   31MOL   C33920199   3.878   1.229   1.346 -0.1259 -0.5461 -1.0556
   31MOL   C34020200   3.878   1.376   1.282  0.1572 -0.3606  0.3226
   31MOL   C34120201   3.901   1.382   1.132  0.3845 -0.6064 -0.5655
   31MOL   C34220202   3.911   1.524   1.076  1.1544 -0.0132  0.2438
   31MOL   H34320203   4.514   0.687   1.225 -3.0356 -0.2128  0.4699
   31MOL   H34420204   4.461   0.833   1.306  0.6721  1.8441 -0.8468
   31MOL   H34520205   4.407   0.922   1.062 -0.3632 -0.0455 -1.7015
   31MOL   H34620206   4.249   0.699   1.192  1.3176  0.0336  1.6221
   31MOL   H34720207   4.190   0.798   1.055 -1.6591 -0.1386  2.0197
   31MOL   H34820208   4.267   0.930   1.311 -2.1862 -1.1761  1.6224
   31MOL   H34920209   4.209   1.012   1.180 -1.5203  0.7637  0.5487
   31MOL   H35020210   3.989   0.878   1.182 -0.7459  0.3008  0.3120
   31MOL   H35120211   4.037   0.805   1.333 -1.3247 -1.6378 -1.6453
   31MOL   H35220212   4.028   1.012   1.446 -2.0173  0.1432  0.2722
   31MOL   H35320213   3.881   0.977   1.357  0.1056  2.1917  2.7296
   31MOL   H35420214   3.960   1.118   1.176  1.0062  0.9852 -0.2456
   31MOL   H35520215   4.082   1.177   1.274 -0.0664  0.1472  0.9598
   31MOL   H35620216   3.778   1.186   1.337 -0.6723  0.8324 -1.7049
   31MOL   H35720217   3.886   1.248   1.453  0.2951 -1.0473 -0.9940
   31MOL   H35820218   3.957   1.435   1.328  0.8533 -1.8945  1.1409
   31MOL   H35920219   3.790   1.431   1.315 -1.2343 -0.9960 -2.1994
   31MOL   H36020220   3.824   1.329   1.075 -0.0464  0.4495 -0.9870
   31MOL   H36120221   3.992   1.332   1.101  0.4018 -1.4842  0.8726
   31MOL   H36220222   3.992   1.573   1.130  1.1396  1.2960 -0.8850
   31MOL   H36320223   3.937   1.530   0.970 -1.0926  2.1191 -0.2310
   31MOL   H36420224   3.819   1.575   1.105  0.6168  0.0622 -1.5117
   31MOL   C36520225   4.425   0.718   0.975  0.1705 -0.1506  0.3565
   31MOL   C36620226   4.440   0.775   0.829 -0.0530  0.3737 -0.4861
   31MOL   C36720227   4.494   0.684   0.716 -0.5812 -0.2096  0.7736
   31MOL   C36820228   4.635   0.637   0.730  0.6213 -0.1289  0.1825
   31MOL   C36920229   4.672   0.532   0.627 -0.1950 -0.1851  0.1140
   31MOL   C37020230   4.815   0.485   0.664 -0.2657  0.5104 -0.8063
   31MOL   C37120231   4.838   0.347   0.601  0.6077  0.0437  0.0605
   31MOL   C37220232   4.867   0.355   0.449  0.1911 -0.0553  0.2194
   31MOL   C37320233   4.907   0.220   0.398  0.7798  0.9641  0.0289
   31MOL   C37420234   4.807   0.101   0.420 -0.0027  0.5399  0.0950
   31MOL   C37520235   4.668   0.120   0.359  0.6875 -0.2863  0.9039
   31MOL   H37620236   4.516   0.665   1.001 -0.2761 -1.8600 -1.4807
   31MOL   H37720237   4.356   0.634   0.981  0.2762 -0.1916  0.9886
   31MOL   H37820238   4.519   0.850   0.842  0.4842  0.0812 -1.9122
   31MOL   H37920239   4.474   0.725   0.617 -0.3214 -2.0347 -0.0760
   31MOL   H38020240   4.437   0.591   0.726 -2.4129  0.7382 -0.5921
   31MOL   H38120241   4.653   0.604   0.832  2.4171  0.6571  0.1488
   31MOL   H38220242   4.697   0.724   0.709 -0.3168  0.1349 -1.6102
   31MOL   H38320243   4.667   0.582   0.530 -0.3211 -0.8274 -0.2196
   31MOL   H38420244   4.606   0.445   0.618 -0.6903  0.2249 -0.2422
   31MOL   H38520245   4.823   0.471   0.772 -0.9830 -1.2588 -0.9706
   31MOL   H38620246   4.890   0.558   0.634 -0.3299  1.0340  0.2990
   31MOL   H38720247   4.927   0.310   0.651 -0.6683 -0.9958  1.6359
   31MOL   H38820248   4.752   0.283   0.620  1.3831 -1.2703 -0.7656
   31MOL   H38920249   4.950   0.423   0.427 -0.3665  0.4488 -0.3374
   31MOL   H39020250   4.781   0.391   0.393 -0.3986 -0.8524  0.6102
   31MOL   H39120251   4.945   0.212   0.296  1.5255 -0.6613  0.4130
   31MOL   H39220252   4.996   0.198   0.458  0.7150 -0.1526 -0.2620
   31MOL   H39320253   4.860   0.013   0.383 -0.0416  0.7948 -0.5877
   31MOL   H39420254   4.787   0.089   0.526 -0.2086  0.5964  0.0630
   31MOL   H39520255   4.675   0.145   0.253  1.7830 -2.1951  0.5098
   31MOL   H39620256   4.618   0.206   0.403  0.8795  0.6666 -0.6926
   31MOL   H39720257   4.601   0.036   0.376 -0.0922 -0.1957 -1.6051
   31MOL   C39820258   4.306   0.842   0.795  0.5027 -0.8152  0.3006
   31MOL   C39920259   4.304   0.931   0.670 -0.5166 -0.3543  0.4258
   31MOL   C40020260   4.355   1.072   0.714  0.2834  0.0050  0.3073
   31MOL   C40120261   4.271   1.170   0.793 -0.6870 -0.0145 -0.8873
   31MOL   C40220262   4.307   1.321   0.770 -0.5834 -0.3014 -0.4211
   31MOL   C40320263   4.216   1.417   0.843  0.7688 -0.5878 -0.7983
   31MOL   C40420264   4.237   1.562   0.790  0.4782 -0.5608 -0.0043
   31MOL   C40520265   4.139   1.675   0.822  0.2441 -0.0519  0.3021
   31MOL   C40620266   4.182   1.813   0.757  0.9241 -0.1529  0.3191
   31MOL   C40720267   4.064   1.910   0.729 -0.2480 -0.2368 -0.1652
   31MOL   C40820268   4.018   1.956   0.866  0.1719  0.5595 -0.3999
   31MOL   H40920269   4.265   0.902   0.876  0.5746  1.1482 -1.0742
   31MOL   H41020270   4.229   0.766   0.780 -0.3455  0.3155 -1.1673
   31MOL   H41120271   4.359   0.888   0.586  0.8260  1.2186  0.4887
   31MOL   H41220272   4.380   1.110   0.615  0.5368  0.8562  0.6874
   31MOL   H41320273   4.451   1.057   0.763  1.3450  0.8666 -1.4708
   31MOL   H41420274   4.165   1.163   0.771 -0.7184  2.9415 -1.9971
   31MOL   H41520275   4.278   1.139   0.897 -0.4501  1.6906 -0.3815
   31MOL   H41620276   4.407   1.349   0.804 -1.4442  0.5182  1.5063
   31MOL   H41720277   4.319   1.349   0.666 -1.3352 -4.0295 -1.5850
   31MOL   H41820278   4.231   1.411   0.951 -2.8941 -1.5157 -0.2618
   31MOL   H41920279   4.110   1.392   0.834  0.2364  0.9243  0.9680
   31MOL   H42020280   4.333   1.595   0.829  0.9910 -0.5958 -1.2193
   31MOL   H42120281   4.230   1.556   0.682 -0.4269 -0.1868  0.0307
   31MOL   H42220282   4.116   1.695   0.927  5.3570 -1.2092  1.7927
   31MOL   H42320283   4.046   1.635   0.783  0.8839 -0.3762 -0.9093
   31MOL   H42420284   4.248   1.866   0.825  0.7501 -0.1352  0.4760
   31MOL   H42520285   4.230   1.797   0.661  0.1734 -0.0823 -0.0673
   31MOL   H42620286   3.993   1.852   0.669 -0.9007  2.2156 -1.8428
   31MOL   H42720287   4.101   1.994   0.670 -0.5912  0.4507  0.5926
   31MOL   H42820288   3.950   2.040   0.854 -0.5672 -0.0669 -0.6690
   31MOL   H42920289   4.102   1.987   0.927  0.6707 -0.3576 -0.6021
   31MOL   H43020290   3.960   1.885   0.925  0.2676 -0.1868 -1.1786
   31MOL   C43120291   4.155   0.939   0.619 -0.1081 -0.2348  0.0344
   31MOL   C43220292   4.113   0.824   0.529  0.2917  0.5544  0.0803
   31MOL   C43320293   4.157   0.850   0.391 -0.3733  0.0543  0.0447
   31MOL   C43420294   4.145   0.728   0.296 -0.9263  0.6633  0.2051
   31MOL   C43520295   4.260   0.626   0.284  0.4143  0.2405 -0.5505
   31MOL   C43620296   4.232   0.505   0.192  0.6783  0.1687  0.2320
   31MOL   C43720297   4.236   0.534   0.039  0.0007  0.4490 -0.1870
   31MOL   C43820298   4.261   0.410   7.661 -0.1756  0.0376 -0.2082
   31MOL   C43920299   4.239   0.429   7.513  0.6554 -0.0101  0.0982
   31MOL   C44020300   4.276   0.313   7.424 -0.1325 -0.3239  0.1618
   31MOL   C44120301   4.159   0.263   7.341 -0.3003  0.1918  0.0620
   31MOL   H44220302   4.139   1.035   0.569 -1.2455 -1.2777 -1.6682
   31MOL   H44320303   4.087   0.950   0.704  3.3108 -0.5474  2.9422
   31MOL   H44420304   4.172   0.737   0.557 -1.0137 -0.2925  0.2237
   31MOL   H44520305   4.106   0.935   0.345  1.2859  0.2043 -1.5570
   31MOL   H44620306   4.261   0.879   0.386 -0.1966 -0.7699 -1.3076
   31MOL   H44720307   4.132   0.768   0.195 -0.8514  0.0247 -0.0597
   31MOL   H44820308   4.059   0.665   0.320 -0.3154 -0.1322  0.3070
   31MOL   H44920309   4.276   0.578   0.381 -2.0437 -1.3941 -0.9272
   31MOL   H45020310   4.351   0.678   0.253  1.6688 -0.8488  1.1481
   31MOL   H45120311   4.141   0.454   0.224  1.3862 -1.4033 -0.2166
   31MOL   H45220312   4.316   0.440   0.217 -1.2402 -2.3702  0.2741
   31MOL   H45320313   4.309   0.612   0.015  1.3147 -0.0435  1.9844
   31MOL   H45420314   4.139   0.574   0.010 -0.2416  0.0139  0.0146
   31MOL   H45520315   4.364   0.376   7.672  0.6377  2.2737 -0.6961
   31MOL   H45620316   4.188   0.333   7.685 -1.0526 -0.7262 -4.8595
   31MOL   H45720317   4.294   0.516   7.477  1.9840 -0.8097  0.1665
   31MOL   H45820318   4.135   0.463   7.507  0.4153 -0.6384  0.5562
   31MOL   H45920319   4.315   0.232   7.487 -0.8623 -0.6237  0.2406
   31MOL   H46020320   4.362   0.348   7.367  0.2336  0.1637  1.0085
   31MOL   H46120321   4.066   0.251   7.397 -0.5270  0.3580 -0.2770
   31MOL   H46220322   4.132   0.341   7.269 -0.0410  0.3273  0.1067
   31MOL   H46320323   4.183   0.181   7.273 -0.8879 -0.4011  0.5700
   31MOL   C46420324   3.958   0.803   0.537  0.7840 -0.0063 -1.2884
   31MOL   C46520325   3.919   0.720   0.661  0.1733  0.2339 -0.6198
   31MOL   C46620326   3.762   0.729   0.672  0.0646  0.5935 -0.2643
   31MOL   C46720327   3.710   0.826   0.776 -0.8095  0.2905  0.1163
   31MOL   C46820328   3.730   0.767   0.918  0.0330  0.3406  0.0848
   31MOL   C46920329   3.679   0.851   1.033  0.7980 -1.1287 -0.4156
   31MOL   C47020330   3.675   0.774   1.167  0.0426  0.0621  0.4381
   31MOL   C47120331   3.584   0.647   1.189  0.5958 -0.6720 -0.1383
   31MOL   C47220332   3.600   0.572   1.322  0.1200  0.0827 -0.1836
   31MOL   C47320333   3.737   0.510   1.333 -0.1674 -0.2702 -0.1349
   31MOL   C47420334   3.747   0.409   1.441  0.1948  0.0653 -0.7622
   31MOL   H47520335   3.919   0.745   0.454 -1.5372 -1.6373  0.8532
   31MOL   H47620336   3.895   0.892   0.534  2.3020  1.2225  1.0298
   31MOL   H47720337   3.966   0.754   0.753 -0.3561 -1.7121  0.3899
   31MOL   H47820338   3.718   0.630   0.682  3.1008 -0.8109 -0.2528
   31MOL   H47920339   3.719   0.765   0.579 -1.1041 -0.2630 -0.0591
   31MOL   H48020340   3.749   0.927   0.774 -0.3359  0.1347  0.9924
   31MOL   H48120341   3.603   0.844   0.765 -0.5863  0.4625 -1.9434
   31MOL   H48220342   3.837   0.759   0.937  0.2276  1.9646 -0.2031
   31MOL   H48320343   3.686   0.668   0.916 -0.1580  0.4099  0.6997
   31MOL   H48420344   3.746   0.938   1.036 -0.7712  0.0762  1.2352
   31MOL   H48520345   3.577   0.887   1.021  0.9805 -0.4607 -0.0180
   31MOL   H48620346   3.780   0.749   1.186  0.8592  2.7244 -0.2853
   31MOL   H48720347   3.640   0.848   1.238 -1.8476 -1.3086  0.9609
   31MOL   H48820348   3.481   0.679   1.170  0.9821  0.0174 -1.0962
   31MOL   H48920349   3.602   0.581   1.104 -0.2744 -0.4288 -0.5230
   31MOL   H49020350   3.585   0.641   1.405  0.4868 -1.3720  1.1224
   31MOL   H49120351   3.529   0.490   1.335  1.8761 -1.6170 -1.1305
   31MOL   H49220352   3.785   0.468   1.245 -0.8957  0.4993 -0.9021
   31MOL   H49320353   3.801   0.596   1.354  1.2323 -1.1057 -0.9379
   31MOL   H49420354   3.687   0.324   1.410  0.2952  0.1374 -1.1503
   31MOL   H49520355   3.706   0.445   1.536  3.4612 -0.3696  0.8912
   31MOL   H49620356   3.848   0.369   1.455 -0.8717 -2.4861 -0.1036
   31MOL   C49720357   3.967   0.575   0.644  0.1980 -0.0616 -0.1425
   31MOL   C49820358   3.954   0.485   0.774 -0.3654  0.4913 -0.7338
   31MOL   C49920359   4.047   0.527   0.894 -0.3532 -0.2354 -0.1868
   31MOL   C50020360   4.019   0.444   1.027  0.2332  0.8214  0.7016
   31MOL   C50120361   4.117   0.474   1.149  0.0085  0.6078 -0.0811
   31MOL   C50220362   4.104   0.364   1.260 -0.1882  0.7490 -0.3362
   31MOL   C50320363   4.167   0.400   1.394 -0.7169 -0.7410 -0.8695
   31MOL   C50420364   4.153   0.293   1.499 -0.1739  1.1427 -0.7250
   31MOL   C50520365   4.249   0.328   1.618 -0.2316  0.3184  0.4745
   31MOL   C50620366   4.218   0.248   1.745  0.0104 -0.7341 -0.0879
   31MOL   C50720367   4.315   0.280   1.861  1.0474 -0.0709  0.9388
   31MOL   H50820368   3.909   0.534   0.561 -3.2967  0.9157  1.7630
   31MOL   H50920369   4.072   0.579   0.614 -0.0407  0.8897 -0.8886
   31MOL   H51020370   3.850   0.489   0.804 -0.7055 -2.7620 -1.2329
   31MOL   H51120371   4.035   0.630   0.925  0.8746  0.0435 -0.5935
   31MOL   H51220372   4.150   0.513   0.861 -0.8047 -0.0284 -1.7163
   31MOL   H51320373   4.031   0.340   0.995  0.6853  1.1775 -0.2756
   31MOL   H51420374   3.917   0.450   1.063  0.2526  2.5181  0.4984
   31MOL   H51520375   4.222   0.474   1.121 -0.4499  3.6668 -2.0620
   31MOL   H51620376   4.080   0.570   1.185 -0.7582  0.6417 -0.9432
   31MOL   H51720377   4.001   0.330   1.263  0.6268 -1.8650  0.1178
   31MOL   H51820378   4.165   0.280   1.225  1.6601  2.0701 -0.3515
   31MOL   H51920379   4.274   0.406   1.371 -0.7464  0.1346 -0.7855
   31MOL   H52020380   4.131   0.497   1.429  0.9570 -0.7342  0.9672
   31MOL   H52120381   4.183   0.194   1.463  0.5070  0.2540  2.2058
   31MOL   H52220382   4.048   0.290   1.527 -0.5103  0.4969 -1.9967
   31MOL   H52320383   4.251   0.433   1.645 -1.3385 -0.1605  2.5500
   31MOL   H52420384   4.352   0.308   1.588 -0.3218 -0.6979  0.8184
   31MOL   H52520385   4.225   0.140   1.735  1.1224 -0.5868 -0.9826
   31MOL   H52620386   4.117   0.276   1.775  0.5535 -0.4270  1.5189
   31MOL   H52720387   4.280   0.234   1.954  2.7398 -0.9949  1.1421
   31MOL   H52820388   4.332   0.386   1.875 -2.1059  0.5805  0.2031
   31MOL   H52920389   4.409   0.227   1.847  0.0370 -1.2843 -1.5954
   31MOL   C53020390   3.992   0.337   0.749 -0.7477 -0.1231 -0.2184
   31MOL   C53120391   3.880   0.240   0.768 -0.3184  0.7603 -0.6411
   31MOL   C53220392   3.929   0.090   0.772 -0.5457  0.1844  0.0545
   31MOL   C53320393   4.007   0.055   0.903 -0.1318  0.3556  0.2745
   31MOL   C53420394   3.914   0.037   1.025  0.0525  0.0458 -0.8195
   31MOL   C53520395   3.988   0.013   1.157 -0.0957 -0.5666 -0.2622
   31MOL   C53620396   3.892   7.681   1.271  0.2713 -0.4195 -1.0919
   31MOL   C53720397   3.911   0.050   1.405  0.9041  0.4877 -0.0157
   31MOL   C53820398   3.814   0.007   1.515 -0.0773 -0.5493 -0.1185
   31MOL   C53920399   3.856   7.576   1.567  0.5120 -0.4184  0.0961
   31MOL   C54020400   3.759   7.524   1.669  0.0137  0.7038 -0.2370
   31MOL   H54120401   4.018   0.329   0.643 -3.3740 -1.2882 -0.8195
   31MOL   H54220402   4.084   0.318   0.804 -1.2630  1.0247  1.0448
   31MOL   H54320403   3.827   0.259   0.861  0.1910  0.0470 -0.2023
   31MOL   H54420404   4.001   0.074   0.691 -0.7725 -0.3341 -0.0481
   31MOL   H54520405   3.847   0.021   0.752  0.0972 -0.4325 -0.4760
   31MOL   H54620406   4.085   0.131   0.901 -2.1488  2.4692 -0.0645
   31MOL   H54720407   4.071   7.672   0.883  0.1248  0.4249  0.8155
   31MOL   H54820408   3.848   7.654   1.012 -0.6977  0.2956  1.0923
   31MOL   H54920409   3.853   0.127   1.037 -0.5071 -0.3013 -1.0191
   31MOL   H55020410   4.035   0.107   1.186 -1.3374  0.3591 -1.1722
   31MOL   H55120411   4.060   7.634   1.162  0.4210 -0.2805 -2.6669
   31MOL   H55220412   3.911   7.574   1.281 -0.7149 -0.5592 -0.6620
   31MOL   H55320413   3.788   7.700   1.244  0.5779  1.1874 -1.1640
   31MOL   H55420414   3.910   0.158   1.388 -0.8366  0.2413 -1.5537
   31MOL   H55520415   4.013   0.031   1.439  1.3115  0.0333 -1.4294
   31MOL   H55620416   3.712   0.016   1.477  0.0424  1.1935 -0.0437
   31MOL   H55720417   3.827   0.076   1.598  0.4579 -0.5280 -0.2191
   31MOL   H55820418   3.957   7.595   1.603 -0.4933  3.6155  0.9757
   31MOL   H55920419   3.871   7.506   1.485 -0.9405 -1.6075  0.8184
   31MOL   H56020420   3.742   7.602   1.743 -1.3405  1.6584 -1.5328
   31MOL   H56120421   3.658   7.498   1.637  0.5307 -1.1326 -0.4612
   31MOL   H56220422   3.801   7.433   1.714 -0.9721  1.7742  3.0200
   31MOL   C56320423   3.777   0.261   0.648 -0.4892  0.1911 -0.2639
   31MOL   C56420424   3.639   0.202   0.665  0.4518  0.4445  0.1039
   31MOL   C56520425   3.572   0.152   0.533  0.3934  0.3207  0.3384
   31MOL   C56620426   3.621   0.020   0.473 -0.2460 -0.3139  0.2923
   31MOL   C56720427   3.526   7.658   0.379  0.1178 -0.1149 -0.0624
   31MOL   C56820428   3.573   7.520   0.339  0.0494  1.1322  0.3085
   31MOL   C56920429   3.467   7.437   0.261 -0.1108  0.4570 -0.6966
   31MOL   C57020430   3.535   7.324   0.181 -0.3382 -0.4000  0.5658
   31MOL   C57120431   3.437   7.225   0.114  0.8600 -0.1929 -0.4562
   31MOL   C57220432   3.501   7.132   0.008  0.4053  0.3451  0.0127
   31MOL   C57320433   3.412   7.011   7.678 -0.4734  0.4974  0.4542
   31MOL   H57420434   3.819   0.218   0.557  0.7457 -0.1462  0.4603
   31MOL   H57520435   3.773   0.366   0.620 -2.3206  0.5848  1.3736
   31MOL   H57620436   3.652   0.122   0.738 -0.5909 -0.7368 -0.9668
   31MOL   H57720437   3.564   0.230   0.458 -0.7340 -0.5838 -0.5047
   31MOL   H57820438   3.477   0.127   0.581  1.3528 -0.1571  2.0497
   31MOL   H57920439   3.637   7.654   0.555 -0.8173 -0.7200  0.0615
   31MOL   H58020440   3.715   0.024   0.417 -2.1770 -0.2946 -3.0661
   31MOL   H58120441   3.510   0.026   0.298 -1.5612 -1.3762 -0.8637
   31MOL   H58220442   3.430   7.652   0.430  0.1573 -2.6389 -0.1968
   31MOL   H58320443   3.661   7.529   0.275 -1.1643  1.4177 -1.3642
   31MOL   H58420444   3.605   7.468   0.429 -2.8093 -2.4878 -0.6718
   31MOL   H58520445   3.404   7.399   0.341 -0.0518  2.7405  0.4984
   31MOL   H58620446   3.413   7.509   0.198  1.3018  2.1737  0.0138
   31MOL   H58720447   3.591   7.262   0.250  0.1780 -1.3574 -0.7158
   31MOL   H58820448   3.601   7.372   0.110  0.4756 -1.1972  0.7814
   31MOL   H58920449   3.360   7.286   0.067  0.9091  3.5432  3.9865
   31MOL   H59020450   3.398   7.160   0.193  1.3295 -0.6040 -0.5575
   31MOL   H59120451   3.597   7.092   0.041  1.4709  3.5181  0.9360
   31MOL   H59220452   3.525   7.186   7.620 -0.1190  0.7374  0.1087
   31MOL   H59320453   3.473   6.946   7.615  0.3273 -0.0843  1.8042
   31MOL   H59420454   3.378   6.972   0.070  0.8453 -1.5048  0.1266
   31MOL   H59520455   3.325   7.043   7.620 -0.7544  0.4965  0.8811
   31MOL   C59620456   3.554   0.315   0.736 -0.0102  0.2210  0.1427
   31MOL   C59720457   3.437   0.262   0.822 -0.5149 -0.6523  0.5526
   31MOL   C59820458   3.329   0.370   0.848  0.0865  0.0698 -0.2930
   31MOL   C59920459   3.242   0.400   0.719 -0.0961  0.9101 -0.3197
   31MOL   C60020460   3.137   0.289   0.686  0.8483  0.2743 -0.0606
   31MOL   C60120461   3.027   0.268   0.791 -0.0582  0.2483  0.0350
   31MOL   C60220462   2.929   0.390   0.807 -0.2465  0.4429  0.1175
   31MOL   C60320463   2.850   0.427   0.679  0.6093  0.1206  0.3674
   31MOL   C60420464   2.745   0.534   0.703 -0.3159  0.4172  0.2707
   31MOL   C60520465   2.814   0.664   0.761 -0.6586  0.3236  0.0048
   31MOL   C60620466   2.711   0.771   0.795  0.2629 -0.8532 -0.4952
   31MOL   H60720467   3.610   0.385   0.797  1.1612  0.5413 -1.2679
   31MOL   H60820468   3.522   0.378   0.653 -2.2047  0.4574  1.1409
   31MOL   H60920469   3.387   0.171   0.788 -1.8954 -0.4831  2.0745
   31MOL   H61020470   3.380   0.461   0.880  0.3022 -0.1259 -0.0747
   31MOL   H61120471   3.258   0.341   0.926 -0.0421 -1.2780 -0.9047
   31MOL   H61220472   3.298   0.420   0.627 -0.1951 -1.2882 -0.8795
   31MOL   H61320473   3.187   0.495   0.716 -2.5407 -0.2992  3.3115
   31MOL   H61420474   3.188   0.193   0.677  0.0064 -0.2080  0.2961
   31MOL   H61520475   3.101   0.306   0.585  2.7592  0.9050 -0.6511
   31MOL   H61620476   2.963   0.186   0.760 -0.3692  0.3302  0.4643
   31MOL   H61720477   3.065   0.236   0.888 -2.2554  1.5596  1.3671
   31MOL   H61820478   2.991   0.471   0.847  1.1541 -0.6817  0.2479
   31MOL   H61920479   2.858   0.365   0.886  1.0053 -0.7630  0.8820
   31MOL   H62020480   2.802   0.340   0.634  2.3640 -1.6227  1.7422
   31MOL   H62120481   2.921   0.461   0.604 -0.9482  0.7663 -0.8452
   31MOL   H62220482   2.688   0.558   0.614 -0.0871  0.4721  0.1400
   31MOL   H62320483   2.669   0.489   0.768 -0.5365 -0.2412 -0.4429
   31MOL   H62420484   2.875   0.697   0.677  0.4474  0.3428  0.7859
   31MOL   H62520485   2.886   0.657   0.844  1.0552  0.6915 -1.4197
   31MOL   H62620486   2.767   0.863   0.811  0.4850 -1.0494 -0.1453
   31MOL   H62720487   2.641   0.781   0.712 -0.2258  0.5650  0.0828
   31MOL   H62820488   2.653   0.743   0.883  0.1283 -0.6046 -0.5035
   31MOL   C62920489   3.497   0.219   0.954  0.9872  0.3537 -0.5127
   31MOL   C63020490   3.408   0.118   1.036  0.0608  0.2041 -0.3276
   31MOL   C63120491   3.454   0.098   1.183  0.2038  0.2913  0.8286
   31MOL   C63220492   3.346   0.039   1.273 -0.3866  0.2065  0.5065
   31MOL   C63320493   3.387   0.034   1.415 -0.0514 -0.9455  0.2236
   31MOL   C63420494   3.421   0.168   1.485  0.3583 -0.4064 -0.6537
   31MOL   C63520495   3.476   0.147   1.626  0.1760 -0.3734 -0.1523
   31MOL   C63620496   3.487   0.272   1.713  0.4208  0.4978 -0.1827
   31MOL   C63720497   3.517   0.263   1.861  0.0149  1.2348  0.4644
   31MOL   C63820498   3.656   0.198   1.893 -0.2043  0.5116 -0.2394
   31MOL   C63920499   3.771   0.300   1.866  0.2749  0.1452  0.0912
   31MOL   H64020500   3.593   0.168   0.938  2.2506  2.2523  0.8103
   31MOL   H64120501   3.525   0.304   1.016 -0.2073  0.0591  0.4598
   31MOL   H64220502   3.309   0.163   1.044  0.2023  0.8219 -1.7729
   31MOL   H64320503   3.552   0.055   1.202  0.4443  1.3603  2.0557
   31MOL   H64420504   3.461   0.199   1.224 -1.2778 -0.0148  1.8667
   31MOL   H64520505   3.315   7.645   1.233 -1.3574  0.4829  0.5767
   31MOL   H64620506   3.255   0.096   1.284 -0.2893  0.4069  0.2771
   31MOL   H64720507   3.467   7.664   1.425  0.8892  0.1903  1.2589
   31MOL   H64820508   3.313   7.691   1.481 -0.1657  1.9566  2.2058
   31MOL   H64920509   3.351   0.252   1.486 -1.6172 -1.9480 -3.0591
   31MOL   H65020510   3.505   0.206   1.427 -0.5712  0.9916 -1.1166
   31MOL   H65120511   3.563   0.081   1.627  0.5266  0.0954  0.5388
   31MOL   H65220512   3.408   0.077   1.676  2.7421 -2.0996  1.0179
   31MOL   H65320513   3.387   0.315   1.705  0.0782 -0.1029  0.8492
   31MOL   H65420514   3.558   0.341   1.667  0.1436 -1.1675 -3.1875
   31MOL   H65520515   3.443   0.187   1.890  2.0056 -0.7379  0.5278
   31MOL   H65620516   3.510   0.361   1.907  3.7507  1.6370  0.2734
   31MOL   H65720517   3.671   0.103   1.842  1.4948  0.9571 -0.5934
   31MOL   H65820518   3.657   0.186   2.001 -2.4443 -1.7749 -0.4320
   31MOL   H65920519   3.866   0.249   1.846 -0.8851 -1.3642 -1.7493
   31MOL   H66020520   3.798   0.364   1.950  3.7711 -1.7079  0.4935
   31MOL   H66120521   3.752   0.368   1.783  0.4611  0.1489  0.0520
   31MOL   H66220522   3.399   0.020   0.989 -0.0659 -0.1393  0.4216
   32MOL     C120523   6.806   2.276   4.496  0.5191 -0.6962  0.0780
   32MOL     C220524   6.898   2.403   4.511  0.3628 -0.5078 -0.3002
   32MOL     C320525   7.047   2.378   4.465  0.3446 -0.3387 -0.4663
   32MOL     C420526   7.156   2.471   4.509 -0.1627  0.4493  0.4437
   32MOL     C520527   7.286   2.434   4.435 -0.1908 -0.0188  0.1096
   32MOL     C620528   7.394   2.541   4.460 -0.5344  0.2003  0.6032
   32MOL     C720529   7.514   2.535   4.374 -0.0286  0.3352  0.3057
   32MOL     C820530   7.642   2.568   4.445  0.3429 -0.1442 -1.4079
   32MOL     C920531   7.647   2.714   4.492 -0.3587 -0.0784  0.3354
   32MOL    C1020532   0.086   2.742   4.545 -0.7861  0.7707 -0.0184
   32MOL    C1120533   0.105   2.882   4.585  0.6741 -0.0957 -0.0451
   32MOL    H1220534   6.822   2.210   4.581 -1.7213 -1.2571  0.0975
   32MOL    H1320535   6.818   2.221   4.403  0.3710  1.6510 -1.3765
   32MOL    H1420536   6.914   2.423   4.617 -1.1144  0.6342 -0.2814
   32MOL    H1520537   7.048   2.348   4.360 -0.1970 -0.1293 -0.5298
   32MOL    H1620538   7.070   2.285   4.518  0.0757 -0.3794 -0.4215
   32MOL    H1720539   7.163   2.483   4.618  0.1780 -0.7525  0.5602
   32MOL    H1820540   7.131   2.571   4.475  0.1642 -0.0874 -1.3867
   32MOL    H1920541   7.325   2.337   4.464  0.6062 -0.3569 -1.9992
   32MOL    H2020542   7.272   2.425   4.327 -1.3578 -0.9838  0.3367
   32MOL    H2120543   7.409   2.530   4.568 -1.1416 -1.2983  0.5407
   32MOL    H2220544   7.336   2.632   4.446 -2.5139 -1.2197 -0.6389
   32MOL    H2320545   7.517   2.440   4.321  1.0803  0.3965  0.2505
   32MOL    H2420546   7.510   2.615   4.301  0.0514  0.7009  0.7004
   32MOL    H2520547   0.023   2.552   4.377  0.7184  0.0026 -0.9815
   32MOL    H2620548   7.671   2.496   4.522 -0.6751  0.8428 -0.0736
   32MOL    H2720549   7.569   2.731   4.566  0.8653 -1.3929  1.9604
   32MOL    H2820550   7.625   2.785   4.412 -2.8810  0.9907  1.9455
   32MOL    H2920551   0.163   2.710   4.475 -1.3170  0.2013 -0.3431
   32MOL    H3020552   0.108   2.680   4.631  1.4600 -1.0934 -1.8639
   32MOL    H3120553   0.087   2.957   4.508 -2.3483 -0.6918  0.0066
   32MOL    H3220554   0.044   2.907   4.671  2.8214  1.1161  1.1562
   32MOL    H3320555   0.212   2.893   4.605  1.1478 -0.7055 -2.0650
   32MOL    H3420556   6.702   2.309   4.507  0.4636 -1.3662  1.6912
   32MOL    C3520557   6.836   2.531   4.457  0.0416 -0.6132  0.5291
   32MOL    C3620558   6.843   2.546   4.303  0.7566  0.1670  0.2666
   32MOL    C3720559   6.758   2.449   4.213  0.0734  0.0082 -0.1340
   32MOL    C3820560   6.607   2.458   4.234 -0.3922 -0.5807 -0.2164
   32MOL    C3920561   6.538   2.406   4.111 -0.1074  0.1670  0.2122
   32MOL    C4020562   6.388   2.409   4.126 -0.1377  0.1262 -0.2986
   32MOL    C4120563   6.349   2.282   4.206 -0.1193 -0.5816  0.2263
   32MOL    C4220564   6.198   2.268   4.220  0.3224 -0.0183 -0.5387
   32MOL    C4320565   6.164   2.161   4.325 -0.0417  0.0255  0.1347
   32MOL    C4420566   6.015   2.136   4.343 -0.6444 -0.2537  0.6533
   32MOL    C4520567   5.946   2.264   4.397 -0.8591 -0.8235  0.2243
   32MOL    H4620568   6.895   2.608   4.506 -1.0462 -0.4759  1.6613
   32MOL    H4720569   6.735   2.555   4.491  0.0798  0.4245 -0.0910
   32MOL    H4820570   6.945   2.517   4.277  0.1147 -2.9118  0.9754
   32MOL    H4920571   6.780   2.435   4.107  1.0133 -0.6814  0.1416
   32MOL    H5020572   6.786   2.348   4.245  2.9172  1.2167  1.3480
   32MOL    H5120573   6.585   2.565   4.239  2.5117  0.0001  1.4198
   32MOL    H5220574   6.585   2.413   4.331  0.0984 -1.4020 -0.4829
   32MOL    H5320575   6.575   2.305   4.090 -0.1029  0.4195 -1.0297
   32MOL    H5420576   6.549   2.462   4.018  2.1349 -0.9136 -0.2127
   32MOL    H5520577   6.337   2.393   4.031  1.0441  0.1622 -0.9477
   32MOL    H5620578   6.346   2.501   4.169 -0.9527 -0.3624 -0.0441
   32MOL    H5720579   6.385   2.196   4.150 -1.6378 -0.3802 -1.0924
   32MOL    H5820580   6.393   2.288   4.305 -0.9926  1.8878  0.5108
   32MOL    H5920581   6.155   2.239   4.124 -1.1915 -2.4424  0.8259
   32MOL    H6020582   6.150   2.358   4.258 -1.1775 -1.1813  0.3930
   32MOL    H6120583   6.212   2.196   4.416 -1.8485  2.2640  0.2869
   32MOL    H6220584   6.210   2.067   4.294  1.7171  1.2658 -1.1236
   32MOL    H6320585   5.966   2.096   4.254 -1.0670 -0.1264  0.8282
   32MOL    H6420586   5.994   2.062   4.419 -1.3402  0.0987  0.8058
   32MOL    H6520587   5.844   2.239   4.426 -0.5858 -2.0363  0.1818
   32MOL    H6620588   5.994   2.315   4.480 -0.4429  1.0808 -1.1581
   32MOL    H6720589   5.941   2.344   4.323 -2.4332  0.6451  1.8698
   32MOL    C6820590   6.824   2.694   4.264 -0.0506 -0.4330  0.1629
   32MOL    C6920591   6.933   2.798   4.310  0.4315  0.3937  0.7872
   32MOL    C7020592   7.057   2.794   4.218 -0.1044 -0.4955  0.1621
   32MOL    C7120593   7.176   2.891   4.249 -0.5953  0.0478 -0.2179
   32MOL    C7220594   7.297   2.883   4.154  0.1496  0.4997  0.2174
   32MOL    C7320595   7.382   3.006   4.193 -0.1111  0.2503 -0.0777
   32MOL    C7420596   7.516   3.009   4.112 -0.1385 -0.6255 -0.2304
   32MOL    C7520597   7.560   3.150   4.078 -0.3446  0.1208  0.5598
   32MOL    C7620598   7.461   3.204   3.972  0.3774  0.1048  0.4956
   32MOL    C7720599   7.542   3.290   3.876  0.4340 -0.4853  0.4245
   32MOL    C7820600   7.456   3.342   3.755 -0.6333  0.0395 -0.1744
   32MOL    H7920601   6.723   2.724   4.294  0.7292  0.6680  1.7886
   32MOL    H8020602   6.816   2.699   4.155 -0.4956  0.2178  0.2176
   32MOL    H8120603   6.954   2.767   4.413  1.8769  0.8980  0.6565
   32MOL    H8220604   7.046   2.799   4.109 -1.8574 -0.5068  0.3288
   32MOL    H8320605   7.092   2.691   4.229 -0.1263 -0.4959  0.2231
   32MOL    H8420606   7.135   2.992   4.246  0.2189  0.3765 -0.4947
   32MOL    H8520607   7.206   2.874   4.352  1.7877 -3.5713 -1.4036
   32MOL    H8620608   7.265   2.884   4.050  0.6930 -2.6217 -0.0259
   32MOL    H8720609   7.364   2.798   4.165 -0.0821  0.2346 -0.3691
   32MOL    H8820610   7.335   3.100   4.167  0.0761  0.6386  0.9358
   32MOL    H8920611   7.413   2.992   4.297 -0.4315 -0.7173 -0.1121
   32MOL    H9020612   7.509   2.955   4.018  0.7891  0.7785 -1.1224
   32MOL    H9120613   7.585   2.951   4.173  1.7731  0.0870 -1.6744
   32MOL    H9220614   7.548   3.215   4.165  1.8325  1.5410 -0.1402
   32MOL    H9320615   7.666   3.156   4.055 -0.3920  1.5885  0.6350
   32MOL    H9420616   7.409   3.130   3.911 -0.1586  1.7915 -1.1701
   32MOL    H9520617   7.380   3.263   4.014 -0.5598 -1.2491  0.6208
   32MOL    H9620618   7.586   3.363   3.944 -0.5877 -1.0180  1.6789
   32MOL    H9720619   7.627   3.235   3.836 -0.5307  1.3459 -4.3953
   32MOL    H9820620   7.422   3.256   3.698 -0.1182 -0.3114  0.0481
   32MOL    H9920621   7.512   3.409   3.690 -1.5463  1.4474  0.4627
   32MOL   H10020622   7.367   3.396   3.787 -1.2745 -0.9177 -0.3279
   32MOL   C10120623   6.873   2.941   4.316  0.4163 -1.0218  0.0919
   32MOL   C10220624   6.906   3.021   4.440 -0.4329 -0.1930  0.3102
   32MOL   C10320625   6.838   2.964   4.569 -0.4788 -0.1970  0.3062
   32MOL   C10420626   6.933   2.929   4.686 -0.3960  0.7837 -0.8304
   32MOL   C10520627   6.866   2.877   4.812  0.5052  0.1160  0.1164
   32MOL   C10620628   6.965   2.820   4.913 -0.3469  0.5661  0.9924
   32MOL   C10720629   6.904   2.730   5.024 -0.2149 -0.2385  0.7252
   32MOL   C10820630   7.010   2.675   5.116  1.3011 -0.3190  0.3856
   32MOL   C10920631   6.953   2.573   5.214 -0.4250  0.1421  0.3085
   32MOL   C11020632   6.879   2.632   5.336 -0.0339 -0.1990 -0.4863
   32MOL   C11120633   6.970   2.697   5.443 -0.0529  0.4344 -1.1400
   32MOL   H11220634   6.899   2.995   4.225  0.8765 -0.5766  0.4848
   32MOL   H11320635   6.764   2.931   4.319  0.0655  1.1368 -2.4293
   32MOL   H11420636   7.012   3.025   4.466 -0.7287  0.6139  1.4546
   32MOL   H11520637   6.750   3.020   4.601 -1.4628 -0.8988 -1.1054
   32MOL   H11620638   6.793   2.869   4.544 -2.0882  0.5816  0.1862
   32MOL   H11720639   7.013   2.861   4.658 -0.1547  0.4865  0.5188
   32MOL   H11820640   6.991   3.017   4.714  0.2330 -0.2950  1.3554
   32MOL   H11920641   6.797   2.946   4.862 -0.5101 -0.4978 -0.4139
   32MOL   H12020642   6.804   2.796   4.774  0.4096  0.5379 -0.6313
   32MOL   H12120643   7.037   2.756   4.861 -0.0788 -0.3716  2.4819
   32MOL   H12220644   7.026   2.901   4.953 -2.2577  3.7161 -2.1772
   32MOL   H12320645   6.862   2.648   4.967 -1.1530  1.3242 -0.8790
   32MOL   H12420646   6.837   2.780   5.094  1.6049  1.1256  1.5403
   32MOL   H12520647   7.085   2.635   5.048  0.4810  3.1807 -2.7580
   32MOL   H12620648   7.053   2.751   5.181  1.1044 -0.1513  0.3205
   32MOL   H12720649   6.902   2.494   5.157  1.3962 -3.1033  2.9880
   32MOL   H12820650   7.041   2.520   5.249  0.3516 -0.5221 -2.5138
   32MOL   H12920651   6.816   2.550   5.373 -1.3962  2.3335  3.0939
   32MOL   H13020652   6.814   2.712   5.302 -0.4432 -0.3985 -0.1806
   32MOL   H13120653   7.028   2.784   5.414 -1.0877  0.9848 -1.5639
   32MOL   H13220654   6.898   2.740   5.512 -1.1241 -1.5633 -0.9594
   32MOL   H13320655   7.042   2.637   5.498 -0.5079  1.5193  0.6642
   32MOL   C13420656   6.868   3.171   4.429 -0.6028  0.9651  0.4738
   32MOL   C13520657   6.936   3.277   4.327 -0.1947 -0.4171  0.4134
   32MOL   C13620658   7.079   3.307   4.363 -0.2755 -0.5511  0.1667
   32MOL   C13720659   7.145   3.408   4.263  0.5855  0.2696  0.6725
   32MOL   C13820660   7.297   3.427   4.291 -0.3833  0.5400 -0.2617
   32MOL   C13920661   7.359   3.550   4.232  1.0322  0.5167 -0.0020
   32MOL   C14020662   7.515   3.552   4.236 -0.4533 -0.0642 -0.1543
   32MOL   C14120663   7.570   3.664   4.150 -0.6960 -0.1700  0.4390
   32MOL   C14220664   7.583   3.803   4.217 -0.0060  0.8295  0.0044
   32MOL   C14320665   0.014   3.830   4.290 -0.1769  0.4620  0.0714
   32MOL   C14420666   0.002   3.962   4.365 -0.3739 -0.5667  0.7696
   32MOL   H14520667   6.759   3.172   4.418 -0.9851  1.2182  3.8727
   32MOL   H14620668   6.875   3.210   4.530  2.4748  0.0964  0.6508
   32MOL   H14720669   6.936   3.234   4.227  2.5844  1.2262 -0.3298
   32MOL   H14820670   7.141   3.218   4.367 -0.5228 -0.7454 -0.3314
   32MOL   H14920671   7.089   3.360   4.458 -1.4947 -1.1735  0.6486
   32MOL   H15020672   7.125   3.379   4.159 -0.2148  1.0809  0.5982
   32MOL   H15120673   7.102   3.507   4.274  1.3999  0.4874  2.0493
   32MOL   H15220674   7.325   3.420   4.396  2.4359  0.2309 -0.9957
   32MOL   H15320675   7.349   3.342   4.247  0.8919  1.0878  0.1636
   32MOL   H15420676   7.319   3.568   4.132 -1.2836 -0.2844  0.7628
   32MOL   H15520677   7.332   3.640   4.287  1.2417  0.7105 -0.2085
   32MOL   H15620678   7.554   3.572   4.335  0.6144 -1.4395 -0.2621
   32MOL   H15720679   7.570   3.461   4.210  0.1460  0.5196 -0.9640
   32MOL   H15820680   7.671   3.644   4.115 -1.4327 -3.4009  0.0001
   32MOL   H15920681   7.517   3.680   4.057 -0.9351  0.5091  0.6864
   32MOL   H16020682   7.578   3.876   4.136  0.6975  0.3071 -0.5156
   32MOL   H16120683   7.497   3.826   4.279 -1.2444 -4.9104  0.6731
   32MOL   H16220684   0.029   3.753   4.366  0.1106  0.0961 -0.3543
   32MOL   H16320685   0.100   3.831   4.222 -0.0141  1.3918  0.2920
   32MOL   H16420686   0.014   4.040   4.289  2.8669 -1.3921  0.3324
   32MOL   H16520687   0.082   3.979   4.436 -0.8989 -0.7252  1.3982
   32MOL   H16620688   7.614   3.980   4.421 -0.7726  1.4486 -0.4757
   32MOL   C16720689   6.845   3.404   4.320  0.3408 -0.1592 -0.2492
   32MOL   C16820690   6.701   3.391   4.277  0.1680 -0.0151  0.7465
   32MOL   C16920691   6.679   3.335   4.133  0.5929  0.0047  0.6631
   32MOL   C17020692   6.770   3.388   4.022 -0.0087 -0.2570 -0.0397
   32MOL   C17120693   6.719   3.351   3.879 -0.8400 -0.6031  0.7199
   32MOL   C17220694   6.809   3.397   3.760  0.2160  0.3918 -0.6716
   32MOL   C17320695   6.950   3.334   3.748  0.1981  0.1424  0.1484
   32MOL   C17420696   6.955   3.182   3.751  0.6758 -0.0163 -0.5605
   32MOL   C17520697   7.094   3.129   3.742  0.0350  0.0315 -0.5691
   32MOL   C17620698   7.097   2.980   3.718 -0.4707 -0.1343 -0.7900
   32MOL   C17720699   7.240   2.927   3.709 -0.4276 -0.0641 -0.1569
   32MOL   H17820700   6.847   3.447   4.420  0.7412  3.0460 -1.5929
   32MOL   H17920701   6.893   3.478   4.255  0.2238 -0.6709 -0.9268
   32MOL   H18020702   6.655   3.316   4.341 -1.9609 -0.5145 -1.2896
   32MOL   H18120703   6.573   3.346   4.112  0.2876 -1.9335  1.0303
   32MOL   H18220704   6.675   3.226   4.122  0.9698 -0.0813  1.3891
   32MOL   H18320705   6.778   3.496   4.034  0.0106 -0.3862  1.1537
   32MOL   H18420706   6.871   3.351   4.033 -0.3657 -1.3182 -0.2621
   32MOL   H18520707   6.624   3.403   3.864  0.0827  1.2474  1.1816
   32MOL   H18620708   6.690   3.246   3.876 -1.4174 -0.4179 -1.0184
   32MOL   H18720709   6.756   3.375   3.667  1.2519 -2.5893 -0.6275
   32MOL   H18820710   6.819   3.503   3.779  0.3291 -0.0495  2.0562
   32MOL   H18920711   7.005   3.363   3.837 -1.3587 -2.6194  2.0700
   32MOL   H19020712   7.005   3.389   3.671  2.4628  1.3055  2.5328
   32MOL   H19120713   6.913   3.151   3.847  2.2190  2.8540  1.0891
   32MOL   H19220714   6.901   3.146   3.664  2.7163  0.8543 -2.2175
   32MOL   H19320715   7.150   3.155   3.832  0.2231 -3.1521  0.2921
   32MOL   H19420716   7.140   3.183   3.659  0.7735  0.8323  0.3483
   32MOL   H19520717   7.034   2.957   3.632  1.1156 -0.6127 -1.8442
   32MOL   H19620718   7.050   2.939   3.807 -1.5030  1.0517 -0.7690
   32MOL   H19720719   7.236   2.822   3.680  1.0201 -0.4126  0.8714
   32MOL   H19820720   7.297   2.921   3.801  0.4504 -0.0730 -0.6929
   32MOL   H19920721   7.298   2.984   3.636 -0.6866 -0.9795 -1.1077
   32MOL   C20020722   6.626   3.527   4.291  0.3880  0.5337 -0.2565
   32MOL   C20120723   6.498   3.524   4.379 -0.3140 -0.4504 -0.0634
   32MOL   C20220724   6.522   3.497   4.529 -0.2084  0.1478 -0.9581
   32MOL   C20320725   6.594   3.608   4.611  0.1993  0.0389  0.0896
   32MOL   C20420726   6.568   3.595   4.765  0.2355  0.1029 -0.0148
   32MOL   C20520727   6.605   3.467   4.830 -0.0035 -0.4462  0.4146
   32MOL   C20620728   6.757   3.439   4.846 -0.2773  0.5908 -0.3644
   32MOL   C20720729   6.806   3.320   4.934  0.0898  0.1998  0.3897
   32MOL   C20820730   6.960   3.319   4.951  0.1424  0.4177 -0.1557
   32MOL   C20920731   7.014   3.207   5.042 -0.0710  0.1763  0.5836
   32MOL   C21020732   7.170   3.214   5.039 -0.7638  0.1646  0.1912
   32MOL   H21120733   6.697   3.599   4.334  0.3336  0.9609 -0.8873
   32MOL   H21220734   6.610   3.573   4.194 -0.0443 -0.9844 -0.9114
   32MOL   H21320735   6.468   3.629   4.375 -0.1313 -0.4356 -1.7066
   32MOL   H21420736   6.574   3.401   4.537 -0.2025  0.0479 -2.0304
   32MOL   H21520737   6.430   3.472   4.582  0.0673 -0.1804 -0.6325
   32MOL   H21620738   6.559   3.703   4.572 -0.6360 -0.4434 -0.3514
   32MOL   H21720739   6.696   3.615   4.574  0.0816 -1.3856 -0.5542
   32MOL   H21820740   6.466   3.624   4.791  0.2942 -0.0863  0.4343
   32MOL   H21920741   6.628   3.676   4.806 -0.3118  0.3989  0.2103
   32MOL   H22020742   6.573   3.462   4.934 -2.2933  0.9629 -0.1899
   32MOL   H22120743   6.553   3.383   4.784 -0.2667  0.1354 -0.3614
   32MOL   H22220744   6.808   3.529   4.880  0.0514  0.0001  0.7347
   32MOL   H22320745   6.802   3.418   4.749 -1.1504  0.6967 -0.7939
   32MOL   H22420746   6.775   3.224   4.892  0.0944  0.2912  0.1731
   32MOL   H22520747   6.755   3.334   5.029  1.6097  0.0758  1.2435
   32MOL   H22620748   7.009   3.408   4.992 -0.9814  1.2250 -0.5385
   32MOL   H22720749   7.009   3.314   4.854  2.2845  0.6845  0.8846
   32MOL   H22820750   6.981   3.214   5.146 -1.4281 -0.0349  0.1745
   32MOL   H22920751   6.977   3.111   5.008 -2.3131  1.1046  0.3208
   32MOL   H23020752   7.224   3.127   5.074 -1.1946  0.2997  1.2002
   32MOL   H23120753   7.207   3.309   5.077  0.7103  0.0826 -0.9800
   32MOL   H23220754   7.202   3.229   4.935 -2.2806 -2.2572 -0.6495
   32MOL   C23320755   6.387   3.441   4.313  0.2305  0.0439 -0.4675
   32MOL   C23420756   6.326   3.472   4.178 -0.3600  0.4755  0.1405
   32MOL   C23520757   6.246   3.606   4.179 -0.0954 -0.9786  0.4876
   32MOL   C23620758   6.131   3.609   4.283  0.8670 -0.9418 -0.2019
   32MOL   C23720759   6.025   3.719   4.251  0.0738 -0.2735  0.5840
   32MOL   C23820760   5.940   3.692   4.128 -0.1548  0.3667 -0.4540
   32MOL   C23920761   5.831   3.795   4.098  0.4654  0.5687  0.2289
   32MOL   C24020762   5.886   3.897   3.998 -0.5003  0.0707  0.1459
   32MOL   C24120763   5.785   3.998   3.964 -0.2418 -0.9785 -0.1168
   32MOL   C24220764   5.827   4.121   3.885 -0.5320 -0.0716 -0.3834
   32MOL   C24320765   5.872   4.098   3.743  0.1750  0.0260  0.7404
   32MOL   H24420766   6.310   3.436   4.390  3.9595 -0.5331  3.3878
   32MOL   H24520767   6.432   3.342   4.319  1.5890  0.6874  0.2165
   32MOL   H24620768   6.410   3.485   4.109 -0.3345 -1.6789 -0.2515
   32MOL   H24720769   6.311   3.694   4.176  0.2567 -1.1847  1.5993
   32MOL   H24820770   6.205   3.615   4.079 -0.3995  1.4056  0.7959
   32MOL   H24920771   6.180   3.638   4.376  0.5971  2.3740 -1.0299
   32MOL   H25020772   6.090   3.508   4.292 -0.9867 -0.0168  2.1962
   32MOL   H25120773   6.077   3.815   4.242 -0.9602  0.3601  1.3146
   32MOL   H25220774   5.953   3.723   4.332 -0.5959 -0.0412 -0.0173
   32MOL   H25320775   5.897   3.593   4.140  0.6577  0.0157 -0.3987
   32MOL   H25420776   6.008   3.689   4.042 -1.5500 -0.9653 -1.5280
   32MOL   H25520777   5.755   3.746   4.038  0.0741  2.1631 -0.6143
   32MOL   H25620778   5.784   3.834   4.188 -0.9944  0.9368 -0.6812
   32MOL   H25720779   5.968   3.944   4.053  1.1124 -0.8633 -1.4289
   32MOL   H25820780   5.926   3.860   3.904  0.6775  1.3808  0.1066
   32MOL   H25920781   5.693   3.961   3.920  0.5017  0.7022 -3.1971
   32MOL   H26020782   5.765   4.050   4.058  2.6560  0.6950 -0.3386
   32MOL   H26120783   5.912   4.172   3.931 -0.4935 -0.0274 -0.5028
   32MOL   H26220784   5.739   4.184   3.898 -1.0075 -0.6221 -0.8881
   32MOL   H26320785   5.969   4.049   3.747  0.0429 -0.2583  0.5517
   32MOL   H26420786   5.888   4.182   3.676  4.1810 -1.5216 -0.3762
   32MOL   H26520787   5.796   4.037   3.694 -1.1373  0.5645  2.0335
   32MOL   C26620788   6.238   3.357   4.128 -0.1525  0.1519  0.8122
   32MOL   C26720789   6.192   3.366   3.976  0.3840  0.5634  0.0810
   32MOL   C26820790   6.104   3.236   3.941  0.0969 -0.2465  0.2095
   32MOL   C26920791   6.172   3.094   3.943  0.4901  0.4350  0.6123
   32MOL   C27020792   6.065   2.981   3.916  0.1914 -0.3167  0.1360
   32MOL   C27120793   6.127   2.843   3.914  0.7388 -0.6138  0.3945
   32MOL   C27220794   6.024   2.736   3.871  0.3883 -0.5586  1.3075
   32MOL   C27320795   6.075   2.591   3.887  0.4515 -0.3928 -0.0298
   32MOL   C27420796   5.975   2.482   3.843  0.5983  0.1452  0.0169
   32MOL   C27520797   5.883   2.448   3.958 -0.4205  0.3220 -0.5406
   32MOL   C27620798   5.804   2.310   3.949  0.0592 -1.3470  0.4313
   32MOL   H27720799   6.149   3.341   4.188 -1.9442  1.7134 -1.3409
   32MOL   H27820800   6.298   3.266   4.123 -0.5588 -0.0626 -0.1923
   32MOL   H27920801   6.121   3.449   3.974 -1.7874 -1.2709 -2.4198
   32MOL   H28020802   6.015   3.221   4.002 -0.4756 -1.1386 -0.8364
   32MOL   H28120803   6.062   3.252   3.842  0.2124 -1.5020 -0.0529
   32MOL   H28220804   6.215   3.083   4.043  2.3804 -0.9800 -0.3164
   32MOL   H28320805   6.253   3.088   3.871  0.4143  1.7340  0.4164
   32MOL   H28420806   6.022   2.994   3.817 -1.7919 -0.9994  0.8747
   32MOL   H28520807   5.981   2.987   3.986  1.0443 -1.9380  1.3511
   32MOL   H28620808   6.159   2.823   4.017  0.4488  0.0790  0.6197
   32MOL   H28720809   6.215   2.832   3.851  0.0123 -1.4424 -0.4837
   32MOL   H28820810   5.937   2.746   3.936 -1.6792  1.3501 -1.6310
   32MOL   H28920811   5.978   2.754   3.774  2.1865 -2.5966  0.0233
   32MOL   H29020812   6.106   2.583   3.991  0.8906  2.0639  0.0422
   32MOL   H29120813   6.168   2.588   3.830  0.1295 -0.7215 -0.5391
   32MOL   H29220814   5.919   2.519   3.757  1.9168 -0.3634 -1.0843
   32MOL   H29320815   6.039   2.399   3.812 -1.3073 -1.1398 -0.5796
   32MOL   H29420816   5.809   2.527   3.972  0.5311  1.2340 -0.6028
   32MOL   H29520817   5.939   2.447   4.051 -1.1763 -1.5561 -0.0779
   32MOL   H29620818   5.719   2.332   4.013  0.4438  0.7625  0.2716
   32MOL   H29720819   5.859   2.225   3.989 -1.3662 -2.6303 -0.2767
   32MOL   H29820820   5.769   2.275   3.851  2.0632  1.9364 -1.5726
   32MOL   C29920821   6.302   3.376   3.872  0.4115 -0.5923 -0.5410
   32MOL   C30020822   6.273   3.406   3.725  0.4339 -0.2923  0.5843
   32MOL   C30120823   6.406   3.374   3.647 -0.3745  0.0726 -0.2511
   32MOL   C30220824   6.391   3.363   3.492 -0.0564 -0.2290 -0.3785
   32MOL   C30320825   6.521   3.335   3.423 -0.1669  0.0663 -0.1805
   32MOL   C30420826   6.583   3.195   3.459 -0.3553  0.2592 -0.0641
   32MOL   C30520827   6.718   3.183   3.381 -0.6134  0.0090  0.3793
   32MOL   C30620828   6.777   3.046   3.405  0.3756 -0.2255  0.1846
   32MOL   C30720829   6.912   3.029   3.330 -0.4234  0.3673  0.2856
   32MOL   C30820830   6.971   2.887   3.341  0.4584  0.2110  0.4644
   32MOL   C30920831   7.124   2.871   3.314  0.4356  0.3963  0.3984
   32MOL   H31020832   6.374   3.294   3.883  1.1367  0.0489 -0.4466
   32MOL   H31120833   6.364   3.458   3.910 -1.0548  0.5836 -0.6590
   32MOL   H31220834   6.207   3.323   3.699  1.0468 -0.1670 -1.4576
   32MOL   H31320835   6.482   3.447   3.676 -3.0324  2.5823  0.6579
   32MOL   H31420836   6.453   3.283   3.682 -1.6652 -1.1077 -1.5169
   32MOL   H31520837   6.305   3.303   3.463 -0.9478  0.0481  1.6290
   32MOL   H31620838   6.360   3.462   3.456 -0.7156  0.0118  0.8170
   32MOL   H31720839   6.494   3.332   3.318  2.2248 -1.2398 -0.7868
   32MOL   H31820840   6.586   3.422   3.436 -2.3959  1.6162  0.8285
   32MOL   H31920841   6.513   3.122   3.417  0.9344  0.0068 -1.8424
   32MOL   H32020842   6.609   3.185   3.565  2.2582  2.9433 -0.4026
   32MOL   H32120843   6.696   3.186   3.275 -0.3585  0.3200  0.3347
   32MOL   H32220844   6.781   3.267   3.412 -2.5763  1.6259  0.1448
   32MOL   H32320845   6.700   2.977   3.370  1.0830 -0.3603 -1.1574
   32MOL   H32420846   6.789   3.026   3.511 -3.6521 -0.1418  0.7324
   32MOL   H32520847   6.979   3.092   3.388  0.2922  1.6009 -1.8253
   32MOL   H32620848   6.900   3.075   3.232  3.1503  1.3657  0.2707
   32MOL   H32720849   6.917   2.815   3.279 -0.1924 -1.3287  2.7624
   32MOL   H32820850   6.952   2.848   3.441  1.6354 -1.9759 -0.1307
   32MOL   H32920851   7.147   2.764   3.311 -0.4682  0.1979  0.4576
   32MOL   H33020852   7.142   2.904   3.212  0.4647  2.2892  1.0055
   32MOL   H33120853   7.175   2.926   3.393 -1.9260  0.7051  1.7597
   32MOL   C33220854   6.194   3.531   3.700  0.0593 -0.4005 -0.1666
   32MOL   C33320855   6.277   3.669   3.689  0.1927 -0.0514 -0.0482
   32MOL   C33420856   6.315   3.730   3.823 -0.7210  0.4665 -0.6778
   32MOL   C33520857   6.457   3.783   3.833 -0.3347 -0.3633  0.5486
   32MOL   C33620858   6.500   3.819   3.969 -0.0683 -0.1734 -0.2797
   32MOL   C33720859   6.639   3.887   3.965  0.0128  0.9095 -0.5039
   32MOL   C33820860   6.756   3.791   3.960  0.1378  0.2553  0.3470
   32MOL   C33920861   6.890   3.858   3.951 -0.0111 -0.5085 -0.6172
   32MOL   C34020862   7.000   3.751   3.912 -0.3931 -0.1789 -0.7573
   32MOL   C34120863   7.144   3.807   3.926 -0.3921 -0.4249  0.5946
   32MOL   C34220864   7.249   3.714   3.875 -0.8322  0.2753  0.2140
   32MOL   H34320865   6.151   3.504   3.603  0.4405  2.5023 -1.1991
   32MOL   H34420866   6.109   3.538   3.767  0.1891  0.3700 -0.0712
   32MOL   H34520867   6.375   3.646   3.647 -0.7282 -1.1898 -1.6602
   32MOL   H34620868   6.304   3.659   3.905 -1.4063  1.0700 -0.2402
   32MOL   H34720869   6.251   3.812   3.856  2.2622  2.2393  0.9920
   32MOL   H34820870   6.526   3.712   3.787  0.6399 -0.1161  1.6086
   32MOL   H34920871   6.455   3.876   3.777  2.7067  0.4994  1.7754
   32MOL   H35020872   6.422   3.882   4.011 -0.4444  0.8198 -2.3738
   32MOL   H35120873   6.500   3.731   4.034 -1.9258 -0.5113 -0.7130
   32MOL   H35220874   6.653   3.957   4.047 -0.1011 -1.5272  1.6483
   32MOL   H35320875   6.650   3.958   3.883  0.5356  2.9043  1.2684
   32MOL   H35420876   6.747   3.718   3.881 -2.6679  2.7617 -1.7467
   32MOL   H35520877   6.769   3.739   4.055  0.2281 -1.5231 -0.6330
   32MOL   H35620878   6.893   3.933   3.872 -0.8593  1.8753  1.5496
   32MOL   H35720879   6.929   3.907   4.040  1.4447 -2.5990 -0.0425
   32MOL   H35820880   6.991   3.687   3.825  1.5486 -0.4606 -0.7716
   32MOL   H35920881   6.996   3.675   3.990 -0.4184  0.0894 -0.4926
   32MOL   H36020882   7.163   3.833   4.030  2.0357  0.1796  0.0377
   32MOL   H36120883   7.145   3.894   3.860 -2.7994 -0.0949  0.9751
   32MOL   H36220884   7.353   3.740   3.896 -1.4447  2.6861  0.5142
   32MOL   H36320885   7.223   3.611   3.896 -0.7135  0.5767  1.9620
   32MOL   H36420886   7.264   3.732   3.769 -0.0207  0.7113  0.3957
   32MOL   C36520887   6.196   3.770   3.596 -0.6123  0.1206 -0.5492
   32MOL   C36620888   6.245   3.792   3.451 -0.2223 -0.0244 -1.0081
   32MOL   C36720889   6.144   3.892   3.387 -0.4999  0.1240  0.5274
   32MOL   C36820890   6.020   3.814   3.332  0.4685  0.1452 -0.2706
   32MOL   C36920891   5.921   3.919   3.279  0.0681 -0.0735 -0.1949
   32MOL   C37020892   5.975   4.006   3.162  0.5825 -0.8907 -0.0618
   32MOL   C37120893   5.874   4.061   3.071  0.4501 -0.2825  0.1090
   32MOL   C37220894   5.929   4.167   2.985  0.5566 -0.5249 -0.1581
   32MOL   C37320895   6.027   4.116   2.880  0.3516 -0.8351  0.3106
   32MOL   C37420896   6.070   4.219   2.782  0.8124 -0.2627 -0.3224
   32MOL   C37520897   6.203   4.182   2.714  0.1487  0.1235  0.7855
   32MOL   H37620898   6.091   3.740   3.604 -0.6213  0.1453 -0.5711
   32MOL   H37720899   6.196   3.866   3.648 -2.0871 -0.1351 -0.0484
   32MOL   H37820900   6.236   3.694   3.405  1.6437 -0.6132 -0.1587
   32MOL   H37920901   6.191   3.932   3.297 -1.8966  0.6270  0.0033
   32MOL   H38020902   6.122   3.982   3.444 -2.0890 -0.8249  1.4580
   32MOL   H38120903   5.965   3.765   3.412 -1.3203  2.0161 -0.3142
   32MOL   H38220904   6.046   3.741   3.256  0.7554  0.2053 -0.2324
   32MOL   H38320905   5.877   3.978   3.359 -0.3265  3.4903 -2.8589
   32MOL   H38420906   5.834   3.859   3.254 -1.4072  1.7305  0.4480
   32MOL   H38520907   6.036   3.939   3.102  0.5259 -1.2452  0.2701
   32MOL   H38620908   6.035   4.083   3.212  1.0827 -2.7052  2.2319
   32MOL   H38720909   5.830   3.977   3.017 -0.7185  0.1416  0.3844
   32MOL   H38820910   5.794   4.098   3.135  2.5315  0.8039  2.1504
   32MOL   H38920911   5.975   4.245   3.046 -1.5068 -0.0226  0.7893
   32MOL   H39020912   5.854   4.223   2.929 -0.9191 -2.1476  0.1805
   32MOL   H39120913   6.119   4.086   2.931  0.3592 -0.5343  0.4749
   32MOL   H39220914   5.991   4.022   2.838 -2.2802  0.2480  0.0803
   32MOL   H39320915   5.988   4.247   2.717  0.7932  0.8891  0.1821
   32MOL   H39420916   6.092   4.314   2.831  0.8410 -0.2376 -0.3829
   32MOL   H39520917   6.175   4.095   2.655  0.4319 -0.3657  1.3608
   32MOL   H39620918   6.280   4.151   2.785 -0.5154 -0.5762  1.2234
   32MOL   H39720919   6.241   4.270   2.663  0.4717  0.4933  1.6506
   32MOL   C39820920   6.396   3.845   3.454 -0.6993 -0.2430  0.0791
   32MOL   C39920921   6.455   3.860   3.309  0.0300  0.2524 -1.0641
   32MOL   C40020922   6.459   3.716   3.228 -0.2525 -0.7940 -0.3090
   32MOL   C40120923   6.495   3.733   3.078  0.3377 -0.6182 -0.8729
   32MOL   C40220924   6.485   3.595   3.007  0.3275  0.2477  0.1931
   32MOL   C40320925   6.348   3.525   2.999  0.1433  0.1618  0.5468
   32MOL   C40420926   6.362   3.408   2.905 -0.0848 -0.1165 -0.1776
   32MOL   C40520927   6.220   3.348   2.886  0.5605 -0.0379  0.1186
   32MOL   C40620928   6.241   3.243   2.774 -0.5312  0.7903  0.3847
   32MOL   C40720929   6.103   3.204   2.719  0.1000 -0.0220  0.3356
   32MOL   C40820930   6.111   3.117   2.600 -0.0245 -0.1381  0.0770
   32MOL   H40920931   6.467   3.780   3.505 -1.0846 -1.1582 -0.5321
   32MOL   H41020932   6.397   3.942   3.505 -1.9341 -0.4659  0.5656
   32MOL   H41120933   6.387   3.922   3.251 -0.6707  0.8367  0.3558
   32MOL   H41220934   6.361   3.669   3.227 -1.9661  2.6563 -2.4603
   32MOL   H41320935   6.539   3.652   3.264 -0.2860 -1.0858 -0.7570
   32MOL   H41420936   6.431   3.808   3.031 -0.4511 -1.0708 -0.5349
   32MOL   H41520937   6.598   3.766   3.070  0.1615 -0.1177 -1.0898
   32MOL   H41620938   6.517   3.594   2.903  0.2940 -1.5582  0.1759
   32MOL   H41720939   6.564   3.536   3.054  1.4862  1.1559 -0.6196
   32MOL   H41820940   6.265   3.583   2.958  0.0411 -0.7629 -0.5697
   32MOL   H41920941   6.318   3.488   3.097  0.9433 -0.5168  0.5397
   32MOL   H42020942   6.411   3.449   2.816 -0.8856 -0.1149 -0.6194
   32MOL   H42120943   6.438   3.337   2.940 -0.2600  0.1573  0.7645
   32MOL   H42220944   6.154   3.430   2.856 -0.0015 -0.5518 -0.0557
   32MOL   H42320945   6.189   3.295   2.976 -1.3309  0.1750 -0.3891
   32MOL   H42420946   6.292   3.288   2.689 -0.7426 -2.7042 -1.6742
   32MOL   H42520947   6.309   3.165   2.808 -0.0089  0.4718 -1.3778
   32MOL   H42620948   6.049   3.295   2.692  1.7447  0.8899  0.0585
   32MOL   H42720949   6.037   3.152   2.789 -2.8987  1.9141 -0.9325
   32MOL   H42820950   6.135   3.014   2.626  3.0075  0.9429  1.6899
   32MOL   H42920951   6.181   3.143   2.520 -0.8909 -1.7324 -1.2313
   32MOL   H43020952   6.018   3.124   2.544  0.2390 -0.1234 -0.3619
   32MOL   C43120953   6.590   3.937   3.304 -0.3159  0.3383 -0.7728
   32MOL   C43220954   6.578   4.087   3.331  0.1005 -0.4035  0.1814
   32MOL   C43320955   6.539   4.148   3.193 -0.0656 -0.0283  0.0789
   32MOL   C43420956   6.471   4.291   3.202 -0.4619  0.2460  0.0677
   32MOL   C43520957   6.448   4.355   3.064 -0.6599 -0.0059 -0.5509
   32MOL   C43620958   6.378   4.495   3.076 -0.0908  0.2268 -0.1926
   32MOL   C43720959   6.467   4.603   3.137  0.7435 -0.2668 -0.2430
   32MOL   C43820960   6.407   4.737   3.104 -0.1104  0.1624  0.0201
   32MOL   C43920961   6.466   4.865   3.186 -0.8458 -0.2084 -0.2944
   32MOL   C44020962   6.612   4.888   3.157  0.1879 -0.0347  0.4820
   32MOL   C44120963   6.624   4.951   3.012 -0.5765  0.9943 -0.5829
   32MOL   H44220964   6.667   3.937   3.226 -0.4219 -0.6886 -0.8794
   32MOL   H44320965   6.637   3.895   3.393 -1.7477  0.8388  0.2347
   32MOL   H44420966   6.489   4.104   3.392 -0.6880  0.3603 -1.1521
   32MOL   H44520967   6.630   4.162   3.134  0.1756 -2.8764 -0.2743
   32MOL   H44620968   6.471   4.089   3.131  0.0597 -0.1936  0.1003
   32MOL   H44720969   6.537   4.353   3.263 -0.2019 -2.6038  2.8025
   32MOL   H44820970   6.374   4.261   3.242 -0.1592 -1.6710 -0.5795
   32MOL   H44920971   6.397   4.291   2.992  1.5787  0.2924 -2.4959
   32MOL   H45020972   6.544   4.371   3.015 -0.2804 -1.0726 -0.1746
   32MOL   H45120973   6.289   4.480   3.137  0.3252 -0.8255  0.1847
   32MOL   H45220974   6.338   4.520   2.978  0.5412 -0.3500 -0.6001
   32MOL   H45320975   6.567   4.602   3.093  0.0918  2.1154 -1.8639
   32MOL   H45420976   6.474   4.594   3.246 -0.0645  1.1931 -0.0642
   32MOL   H45520977   6.414   4.745   2.995  0.7363  0.5150  0.0964
   32MOL   H45620978   6.300   4.740   3.118 -0.2142  0.3010 -0.7414
   32MOL   H45720979   6.457   4.844   3.292 -0.4461  0.6951 -0.0744
   32MOL   H45820980   6.427   4.963   3.156  1.8312  1.4452  1.4211
   32MOL   H45920981   6.669   4.795   3.160  0.9064  0.3932  0.2228
   32MOL   H46020982   6.658   4.948   3.236  0.7245 -1.0379  0.9403
   32MOL   H46120983   6.589   4.896   2.924  1.8707 -2.8486  0.7155
   32MOL   H46220984   6.567   5.043   3.021 -1.5495  0.4052 -0.6925
   32MOL   H46320985   6.725   4.990   2.998 -0.6126  0.8785 -1.1989
   32MOL   C46420986   6.698   4.157   3.391  0.3190 -0.1246 -0.1176
   32MOL   C46520987   6.733   4.118   3.537 -0.9510 -0.7299 -0.0332
   32MOL   C46620988   6.878   4.066   3.570 -0.3400  0.0387  0.0063
   32MOL   C46720989   6.913   3.941   3.493 -0.0882  0.3443  0.5411
   32MOL   C46820990   7.032   3.870   3.551 -0.8647  0.9033  0.5394
   32MOL   C46920991   7.064   3.752   3.458 -0.2142  0.0686  0.3917
   32MOL   C47020992   7.180   3.666   3.513  1.2293  0.2969 -0.0646
   32MOL   C47120993   7.224   3.568   3.407  0.6340  0.6310  0.5595
   32MOL   C47220994   7.338   3.482   3.457 -0.0234 -0.0141 -0.1857
   32MOL   C47320995   7.398   3.389   3.351  0.1700 -1.1283 -0.3317
   32MOL   C47420996   7.511   3.297   3.399 -0.1378 -0.3252 -1.0166
   32MOL   H47520997   6.701   4.264   3.370  0.5241 -0.3190 -1.0834
   32MOL   H47620998   6.778   4.115   3.331 -0.4360 -1.0904 -0.4702
   32MOL   H47720999   6.670   4.032   3.558 -1.7114  0.1918  1.5470
   32MOL   H47821000   6.865   4.035   3.674 -1.2188  1.9715  0.4902
   32MOL   H47921001   6.945   4.151   3.562 -1.8661  1.1789 -1.0524
   32MOL   H48021002   6.831   3.869   3.497 -1.0305  1.2395 -1.6688
   32MOL   H48121003   6.930   3.959   3.387 -3.9355 -0.7381 -0.3506
   32MOL   H48221004   7.000   3.831   3.647  0.3650 -1.1132  0.1738
   32MOL   H48321005   7.120   3.934   3.556 -0.4037  0.3692 -0.6258
   32MOL   H48421006   6.980   3.684   3.443  0.2198 -0.8042  1.8385
   32MOL   H48521007   7.094   3.794   3.362  0.2427  0.8603  0.8777
   32MOL   H48621008   7.267   3.727   3.539  1.8523 -1.0642  1.0991
   32MOL   H48721009   7.153   3.607   3.600 -0.0700  2.6226  1.1672
   32MOL   H48821010   7.136   3.511   3.379  0.4177 -0.3564  3.0741
   32MOL   H48921011   7.257   3.623   3.319 -1.5277  1.4304  0.2317
   32MOL   H49021012   7.414   3.536   3.513 -0.9194  1.6175 -0.4816
   32MOL   H49121013   7.295   3.420   3.535  3.0359  0.0701  1.6148
   32MOL   H49221014   7.321   3.345   3.288  0.8311  0.4565 -2.3051
   32MOL   H49321015   7.439   3.460   3.279  1.3909 -0.7538  0.7146
   32MOL   H49421016   7.551   3.223   3.331 -1.6068 -0.9530 -1.2220
   32MOL   H49521017   7.468   3.237   3.480  0.1604 -0.2041 -0.7662
   32MOL   H49621018   7.595   3.357   3.432  0.5101 -0.4292 -2.4522
   32MOL   C49721019   6.696   4.231   3.638 -0.0258 -0.1374 -0.6434
   32MOL   C49821020   6.550   4.290   3.637 -0.1641  0.6935  0.0584
   32MOL   C49921021   6.558   4.438   3.660  0.2136 -0.1372 -0.6565
   32MOL   C50021022   6.615   4.527   3.541 -0.1627  0.3337 -0.7130
   32MOL   C50121023   6.575   4.671   3.536 -0.2855  0.8355 -0.7023
   32MOL   C50221024   6.638   4.762   3.650 -0.1912  0.4656  0.0539
   32MOL   C50321025   6.658   4.909   3.612  0.1579 -0.5448 -0.0360
   32MOL   C50421026   6.723   5.000   3.717 -0.5232 -0.1648 -0.3171
   32MOL   C50521027   6.643   5.006   3.846  0.6840 -0.5264 -0.3816
   32MOL   C50621028   6.720   5.102   3.931 -0.0727 -0.1046 -0.1183
   32MOL   C50721029   6.646   5.102   4.064  0.5391  0.0989 -0.0942
   32MOL   H50821030   6.710   4.188   3.737 -0.6367 -1.9872 -1.3436
   32MOL   H50921031   6.765   4.316   3.639  0.8782 -0.8580  1.2606
   32MOL   H51021032   6.518   4.266   3.536 -0.0196 -0.4079  0.2717
   32MOL   H51121033   6.612   4.461   3.752  0.7615  0.7626 -1.1924
   32MOL   H51221034   6.460   4.483   3.673  0.9076  1.1974  0.1077
   32MOL   H51321035   6.581   4.482   3.448 -0.8066  0.1934 -0.4121
   32MOL   H51421036   6.724   4.528   3.531 -0.2964 -0.9046 -2.4429
   32MOL   H51521037   6.620   4.706   3.444  0.8045 -2.7444 -1.5836
   32MOL   H51621038   6.468   4.690   3.528 -0.0868  1.0866 -3.1358
   32MOL   H51721039   6.569   4.756   3.735 -1.6573 -4.2815 -1.3299
   32MOL   H51821040   6.736   4.733   3.686 -0.2691 -1.3960 -1.1897
   32MOL   H51921041   6.722   4.902   3.523 -0.3671  1.0607 -0.5656
   32MOL   H52021042   6.560   4.947   3.587  0.0280 -1.3810 -0.8370
   32MOL   H52121043   6.730   5.101   3.676  1.4471 -0.4819 -0.8010
   32MOL   H52221044   6.823   4.959   3.730 -0.3135 -0.7940 -3.4926
   32MOL   H52321045   6.633   4.906   3.889 -0.5409  1.1928  3.6310
   32MOL   H52421046   6.547   5.051   3.821  2.2634  2.8372 -0.6056
   32MOL   H52521047   6.709   5.203   3.893 -2.0253  0.0590  0.8394
   32MOL   H52621048   6.825   5.075   3.948 -0.4657 -2.3281 -1.0487
   32MOL   H52721049   6.698   5.171   4.130 -0.3593  0.5703  0.1369
   32MOL   H52821050   6.638   5.002   4.104 -2.0778 -0.6463 -2.2861
   32MOL   H52921051   6.547   5.147   4.048  0.2186 -0.1442  1.1549
   32MOL   C53021052   6.459   4.221   3.744 -0.0538 -0.2887  0.6837
   32MOL   C53121053   6.308   4.259   3.748  0.8913 -0.0336 -0.1073
   32MOL   C53221054   6.235   4.177   3.860 -0.0235 -0.4317  0.3035
   32MOL   C53321055   6.257   4.233   3.996 -0.0165  0.5138  1.1501
   32MOL   C53421056   6.225   4.132   4.112  0.7871 -0.0490  0.0762
   32MOL   C53521057   6.188   4.208   4.237 -0.0003 -0.3967 -0.5046
   32MOL   C53621058   6.318   4.270   4.300  0.0263 -0.5078 -0.2772
   32MOL   C53721059   6.283   4.336   4.429 -0.0925 -0.2631 -0.0313
   32MOL   C53821060   6.405   4.409   4.490  0.1283  0.1542  0.1730
   32MOL   C53921061   6.370   4.491   4.619 -0.3590 -0.0218  0.0452
   32MOL   C54021062   6.280   4.420   4.719 -0.3255  0.0296 -0.0161
   32MOL   H54121063   6.470   4.114   3.728  0.7482  0.0105 -0.8803
   32MOL   H54221064   6.507   4.237   3.841  1.2108  0.2380 -0.0117
   32MOL   H54321065   6.313   4.362   3.783 -0.1183 -0.4740  1.3371
   32MOL   H54421066   6.267   4.073   3.855 -1.1612 -0.8370  1.2046
   32MOL   H54521067   6.126   4.180   3.854  0.0993  0.2001 -1.9003
   32MOL   H54621068   6.190   4.319   3.998  1.5036  1.8450 -1.9020
   32MOL   H54721069   6.360   4.266   4.009 -0.5132  2.7433 -0.2086
   32MOL   H54821070   6.305   4.060   4.131  3.2766  2.2868 -1.2288
   32MOL   H54921071   6.142   4.071   4.074  1.4056  0.1383 -1.6052
   32MOL   H55021072   6.125   4.147   4.302  1.8931  1.0791  2.8238
   32MOL   H55121073   6.126   4.294   4.210 -2.1739 -2.1644 -1.2990
   32MOL   H55221074   6.351   4.341   4.225  0.8666 -1.8528 -1.2037
   32MOL   H55321075   6.402   4.202   4.317 -0.8176 -0.9353  2.4647
   32MOL   H55421076   6.255   4.266   4.508 -0.9455  1.3199  1.0809
   32MOL   H55521077   6.197   4.402   4.421  0.3056  0.7472  3.1936
   32MOL   H55621078   6.447   4.480   4.419  0.2146 -0.2091 -0.1394
   32MOL   H55721079   6.487   4.342   4.515  0.9404  0.2595 -2.0998
   32MOL   H55821080   6.332   4.590   4.590  1.3387  1.2663  2.0897
   32MOL   H55921081   6.459   4.524   4.671 -0.2312 -2.3526  1.3489
   32MOL   H56021082   6.347   4.353   4.773 -0.3668  0.9677  1.2229
   32MOL   H56121083   6.231   4.498   4.777  1.4758  0.4955  0.9382
   32MOL   H56221084   6.192   4.369   4.680  0.4798 -0.2655 -1.4962
   32MOL   C56321085   6.233   4.238   3.608 -0.1888 -0.6047  0.8531
   32MOL   C56421086   6.118   4.335   3.570 -0.2237 -0.3613 -0.0947
   32MOL   C56521087   6.056   4.290   3.443 -0.0460  0.0140  0.1722
   32MOL   C56621088   5.930   4.368   3.381  0.3038 -0.1373 -0.1398
   32MOL   C56721089   5.810   4.370   3.475 -0.1439 -0.0726 -0.7066
   32MOL   C56821090   5.727   4.248   3.456 -0.5609 -0.0046  1.0902
   32MOL   C56921091   5.598   4.234   3.543 -0.6485  0.5107  0.4364
   32MOL   C57021092   5.519   4.111   3.495  0.7387  0.6471 -0.2709
   32MOL   C57121093   5.405   4.060   3.588 -0.3238  0.3127  0.3003
   32MOL   C57221094   5.441   3.981   3.711  0.0740 -0.3994  0.0133
   32MOL   C57321095   5.309   3.917   3.766  0.1656  0.4001 -0.3623
   32MOL   H57421096   6.216   4.132   3.594  2.6822 -1.0296  0.1703
   32MOL   H57521097   6.313   4.244   3.534 -0.8200  0.3026  0.2286
   32MOL   H57621098   6.046   4.339   3.652 -1.5966  0.0064 -1.3028
   32MOL   H57721099   6.027   4.187   3.461  2.1775 -0.4712  1.0114
   32MOL   H57821100   6.131   4.273   3.366  1.8812 -0.2776  2.1046
   32MOL   H57921101   5.899   4.331   3.283 -0.8672 -1.3597  0.6927
   32MOL   H58021102   5.959   4.473   3.372 -1.2869  0.3071 -0.1663
   32MOL   H58121103   5.750   4.459   3.454 -0.3742 -0.1080 -0.2180
   32MOL   H58221104   5.840   4.381   3.579 -0.5561 -0.5460 -0.5347
   32MOL   H58321105   5.698   4.259   3.352  1.4880 -1.0779  0.3968
   32MOL   H58421106   5.796   4.164   3.459 -1.1477 -0.5500 -0.2672
   32MOL   H58521107   5.624   4.224   3.648 -1.5977  0.2737  0.6532
   32MOL   H58621108   5.544   4.326   3.520  1.2544  1.3073 -1.0228
   32MOL   H58721109   5.587   4.028   3.481  2.4033  1.9170  0.1312
   32MOL   H58821110   5.487   4.130   3.393  0.4284  0.2805 -0.2453
   32MOL   H58921111   5.341   3.998   3.526 -0.8204 -0.4930  1.5784
   32MOL   H59021112   5.344   4.147   3.610  0.6594  1.2197 -0.5539
   32MOL   H59121113   5.501   4.036   3.784  0.5492 -3.0023  1.6571
   32MOL   H59221114   5.504   3.895   3.689 -1.3615 -1.3553 -0.4147
   32MOL   H59321115   5.228   3.989   3.759  0.3423  0.8860  2.0774
   32MOL   H59421116   5.275   3.826   3.716  0.5561  0.2494 -0.3567
   32MOL   H59521117   5.316   3.895   3.873 -1.4332  0.9245 -0.1396
   32MOL   C59621118   6.170   4.485   3.563 -0.1405  0.6603  0.0269
   32MOL   C59721119   6.083   4.595   3.625 -0.0084 -0.9181  0.7811
   32MOL   C59821120   6.108   4.745   3.583  0.2673 -0.1882 -0.2340
   32MOL   C59921121   6.076   4.768   3.429 -0.6234 -0.2535 -1.3393
   32MOL   C60021122   6.101   4.916   3.400  0.3081  0.1426 -0.0515
   32MOL   C60121123   6.099   4.952   3.241 -0.2693 -0.1228 -0.7242
   32MOL   C60221124   5.955   4.952   3.182 -0.4574 -0.4057  0.3099
   32MOL   C60321125   5.938   5.008   3.041  0.3367 -0.1215  0.4221
   32MOL   C60421126   5.799   4.997   2.982 -0.5158 -0.1473  0.1919
   32MOL   C60521127   5.777   5.102   2.867 -0.4958 -0.1863 -0.1008
   32MOL   C60621128   5.856   5.062   2.750 -0.1828 -0.2999  0.6283
   32MOL   H60721129   6.277   4.500   3.575  0.0709  1.0004 -2.0377
   32MOL   H60821130   6.178   4.507   3.456  0.1095 -1.4652 -0.4185
   32MOL   H60921131   5.985   4.574   3.582  1.4334 -1.1445 -2.5246
   32MOL   H61021132   6.213   4.773   3.594  0.3816 -1.0571  1.0222
   32MOL   H61121133   6.037   4.819   3.620 -0.4971 -1.4408  0.8411
   32MOL   H61221134   5.977   4.725   3.412  0.1438 -2.1572 -1.0275
   32MOL   H61321135   6.143   4.714   3.363  3.6148  0.6872  1.9967
   32MOL   H61421136   6.197   4.950   3.438 -0.0582 -0.0809  1.0684
   32MOL   H61521137   6.025   4.972   3.454  0.6067 -0.0210  0.5315
   32MOL   H61621138   6.146   5.049   3.226  2.3699 -0.8020  2.5460
   32MOL   H61721139   6.162   4.878   3.192 -0.3365 -0.2070 -0.6822
   32MOL   H61821140   5.899   5.023   3.243 -1.4082 -1.6124  0.8436
   32MOL   H61921141   5.910   4.855   3.198 -0.2036 -0.8834 -1.7671
   32MOL   H62021142   6.007   4.950   2.979  1.8997  1.4688  0.6280
   32MOL   H62121143   5.976   5.110   3.034  2.0413 -0.7681 -0.1699
   32MOL   H62221144   5.779   4.898   2.942  0.4654  0.3299 -1.5468
   32MOL   H62321145   5.736   5.027   3.066  1.5688  1.7361  1.1543
   32MOL   H62421146   5.796   5.204   2.900  2.6798 -0.9709  0.6679
   32MOL   H62521147   5.670   5.094   2.845 -0.1818  1.0389 -2.2213
   32MOL   H62621148   5.826   4.964   2.712  0.8331 -0.3624 -0.0506
   32MOL   H62721149   5.843   5.136   2.671 -0.3554  0.5898  1.4766
   32MOL   H62821150   5.959   5.052   2.785 -0.1013 -1.2155  0.1394
   32MOL   C62921151   6.076   4.593   3.780  0.0345  0.1371  0.0790
   32MOL   C63021152   5.966   4.674   3.851  0.3367 -0.0016 -0.7733
   32MOL   C63121153   5.915   4.630   3.991  0.2547 -0.1023  0.2887
   32MOL   C63221154   5.881   4.474   4.002  0.2743 -0.1276 -0.3759
   32MOL   C63321155   5.829   4.448   4.141  0.3310 -0.5142  0.0121
   32MOL   C63421156   5.804   4.301   4.182 -0.4297  1.0569 -0.1470
   32MOL   C63521157   5.764   4.286   4.332 -0.3235  0.4503  0.4998
   32MOL   C63621158   5.767   4.137   4.384  1.2617 -0.3184 -0.6741
   32MOL   C63721159   5.690   4.132   4.516 -0.0966  0.8060  0.0683
   32MOL   C63821160   5.664   3.987   4.572  0.2183  0.0332  0.1368
   32MOL   C63921161   5.569   3.979   4.688 -0.4348 -0.1822 -0.0158
   32MOL   H64021162   6.057   4.487   3.800  1.1230 -0.0470  0.1970
   32MOL   H64121163   6.169   4.621   3.830 -0.3002  2.1686 -0.3921
   32MOL   H64221164   5.989   4.777   3.877 -0.0684 -0.2470  0.5948
   32MOL   H64321165   5.986   4.664   4.067 -1.9184  1.7448  1.5343
   32MOL   H64421166   5.830   4.690   4.021  0.7011  1.4900 -1.5592
   32MOL   H64521167   5.971   4.419   3.974 -0.4519 -2.0083  0.8772
   32MOL   H64621168   5.803   4.444   3.932  0.8049  0.2403 -1.1315
   32MOL   H64721169   5.737   4.503   4.158  0.3411  0.2273 -2.2298
   32MOL   H64821170   5.898   4.486   4.217  1.0562 -1.5889 -0.0931
   32MOL   H64921171   5.897   4.246   4.166 -0.1086  1.1989  1.2095
   32MOL   H65021172   5.728   4.259   4.116  0.1741  1.2429 -0.9668
   32MOL   H65121173   5.663   4.325   4.344 -0.0382  0.4051  3.2650
   32MOL   H65221174   5.827   4.350   4.393  1.4741 -0.1655 -0.6722
   32MOL   H65321175   5.871   4.105   4.390  1.2195 -0.5883 -1.3237
   32MOL   H65421176   5.709   4.078   4.312  2.0945 -2.0052  0.0268
   32MOL   H65521177   5.593   4.181   4.509 -0.3684  0.2175 -0.3814
   32MOL   H65621178   5.741   4.181   4.599 -0.6614 -0.8433  1.4154
   32MOL   H65721179   5.758   3.943   4.605  0.2622 -1.4719 -1.8881
   32MOL   H65821180   5.632   3.919   4.493 -2.2417 -0.0215  1.1670
   32MOL   H65921181   5.487   4.040   4.649 -0.9392  0.1985  1.5929
   32MOL   H66021182   5.598   4.025   4.783 -1.4896 -1.0970  0.7558
   32MOL   H66121183   5.526   3.885   4.723 -0.3360  0.1890  1.1353
   32MOL   H66221184   5.873   4.672   3.794 -0.6090 -1.7096  0.7878
   33MOL     C121185   0.073   4.302   5.338  0.1002  0.4318 -0.0843
   33MOL     C221186   7.690   4.181   5.327 -0.1355  0.7422 -0.0422
   33MOL     C321187   7.638   4.156   5.179  0.2151  0.8022  0.0303
   33MOL     C421188   0.044   4.142   5.071 -0.5877  0.0791  0.1202
   33MOL     C521189   0.021   4.203   4.930 -0.3727  0.3580 -0.7163
   33MOL     C621190   0.128   4.175   4.824  0.0264  0.3296  0.1706
   33MOL     C721191   0.143   4.036   4.773 -0.5094 -0.5513  0.3889
   33MOL     C821192   0.013   3.960   4.723 -0.0542  0.2318 -0.9215
   33MOL     C921193   7.654   3.882   4.844  0.3127  0.2097 -0.4679
   33MOL    C1021194   7.554   3.774   4.791 -0.0479 -0.0914  0.1001
   33MOL    C1121195   7.608   3.659   4.708  0.2038  0.0014 -0.0139
   33MOL    H1221196   0.109   4.330   5.438 -0.5480 -0.4901  0.4155
   33MOL    H1321197   0.013   4.392   5.324  0.1815  0.6843  1.1327
   33MOL    H1421198   7.602   4.205   5.387 -1.4868  1.9028 -2.4329
   33MOL    H1521199   7.587   4.244   5.140  2.3875  2.5657  1.0528
   33MOL    H1621200   7.571   4.071   5.166  1.5212 -0.5241  1.8604
   33MOL    H1721201   0.053   4.033   5.065 -2.1386 -0.0590  0.0607
   33MOL    H1821202   0.141   4.183   5.097 -0.3627  0.0297 -0.6362
   33MOL    H1921203   7.627   4.172   4.892 -1.2248  0.8849  1.0169
   33MOL    H2021204   0.010   4.311   4.945 -0.6020  0.1309  0.8245
   33MOL    H2121205   0.229   4.205   4.854 -0.5186  1.7750  0.6090
   33MOL    H2221206   0.111   4.236   4.736 -0.1498  0.6408  0.4199
   33MOL    H2321207   0.219   4.039   4.695  0.0768 -0.7774  0.9448
   33MOL    H2421208   0.178   3.978   4.858  1.6851  2.0007  1.2909
   33MOL    H2521209   0.056   3.892   4.648 -1.0820 -0.6348 -0.7272
   33MOL    H2621210   7.644   4.030   4.682 -0.6666 -0.6866 -1.4348
   33MOL    H2721211   7.597   3.940   4.917 -0.9786 -3.2190  1.3862
   33MOL    H2821212   0.021   3.824   4.903 -0.8932 -2.3594 -1.4422
   33MOL    H2921213   7.487   3.828   4.725  0.3276 -0.4338 -0.5646
   33MOL    H3021214   7.504   3.728   4.876 -0.9984  0.9305  0.0993
   33MOL    H3121215   7.533   3.587   4.675  1.1313 -1.7114  1.5802
   33MOL    H3221216   7.666   3.687   4.619 -1.6631  0.0083 -1.2560
   33MOL    H3321217   7.678   3.599   4.765 -1.4318 -0.6641  1.3198
   33MOL    H3421218   0.159   4.305   5.271  0.9627 -0.7104  0.9412
   33MOL    C3521219   0.051   4.050   5.375  0.2960  0.1807  0.0204
   33MOL    C3621220   0.047   4.024   5.531  0.1030  0.8071  0.5076
   33MOL    C3721221   7.615   3.953   5.575  0.2780 -0.6873  0.2086
   33MOL    C3821222   7.480   4.009   5.515  0.3898  0.2486 -0.0137
   33MOL    C3921223   7.356   3.936   5.568 -0.2369  0.1801  0.1020
   33MOL    C4021224   7.223   4.002   5.519  0.5131 -0.6200  0.1210
   33MOL    C4121225   7.103   3.912   5.527  0.4325 -0.0494  0.1616
   33MOL    C4221226   7.070   3.869   5.668 -0.4136 -0.0848  0.9196
   33MOL    C4321227   6.943   3.791   5.664  0.4861  0.5450 -0.2093
   33MOL    C4421228   6.904   3.732   5.800 -0.9007  0.1676 -0.3951
   33MOL    C4521229   6.775   3.652   5.828  0.0084 -0.9728  0.0470
   33MOL    H4621230   0.156   4.050   5.342  0.7065 -1.4966  1.3048
   33MOL    H4721231   0.013   3.967   5.315 -1.7899 -0.1849  1.8079
   33MOL    H4821232   0.058   4.126   5.568  0.2935  1.0753 -0.2730
   33MOL    H4921233   7.622   3.847   5.554 -0.2394 -0.4178 -1.3407
   33MOL    H5021234   7.614   3.977   5.682  1.8425 -1.0432  0.3042
   33MOL    H5121235   7.490   4.020   5.407  0.1808 -2.1720 -0.2898
   33MOL    H5221236   7.461   4.113   5.543 -0.5972  0.0819 -0.0382
   33MOL    H5321237   7.349   3.926   5.676 -1.5859  3.4575  0.3594
   33MOL    H5421238   7.367   3.840   5.517 -0.2988  1.6089 -2.7129
   33MOL    H5521239   7.246   4.026   5.415 -1.3378  2.9265  0.4531
   33MOL    H5621240   7.207   4.092   5.578  2.6906  0.7059 -1.2467
   33MOL    H5721241   7.014   3.957   5.482  0.0744 -0.7718  0.1249
   33MOL    H5821242   7.125   3.822   5.469  1.8934 -0.0834  0.7473
   33MOL    H5921243   7.082   3.961   5.725  2.5262  0.7194 -0.9189
   33MOL    H6021244   7.146   3.799   5.701  0.0124 -0.3083 -0.5373
   33MOL    H6121245   6.954   3.710   5.592  1.4799  0.1358  0.3995
   33MOL    H6221246   6.861   3.854   5.627 -0.7930 -0.3084  1.1304
   33MOL    H6321247   6.995   3.679   5.828 -1.6329 -0.2512  1.2626
   33MOL    H6421248   6.912   3.814   5.870  2.8641 -1.2204  0.9335
   33MOL    H6521249   6.777   3.562   5.767 -0.5870 -2.2958  1.9314
   33MOL    H6621250   6.761   3.630   5.934 -0.5990 -2.1244 -0.2561
   33MOL    H6721251   6.693   3.710   5.786  1.4535  1.1402  0.0949
   33MOL    C6821252   0.171   3.952   5.593  0.0618 -0.4800 -0.7656
   33MOL    C6921253   0.192   3.960   5.751 -0.4450  0.1031 -0.2183
   33MOL    C7021254   0.338   3.907   5.775  0.4902  0.1459  0.8059
   33MOL    C7121255   0.359   3.758   5.733 -0.1268  0.3417 -0.5741
   33MOL    C7221256   0.461   3.676   5.822 -0.0358 -0.2826  0.2465
   33MOL    C7321257   0.472   3.532   5.781  0.1359 -0.6440 -0.4595
   33MOL    C7421258   0.590   3.461   5.840 -0.5535 -0.2559  0.1820
   33MOL    C7521259   0.573   3.310   5.817 -0.3102  0.1403  0.4406
   33MOL    C7621260   0.564   3.256   5.673  0.0732 -0.1210 -0.7033
   33MOL    C7721261   0.602   3.101   5.667  0.1402 -0.0335 -0.1197
   33MOL    C7821262   0.540   3.024   5.546  0.1470  0.5064  0.1095
   33MOL    H7921263   0.260   3.998   5.550  2.8950 -3.5023  1.6700
   33MOL    H8021264   0.178   3.849   5.560 -0.3834 -1.7057  2.7683
   33MOL    H8121265   0.130   3.888   5.804 -1.1092 -0.3348 -1.5470
   33MOL    H8221266   0.357   3.912   5.882  2.4544 -1.0062  0.5307
   33MOL    H8321267   0.417   3.971   5.737  0.5089  0.2848  1.0828
   33MOL    H8421268   0.260   3.712   5.726  1.0777 -2.1389 -1.7644
   33MOL    H8521269   0.406   3.756   5.634 -1.6268  2.4464 -1.3816
   33MOL    H8621270   0.422   3.680   5.924 -2.0012  2.2845 -0.5442
   33MOL    H8721271   0.556   3.728   5.817 -0.9431  1.5657  1.3965
   33MOL    H8821272   0.384   3.476   5.811  0.1092 -0.7033 -0.6454
   33MOL    H8921273   0.479   3.530   5.672  1.0659  0.0570 -0.4267
   33MOL    H9021274   0.603   3.487   5.945  1.0838  0.6207 -0.2192
   33MOL    H9121275   0.671   3.506   5.783  0.1250 -0.4319  0.9950
   33MOL    H9221276   0.656   3.266   5.873 -0.7856 -1.4640 -0.0859
   33MOL    H9321277   0.484   3.276   5.869  0.8128 -1.4856  1.3489
   33MOL    H9421278   0.470   3.292   5.632  0.2258  1.6008  0.3801
   33MOL    H9521279   0.640   3.308   5.614 -0.6238  0.0178 -1.4873
   33MOL    H9621280   0.710   3.085   5.664  0.2145  0.6787 -1.5166
   33MOL    H9721281   0.568   3.061   5.763  1.4038 -0.3362  0.2136
   33MOL    H9821282   0.567   3.072   5.452  2.5996 -1.2790 -0.1760
   33MOL    H9921283   0.431   3.029   5.545  0.1692  1.0452  0.5276
   33MOL   H10021284   0.586   2.925   5.539 -2.1297 -0.6300  0.7894
   33MOL   C10121285   0.169   4.107   5.817  0.5901  0.4687  0.6973
   33MOL   C10221286   0.138   4.104   5.967  0.2735  0.0391  0.3327
   33MOL   C10321287   0.001   4.051   5.996  0.2123 -0.8170  0.3890
   33MOL   C10421288   7.695   3.964   6.121  0.5159  0.0965 -0.0882
   33MOL   C10521289   7.567   3.885   6.157  0.2446 -0.5437 -1.2756
   33MOL   C10621290   7.570   3.791   6.275  0.5896 -0.2648  0.0887
   33MOL   C10721291   7.451   3.692   6.290  0.2492 -0.3071 -0.0375
   33MOL   C10821292   7.455   3.620   6.422  0.2379 -0.8684 -0.7830
   33MOL   C10921293   7.339   3.664   6.523 -0.1847  0.0037 -0.0192
   33MOL   C11021294   7.328   3.582   6.654 -0.4530  0.4151 -0.0667
   33MOL   C11121295   7.214   3.636   6.731 -0.1383  0.4888 -0.0821
   33MOL   H11221296   0.250   4.175   5.790  1.2914 -0.5846  0.1114
   33MOL   H11321297   0.086   4.159   5.770  0.0872 -1.4350 -0.5992
   33MOL   H11421298   0.203   4.037   6.023  1.6748  2.3963  1.6629
   33MOL   H11521299   7.626   4.126   5.996  2.0434  1.1439  0.5391
   33MOL   H11621300   7.680   3.968   5.930  1.4132 -0.7738 -0.1317
   33MOL   H11721301   0.070   3.889   6.118  1.2474  0.7172  2.3300
   33MOL   H11821302   0.003   4.036   6.202 -1.2833 -0.5261  0.7283
   33MOL   H11921303   7.488   3.960   6.162  1.1713  0.4869 -1.8057
   33MOL   H12021304   7.527   3.843   6.064 -2.0001  0.1706 -0.6685
   33MOL   H12121305   7.669   3.744   6.277  1.2719  1.1574  2.3373
   33MOL   H12221306   7.587   3.847   6.367  3.6142  0.3788 -0.7946
   33MOL   H12321307   7.449   3.613   6.215  1.3935  1.6665 -2.2095
   33MOL   H12421308   7.354   3.740   6.279 -0.6713 -1.9929  0.5764
   33MOL   H12521309   7.451   3.514   6.398  3.3781 -1.2311  0.0946
   33MOL   H12621310   7.548   3.648   6.471 -0.4114  0.5274 -0.3198
   33MOL   H12721311   7.340   3.771   6.545 -1.6001  0.4776 -2.0902
   33MOL   H12821312   7.245   3.643   6.473 -0.8992  3.2854 -0.1752
   33MOL   H12921313   7.420   3.597   6.711 -0.7587 -0.8627  0.7873
   33MOL   H13021314   7.322   3.475   6.631  0.8578 -0.1251  1.9949
   33MOL   H13121315   7.205   3.741   6.759 -1.7919 -0.2771  2.5313
   33MOL   H13221316   7.123   3.608   6.678  0.5763  0.2082 -1.1799
   33MOL   H13321317   7.211   3.591   6.831  0.5158 -0.3969 -0.4580
   33MOL   C13421318   0.149   4.238   6.049  0.7493 -0.0706 -0.4123
   33MOL   C13521319   0.293   4.289   6.067 -0.3045  0.2608  0.0844
   33MOL   C13621320   0.379   4.191   6.147  0.3069 -0.1879 -0.2959
   33MOL   C13721321   0.334   4.138   6.285  0.4565  0.4162 -0.2163
   33MOL   C13821322   0.316   3.989   6.299 -0.4402  0.1382  0.0828
   33MOL   C13921323   0.239   3.947   6.422  0.1331 -0.3997  0.3954
   33MOL   C14021324   0.235   3.793   6.432  0.3416  1.0835  0.0411
   33MOL   C14121325   0.171   3.740   6.560  0.3965 -0.1941 -0.0481
   33MOL   C14221326   0.135   3.590   6.548  0.5293 -0.1454  0.6663
   33MOL   C14321327   0.055   3.536   6.665  0.1503 -0.8270 -0.5188
   33MOL   C14421328   0.018   3.392   6.637 -0.0135  0.6055 -0.1128
   33MOL   H14521329   0.086   4.304   5.989 -0.4659 -0.8576 -0.0207
   33MOL   H14621330   0.100   4.235   6.147 -0.6404 -0.6348 -1.1069
   33MOL   H14721331   0.319   4.289   5.961  0.9429 -0.9251  0.3743
   33MOL   H14821332   0.477   4.233   6.169 -0.0076  0.6986 -0.5948
   33MOL   H14921333   0.399   4.113   6.074  0.7123 -0.8878  0.5547
   33MOL   H15021334   0.394   4.168   6.371 -0.0227 -1.7701  0.9030
   33MOL   H15121335   0.240   4.193   6.293  0.8614  1.0325  0.3397
   33MOL   H15221336   0.277   3.945   6.208  0.6734 -1.0953  0.1890
   33MOL   H15321337   0.417   3.948   6.296  0.2266  1.5962  1.4103
   33MOL   H15421338   0.274   3.996   6.513  0.2938 -1.0971  0.7109
   33MOL   H15521339   0.138   3.985   6.404  0.8106  0.5160 -1.6432
   33MOL   H15621340   0.201   3.744   6.341  0.4511  0.3053  0.4146
   33MOL   H15721341   0.339   3.762   6.423  0.1395  0.1070  1.0028
   33MOL   H15821342   0.223   3.768   6.652 -0.7730 -0.7754  0.8050
   33MOL   H15921343   0.081   3.801   6.569  0.4430 -0.0452 -0.5849
   33MOL   H16021344   0.083   3.574   6.454  0.6184 -0.7573  0.7228
   33MOL   H16121345   0.219   3.527   6.521 -1.0079 -0.8256 -2.8262
   33MOL   H16221346   0.115   3.550   6.755 -1.6332  3.1660  0.1591
   33MOL   H16321347   7.659   3.579   6.680  0.4751  0.0955 -0.9578
   33MOL   H16421348   7.667   3.352   6.723  1.9688 -0.0603  0.8588
   33MOL   H16521349   0.111   3.335   6.634  1.4059  2.9221 -1.1827
   33MOL   H16621350   7.660   3.383   6.547  1.6755 -0.6640 -1.1736
   33MOL   C16721351   0.284   4.438   6.121 -0.5068 -0.4333 -0.0608
   33MOL   C16821352   0.412   4.518   6.099 -0.3517 -0.4055 -0.4948
   33MOL   C16921353   0.413   4.656   6.179 -0.2412  0.0579 -0.1654
   33MOL   C17021354   0.412   4.641   6.337 -0.9994 -0.1157  0.2569
   33MOL   C17121355   0.400   4.773   6.408  0.5224  0.5327  0.5684
   33MOL   C17221356   0.383   4.752   6.557 -0.0882  0.8053  0.1955
   33MOL   C17321357   0.385   4.893   6.625  0.2596 -0.0165  0.3556
   33MOL   C17421358   0.396   4.881   6.776 -0.0947  0.2959 -0.1697
   33MOL   C17521359   0.454   4.997   6.855  0.3561  0.0328 -0.2052
   33MOL   C17621360   0.463   4.964   7.008  0.5513  0.6520  0.0154
   33MOL   C17721361   0.501   5.093   7.080 -0.3654 -0.1554 -0.1173
   33MOL   H17821362   0.204   4.497   6.076 -1.6659 -2.0222 -0.1437
   33MOL   H17921363   0.254   4.438   6.225 -2.3717  4.0176 -0.5254
   33MOL   H18021364   0.497   4.462   6.138  0.5374  1.4469  0.2523
   33MOL   H18121365   0.316   4.701   6.163 -0.1094  0.4078  0.0276
   33MOL   H18221366   0.482   4.727   6.135 -2.4216  1.5722 -1.2110
   33MOL   H18321367   0.341   4.569   6.379 -0.6971  0.0309  1.0400
   33MOL   H18421368   0.503   4.591   6.370 -1.8006 -1.2027  0.8607
   33MOL   H18521369   0.310   4.822   6.372 -0.7636 -2.0416  0.0938
   33MOL   H18621370   0.473   4.847   6.375  1.6025 -1.4198 -1.6645
   33MOL   H18721371   0.296   4.688   6.571  1.1687 -0.8206  0.6047
   33MOL   H18821372   0.466   4.689   6.589 -0.8980  0.1331  0.9742
   33MOL   H18921373   0.286   4.931   6.600  0.0477 -1.3246 -0.8803
   33MOL   H19021374   0.464   4.959   6.591  0.4501  0.0990  1.0266
   33MOL   H19121375   0.291   4.884   6.805 -0.1477  0.8519 -0.4117
   33MOL   H19221376   0.436   4.784   6.803 -0.8556 -0.5133 -1.9042
   33MOL   H19321377   0.412   5.094   6.831  0.4460  0.0635 -0.2348
   33MOL   H19421378   0.553   5.011   6.812  1.3600 -0.5043  1.8201
   33MOL   H19521379   0.528   4.878   7.021  0.6741  0.7019 -0.2676
   33MOL   H19621380   0.366   4.930   7.045  1.2925 -0.4244  0.9912
   33MOL   H19721381   0.609   5.106   7.075 -0.4675  0.4634 -0.7438
   33MOL   H19821382   0.486   5.080   7.187  1.4276 -1.4584  0.0006
   33MOL   H19921383   0.446   5.185   7.061 -1.4560 -1.2099 -2.2806
   33MOL   C20021384   0.456   4.542   5.953  0.5138  0.2721  0.0875
   33MOL   C20121385   0.597   4.497   5.912  0.0203  0.0701 -0.0089
   33MOL   C20221386   0.620   4.344   5.911  0.1643  0.6253 -0.6415
   33MOL   C20321387   0.693   4.301   5.787 -0.8888  0.3391 -0.2210
   33MOL   C20421388   0.701   4.143   5.787  0.2682 -0.1242  0.2807
   33MOL   C20521389   0.728   4.092   5.642 -0.8284  0.0329  0.2175
   33MOL   C20621390   0.591   4.087   5.556 -0.0197  0.0864 -0.5689
   33MOL   C20721391   0.621   4.115   5.406  0.2663  0.0705 -0.3482
   33MOL   C20821392   0.505   4.090   5.308 -1.0007 -0.0799  0.1045
   33MOL   C20921393   0.543   4.124   5.161 -0.4080  0.1685  0.2357
   33MOL   C21021394   0.430   4.088   5.056  0.0900 -0.4709 -0.0760
   33MOL   H21121395   0.390   4.495   5.880 -0.3567  1.5972 -0.0037
   33MOL   H21221396   0.438   4.646   5.928 -1.2007  0.1934  0.8929
   33MOL   H21321397   0.595   4.531   5.809 -0.4900 -0.8912 -0.3198
   33MOL   H21421398   0.525   4.292   5.918 -0.8486  2.7136  2.7440
   33MOL   H21521399   0.669   4.311   6.003 -0.6757 -2.9820 -1.4125
   33MOL   H21621400   0.787   4.355   5.771 -0.1588 -0.4918  1.1082
   33MOL   H21721401   0.627   4.338   5.709 -3.5800 -1.8105  0.9663
   33MOL   H21821402   0.604   4.099   5.808 -0.0282  0.4956  0.2173
   33MOL   H21921403   0.777   4.117   5.861  0.3114  0.2246  0.3586
   33MOL   H22021404   0.799   4.163   5.599 -0.6218  0.4211  1.1692
   33MOL   H22121405   0.779   3.996   5.637  0.6961  0.9360 -2.3278
   33MOL   H22221406   0.509   4.153   5.583  0.3987 -0.0643  1.1020
   33MOL   H22321407   0.539   3.993   5.573 -1.9561  1.4760  1.4642
   33MOL   H22421408   0.701   4.049   5.371 -0.6809 -1.2571 -0.0649
   33MOL   H22521409   0.655   4.216   5.383  0.6626  0.2174  0.8761
   33MOL   H22621410   0.419   4.148   5.341 -1.5840 -1.1941  0.5827
   33MOL   H22721411   0.480   3.984   5.315  0.5954 -0.4303  0.6902
   33MOL   H22821412   0.570   4.228   5.143 -1.8137  0.1743 -1.9925
   33MOL   H22921413   0.633   4.067   5.139 -1.1667 -1.1427  0.4768
   33MOL   H23021414   0.345   4.153   5.076 -0.4310 -0.5204 -2.0928
   33MOL   H23121415   0.396   3.988   5.081 -2.6401  0.7906  1.5329
   33MOL   H23221416   0.469   4.096   4.955 -0.0228 -0.5740 -0.1267
   33MOL   C23321417   0.711   4.570   5.986  0.5080  0.4162 -0.1682
   33MOL   C23421418   0.719   4.720   5.948 -0.3113 -0.0495 -0.2255
   33MOL   C23521419   0.745   4.758   5.803 -0.2218  0.1622 -0.4461
   33MOL   C23621420   0.627   4.848   5.743  0.2574  0.0490  0.7020
   33MOL   C23721421   0.643   4.879   5.589 -0.1914 -0.2944 -0.9629
   33MOL   C23821422   0.764   4.968   5.565  0.5310  0.6460  0.7363
   33MOL   C23921423   0.766   5.026   5.424 -0.0027 -0.4270  0.8047
   33MOL   C24021424   0.900   5.096   5.406  0.7295  0.7023 -0.0689
   33MOL   C24121425   0.908   5.164   5.269 -0.0404 -0.0436  0.3799
   33MOL   C24221426   0.934   5.059   5.151 -0.2538  0.0473 -0.0759
   33MOL   C24321427   0.997   5.107   5.022 -0.3530 -0.1079 -0.2608
   33MOL   H24421428   0.804   4.519   5.958  0.1131  0.2296 -1.1802
   33MOL   H24521429   0.699   4.553   6.093 -0.7458 -1.4648 -0.5937
   33MOL   H24621430   0.621   4.766   5.963  0.1932  0.3583  1.9761
   33MOL   H24721431   0.837   4.813   5.783 -0.0202 -0.5234 -1.4272
   33MOL   H24821432   0.764   4.671   5.740 -0.7644  0.1647 -0.6152
   33MOL   H24921433   0.607   4.937   5.802 -1.5120  0.4114 -0.4014
   33MOL   H25021434   0.542   4.779   5.750 -0.0318  0.2519 -0.7069
   33MOL   H25121435   0.551   4.930   5.557 -0.7740  0.5999  1.9911
   33MOL   H25221436   0.656   4.784   5.537  0.7339  0.5483 -2.2922
   33MOL   H25321437   0.856   4.911   5.582 -0.0015 -0.8888 -1.3507
   33MOL   H25421438   0.766   5.047   5.640  0.8551  0.5475  0.8371
   33MOL   H25521439   0.752   4.952   5.345 -1.1374 -0.2228  0.8170
   33MOL   H25621440   0.678   5.089   5.411  1.2052  0.8156 -1.7273
   33MOL   H25721441   0.910   5.166   5.489 -1.6391 -1.6196  2.2602
   33MOL   H25821442   0.976   5.022   5.431  0.5043  0.4325 -0.1874
   33MOL   H25921443   0.818   5.221   5.243  0.1864  0.1173 -0.0656
   33MOL   H26021444   0.996   5.228   5.271 -1.3092  1.8427 -1.4227
   33MOL   H26121445   0.835   5.020   5.128  0.4555 -2.6904  1.2694
   33MOL   H26221446   0.994   4.978   5.192 -1.2248  0.8897  3.1799
   33MOL   H26321447   1.103   5.128   5.032 -0.6742  1.3826  0.1493
   33MOL   H26421448   0.945   5.195   4.986  0.3579  0.2866 -0.3325
   33MOL   H26521449   0.987   5.033   4.942 -2.7484  0.7872 -0.8269
   33MOL   C26621450   0.829   4.786   6.039 -0.1402  0.5129  0.6483
   33MOL   C26721451   0.833   4.936   6.049  0.8528  0.8693  0.4278
   33MOL   C26821452   0.973   4.996   6.088  0.8482  0.3821  0.2977
   33MOL   C26921453   1.065   4.998   5.972 -0.6086 -0.4771 -0.3944
   33MOL   C27021454   1.061   5.116   5.871  0.2639 -0.0230  0.3120
   33MOL   C27121455   1.140   5.099   5.739  0.1664 -0.5393  0.0654
   33MOL   C27221456   1.155   5.240   5.673 -0.5425 -0.0338 -0.4528
   33MOL   C27321457   1.227   5.225   5.534  0.1969 -0.4898 -0.8740
   33MOL   C27421458   1.250   5.364   5.461 -0.3262  0.7999  0.6869
   33MOL   C27521459   1.346   5.355   5.351  0.2330  0.2623  0.4470
   33MOL   C27621460   1.287   5.277   5.234 -0.5104  0.1123  0.2689
   33MOL   H27721461   0.928   4.756   6.005 -1.0603  0.8516 -2.4518
   33MOL   H27821462   0.828   4.740   6.138 -0.2958  2.6686  1.6859
   33MOL   H27921463   0.817   4.973   5.947  1.0807 -1.2735 -0.4003
   33MOL   H28021464   0.974   5.102   6.113 -0.2388  0.2619  0.9141
   33MOL   H28121465   1.028   4.939   6.163  2.3138  0.1826 -0.9219
   33MOL   H28221466   1.064   4.898   5.929  2.0289 -0.9037  0.4732
   33MOL   H28321467   1.164   5.005   6.016 -0.2145  0.2308 -1.3642
   33MOL   H28421468   1.093   5.202   5.930  1.8327 -0.4886  0.1634
   33MOL   H28521469   0.954   5.135   5.857  0.2174  0.9436  1.8145
   33MOL   H28621470   1.093   5.023   5.676 -1.8374 -1.2895  2.3650
   33MOL   H28721471   1.237   5.058   5.766 -0.5834 -1.8624  0.8124
   33MOL   H28821472   1.058   5.282   5.649 -0.0203  1.6020  0.2115
   33MOL   H28921473   1.209   5.309   5.737 -0.6351  0.2351 -0.6673
   33MOL   H29021474   1.177   5.149   5.475  1.8213 -1.0703 -1.5065
   33MOL   H29121475   1.323   5.191   5.572  0.3620  0.8943 -0.0042
   33MOL   H29221476   1.153   5.406   5.434  0.1079  0.6139 -1.2051
   33MOL   H29321477   1.298   5.434   5.531  1.7786  0.0040  0.0844
   33MOL   H29421478   1.446   5.320   5.380  0.4059  1.7525  1.7062
   33MOL   H29521479   1.366   5.457   5.318  2.1292 -0.8763 -2.1128
   33MOL   H29621480   1.354   5.284   5.148 -0.8711  0.4170  0.0088
   33MOL   H29721481   1.188   5.306   5.199 -1.7151 -1.7395  1.9954
   33MOL   H29821482   1.283   5.170   5.255  1.4587 -0.4505 -1.9823
   33MOL   C29921483   0.737   4.985   6.157 -0.3524 -0.1892 -0.5610
   33MOL   C30021484   0.639   5.087   6.097  0.2566  0.1832 -0.0682
   33MOL   C30121485   0.692   5.224   6.044 -0.0542  0.1586 -0.2329
   33MOL   C30221486   0.738   5.334   6.149  0.4786 -0.7602 -0.1284
   33MOL   C30321487   0.864   5.412   6.104  0.7224 -0.2914 -0.5179
   33MOL   C30421488   0.848   5.462   5.964 -0.6796 -0.2917 -0.0317
   33MOL   C30521489   0.983   5.521   5.913  0.4201 -0.2335  0.2979
   33MOL   C30621490   0.968   5.581   5.775  0.0723 -0.0327 -0.3988
   33MOL   C30721491   0.914   5.723   5.766  0.1096  0.3409  0.6963
   33MOL   C30821492   0.931   5.789   5.627 -0.0674  0.4976  0.6656
   33MOL   C30921493   1.072   5.815   5.584 -0.1463 -0.3214 -0.3836
   33MOL   H31021494   0.794   5.041   6.231  0.4821  0.5288 -1.7410
   33MOL   H31121495   0.686   4.909   6.215 -2.3282  3.2623  2.4855
   33MOL   H31221496   0.584   5.043   6.013  0.7927 -1.4571  0.4378
   33MOL   H31321497   0.770   5.195   5.973 -0.8416 -1.6954 -0.3931
   33MOL   H31421498   0.620   5.260   5.971 -0.2762  0.6391  0.2231
   33MOL   H31521499   0.660   5.407   6.170  2.4840  1.2137  0.6494
   33MOL   H31621500   0.755   5.280   6.242 -0.2431  0.7445  0.8903
   33MOL   H31721501   0.893   5.489   6.176  1.8935 -0.4707 -0.7925
   33MOL   H31821502   0.947   5.341   6.105  1.3276  0.4227  1.6794
   33MOL   H31921503   0.776   5.543   5.955  2.8257  2.7075 -3.8323
   33MOL   H32021504   0.809   5.385   5.897  1.5841  0.5132 -2.3803
   33MOL   H32121505   1.021   5.581   5.995 -2.5209  2.1944 -0.0351
   33MOL   H32221506   1.053   5.440   5.893  1.0783  0.6682 -1.0787
   33MOL   H32321507   0.928   5.507   5.704 -2.0681  0.5722  0.1487
   33MOL   H32421508   1.070   5.579   5.738  1.4793 -1.0101  3.3454
   33MOL   H32521509   0.971   5.786   5.835  0.2355  1.2484 -0.2221
   33MOL   H32621510   0.811   5.727   5.801 -0.3087  1.1005 -0.6137
   33MOL   H32721511   0.876   5.883   5.630 -1.2431 -0.1527 -0.0717
   33MOL   H32821512   0.879   5.730   5.552  3.2402 -0.6224 -0.8782
   33MOL   H32921513   1.130   5.838   5.672 -0.0561 -2.6237  0.1933
   33MOL   H33021514   1.125   5.731   5.539  1.3486  1.6560 -2.4093
   33MOL   H33121515   1.079   5.893   5.508  0.8054  0.0172  0.0503
   33MOL   C33221516   0.538   5.117   6.207  0.3185  0.7206  0.3983
   33MOL   C33321517   0.404   5.152   6.142  0.4492 -0.1279 -0.3895
   33MOL   C33421518   0.314   5.234   6.235  0.2354  0.2248 -0.2581
   33MOL   C33521519   0.306   5.193   6.390  0.1625 -0.3684 -0.0016
   33MOL   C33621520   0.210   5.287   6.466  0.6726 -0.5247 -0.0932
   33MOL   C33721521   0.180   5.253   6.617  0.7940  0.1444 -0.4438
   33MOL   C33821522   0.266   5.330   6.722  0.2888 -0.5021 -1.1260
   33MOL   C33921523   0.221   5.479   6.734  0.2837  0.6629 -0.7969
   33MOL   C34021524   0.284   5.548   6.861  0.1184  0.4403  0.0308
   33MOL   C34121525   0.216   5.512   6.985 -0.3974 -0.4475  0.1356
   33MOL   C34221526   0.276   5.570   7.112 -0.0664  0.7505  0.4458
   33MOL   H34321527   0.522   5.040   6.282 -0.0225 -0.5365 -0.9413
   33MOL   H34421528   0.558   5.205   6.267  0.7297  0.8022  0.1429
   33MOL   H34521529   0.419   5.213   6.053 -0.6004 -0.4245 -0.7792
   33MOL   H34621530   0.215   5.249   6.193 -0.1699 -0.5469  0.3961
   33MOL   H34721531   0.338   5.340   6.233  0.1311  0.2486 -0.2405
   33MOL   H34821532   0.274   5.090   6.401 -1.5319  0.2451  1.0162
   33MOL   H34921533   0.403   5.196   6.439 -0.6286  0.6558  1.5393
   33MOL   H35021534   0.247   5.390   6.461 -0.1553 -0.1894  0.6222
   33MOL   H35121535   0.119   5.299   6.408  0.4504  0.0258  0.3699
   33MOL   H35221536   0.179   5.146   6.638  1.1161  0.4977  1.4933
   33MOL   H35321537   0.075   5.279   6.632  1.4408  2.1907  0.8003
   33MOL   H35421538   0.372   5.330   6.700  0.4296 -0.9134 -0.4558
   33MOL   H35521539   0.259   5.270   6.813 -1.4321  1.1870 -0.1035
   33MOL   H35621540   0.265   5.509   6.639  1.0952 -0.7569 -0.8823
   33MOL   H35721541   0.115   5.499   6.719 -0.0517  0.1908  0.8985
   33MOL   H35821542   0.289   5.656   6.855  1.6061  0.3457 -0.8892
   33MOL   H35921543   0.386   5.509   6.871 -0.3554 -0.4333  1.5231
   33MOL   H36021544   0.213   5.404   6.997 -2.0499 -0.7711 -2.8214
   33MOL   H36121545   0.113   5.545   6.975  0.0122  0.8034 -0.0124
   33MOL   H36221546   0.230   5.523   7.198 -0.7709  0.6366  0.0071
   33MOL   H36321547   0.384   5.558   7.121  0.1587  1.4933 -1.0788
   33MOL   H36421548   0.245   5.675   7.114 -0.4946  0.6388 -0.3074
   33MOL   C36521549   0.334   5.022   6.095 -0.6467  0.3639  0.6678
   33MOL   C36621550   0.222   5.024   5.991  0.4270 -0.4295  0.0003
   33MOL   C36721551   0.280   5.065   5.850  0.1356  0.4758  0.3980
   33MOL   C36821552   0.177   5.076   5.738  0.2570  0.0843 -0.6051
   33MOL   C36921553   0.222   5.151   5.602  0.7227 -0.2811 -0.0874
   33MOL   C37021554   0.115   5.147   5.488 -0.4872 -0.1278  1.0016
   33MOL   C37121555   7.687   5.222   5.524 -0.1691 -0.3968 -0.2626
   33MOL   C37221556   7.615   5.273   5.403 -0.6817 -0.1573 -0.1301
   33MOL   C37321557   7.570   5.165   5.300 -0.3709  0.5244  0.8572
   33MOL   C37421558   7.494   5.218   5.179  0.0933  0.1359  0.1833
   33MOL   C37521559   7.488   5.112   5.074  0.1304  0.5650 -0.1952
   33MOL   H37621560   0.406   4.946   6.066 -2.7948 -1.1061 -0.9253
   33MOL   H37721561   0.289   4.988   6.188  1.9745 -3.3335  0.6607
   33MOL   H37821562   0.156   5.103   6.027  0.1832 -0.7188  0.1918
   33MOL   H37921563   0.358   4.999   5.810 -0.1016  0.9549 -0.8882
   33MOL   H38021564   0.323   5.164   5.862 -0.8715  1.0446 -0.5700
   33MOL   H38121565   0.083   5.106   5.784  0.2466 -1.2093  0.2495
   33MOL   H38221566   0.165   4.975   5.700 -1.5154 -0.1381  0.4725
   33MOL   H38321567   0.317   5.110   5.568 -0.2177 -2.7392  0.0956
   33MOL   H38421568   0.246   5.254   5.626 -0.8598  0.2114 -0.5345
   33MOL   H38521569   0.101   5.049   5.443  0.7230 -0.9872  2.4258
   33MOL   H38621570   0.156   5.190   5.397 -2.2676 -2.1416 -0.7885
   33MOL   H38721571   7.620   5.153   5.575 -0.4765  0.2459  0.2280
   33MOL   H38821572   0.000   5.312   5.585  0.9258 -0.4344 -0.4912
   33MOL   H38921573   7.667   5.356   5.354  0.0080  0.3351  1.4142
   33MOL   H39021574   7.525   5.319   5.446 -1.5085 -0.9383 -0.9929
   33MOL   H39121575   7.661   5.117   5.265 -0.1984  0.2221  1.7181
   33MOL   H39221576   7.513   5.088   5.352 -1.9557  0.2339 -1.2242
   33MOL   H39321577   7.391   5.241   5.207  0.0028  1.2196 -0.9967
   33MOL   H39421578   7.529   5.309   5.131 -0.1855 -0.2355 -0.7332
   33MOL   H39521579   7.586   5.106   5.026  0.2320  1.4069 -0.1045
   33MOL   H39621580   7.418   5.136   4.994  0.3292 -1.0797 -0.8948
   33MOL   H39721581   7.445   5.017   5.107  1.5208  0.4296  1.3068
   33MOL   C39821582   0.146   4.886   6.001  0.6688 -0.2209 -0.4988
   33MOL   C39921583   7.695   4.894   6.017  0.4724 -1.0101  0.3909
   33MOL   C40021584   7.637   4.967   6.142 -0.0758  0.2781 -0.7685
   33MOL   C40121585   7.670   4.891   6.273 -0.6299  0.1066 -0.5986
   33MOL   C40221586   7.640   4.963   6.402 -0.8772  0.3656 -0.2387
   33MOL   C40321587   7.493   4.943   6.429  0.0007  0.5622 -0.4324
   33MOL   C40421588   7.447   5.061   6.514 -0.1627  0.0427 -0.9333
   33MOL   C40521589   7.332   5.017   6.605 -0.4613 -0.8701  0.2161
   33MOL   C40621590   7.301   5.138   6.694 -0.1060  0.3239  0.0409
   33MOL   C40721591   7.210   5.079   6.808 -0.0962 -0.4137 -0.4958
   33MOL   C40821592   7.127   5.187   6.875  0.6720 -0.6004  0.1304
   33MOL   H40921593   0.185   4.827   6.083  0.2914 -0.5214 -0.5325
   33MOL   H41021594   0.170   4.823   5.915 -0.5107 -0.7993 -0.4166
   33MOL   H41121595   7.669   4.966   5.938  1.2748  0.0662  1.0837
   33MOL   H41221596   7.530   4.987   6.137 -0.5999 -2.3861 -0.5652
   33MOL   H41321597   7.682   5.067   6.139  2.2937 -0.7306  0.3031
   33MOL   H41421598   7.620   4.794   6.264  0.2121 -0.2665 -1.4770
   33MOL   H41521599   0.075   4.879   6.281 -0.6547  0.2530 -0.0644
   33MOL   H41621600   7.692   4.912   6.483  0.7314  1.7613 -0.3856
   33MOL   H41721601   7.680   5.064   6.402  1.1079 -0.3881  0.9938
   33MOL   H41821602   7.473   4.854   6.488 -0.5141  0.7643 -0.3008
   33MOL   H41921603   7.441   4.928   6.335 -1.0934 -0.7199  0.3561
   33MOL   H42021604   7.528   5.123   6.552 -0.6738 -0.4977  1.1445
   33MOL   H42121605   7.398   5.131   6.448 -2.3054  0.1110  0.6897
   33MOL   H42221606   7.362   4.926   6.659 -1.8090 -1.5854 -0.2272
   33MOL   H42321607   7.247   4.992   6.542 -1.0527  3.5217 -0.8955
   33MOL   H42421608   7.387   5.191   6.735 -0.3025 -0.1551  1.0888
   33MOL   H42521609   7.243   5.207   6.632 -0.8806 -1.5132 -1.3197
   33MOL   H42621610   7.276   5.030   6.880  1.2558  1.0246 -0.7526
   33MOL   H42721611   7.144   5.002   6.766 -0.3921 -1.2275  1.3896
   33MOL   H42821612   7.049   5.150   6.943  0.7887  0.0361  0.6162
   33MOL   H42921613   7.074   5.250   6.804  2.2118  0.2150 -0.3151
   33MOL   H43021614   7.194   5.262   6.918  0.4520  0.0384 -0.6460
   33MOL   C43121615   7.628   4.758   5.987 -0.5024 -0.4435  0.3100
   33MOL   C43221616   7.611   4.710   5.846  0.2207  0.3858  0.4589
   33MOL   C43321617   7.491   4.769   5.771 -0.2122  0.0142  0.0473
   33MOL   C43421618   7.474   4.919   5.782 -0.0613 -0.0660 -0.3664
   33MOL   C43521619   7.365   4.967   5.684 -0.6491  0.5580 -0.6441
   33MOL   C43621620   7.324   5.110   5.715  0.1574  0.2465 -0.7231
   33MOL   C43721621   7.198   5.140   5.633 -0.7421 -0.5575 -0.5178
   33MOL   C43821622   7.163   5.290   5.651  0.6393  0.0247 -0.2580
   33MOL   C43921623   7.248   5.395   5.561 -0.3610  0.3929 -0.1878
   33MOL   C44021624   7.238   5.372   5.408 -0.6278  0.7687  0.4336
   33MOL   C44121625   7.312   5.482   5.323 -0.0150  0.4902  0.4141
   33MOL   H44221626   7.530   4.758   6.035 -0.2947 -1.1221  0.7447
   33MOL   H44321627   7.671   4.672   6.038  0.8701  0.1239  0.1330
   33MOL   H44421628   7.700   4.733   5.787  0.1490  1.2655  0.6744
   33MOL   H44521629   7.493   4.739   5.666 -0.7044 -1.6839  0.5098
   33MOL   H44621630   7.397   4.722   5.800 -0.6530  1.4574  1.0144
   33MOL   H44721631   7.563   4.971   5.747 -1.4929  1.8476 -1.2527
   33MOL   H44821632   7.451   4.968   5.876  0.1273  0.9098 -0.8110
   33MOL   H44921633   7.278   4.902   5.685  0.4893 -1.1397 -3.5517
   33MOL   H45021634   7.393   4.957   5.579 -1.0003 -0.4267 -0.6525
   33MOL   H45121635   7.399   5.184   5.688 -1.8327  1.3632 -3.3415
   33MOL   H45221636   7.301   5.133   5.819  0.0863  2.0011 -1.1273
   33MOL   H45321637   7.115   5.086   5.679  0.0223 -0.3856  1.0811
   33MOL   H45421638   7.201   5.107   5.529  3.8824 -0.0871 -0.6346
   33MOL   H45521639   7.056   5.306   5.641  0.1280 -2.7102  0.4744
   33MOL   H45621640   7.191   5.312   5.754 -0.3194  1.3547 -0.2710
   33MOL   H45721641   7.354   5.394   5.588  0.0475 -2.2620 -1.6884
   33MOL   H45821642   7.227   5.501   5.576 -0.2632  0.2280  1.2360
   33MOL   H45921643   7.131   5.379   5.386 -0.5026 -2.5617 -1.6037
   33MOL   H46021644   7.259   5.269   5.380  1.1296  0.7912  1.5714
   33MOL   H46121645   7.298   5.458   5.218  2.2725  0.0883  0.1693
   33MOL   H46221646   7.277   5.585   5.326  1.1371  0.8688  1.4852
   33MOL   H46321647   7.421   5.477   5.326  0.1505  1.8984 -1.8072
   33MOL   C46421648   7.595   4.555   5.845  0.1119 -0.2042  0.0397
   33MOL   C46521649   7.624   4.479   5.708  0.5294  0.2578 -0.7915
   33MOL   C46621650   0.070   4.447   5.685 -1.2993 -0.2714  0.3490
   33MOL   C46721651   0.150   4.550   5.597 -0.3004  0.1911  0.6812
   33MOL   C46821652   0.295   4.511   5.548  0.5222 -0.2765 -0.5875
   33MOL   C46921653   0.351   4.594   5.436 -0.9650  0.2385  0.0625
   33MOL   C47021654   0.484   4.536   5.385  0.1455 -0.0038 -0.0744
   33MOL   C47121655   0.531   4.618   5.263 -0.1715  0.0894 -0.0392
   33MOL   C47221656   0.664   4.558   5.201 -0.6263  0.2070 -0.3090
   33MOL   C47321657   0.725   4.656   5.099  0.6448 -0.1439  0.3964
   33MOL   C47421658   0.853   4.598   5.040 -0.4526  0.3733 -0.3577
   33MOL   H47521659   7.496   4.531   5.883  0.0194 -0.7655 -0.5641
   33MOL   H47621660   7.658   4.513   5.923  0.1288  1.3829  0.9107
   33MOL   H47721661   7.589   4.539   5.624 -2.0510  1.0438  0.7792
   33MOL   H47821662   0.081   4.349   5.640  0.5084  0.0856 -0.0248
   33MOL   H47921663   0.132   4.428   5.772 -0.6441  0.1026 -0.0295
   33MOL   H48021664   0.087   4.572   5.511  0.0740  0.1127  0.3862
   33MOL   H48121665   0.154   4.641   5.657  1.8420  0.3893  0.2774
   33MOL   H48221666   0.314   4.404   5.545  0.0296 -0.3195 -2.9274
   33MOL   H48321667   0.354   4.536   5.637 -0.2350 -2.9715  0.7282
   33MOL   H48421668   0.285   4.585   5.349  0.7655 -1.6158 -1.1210
   33MOL   H48521669   0.374   4.690   5.482 -2.9340 -0.2366  2.1221
   33MOL   H48621670   0.558   4.525   5.463  1.0611  1.7863 -0.6627
   33MOL   H48721671   0.462   4.433   5.360 -0.1695  0.2552 -0.9052
   33MOL   H48821672   0.461   4.624   5.180 -1.7448  0.9200  1.3082
   33MOL   H48921673   0.543   4.724   5.287 -2.1314  0.1027  1.0148
   33MOL   H49021674   0.734   4.528   5.279 -0.2727  0.6624 -0.4498
   33MOL   H49121675   0.656   4.461   5.151 -1.8775 -0.3195  0.8651
   33MOL   H49221676   0.652   4.689   5.025  1.7949 -2.3382 -1.7923
   33MOL   H49321677   0.762   4.743   5.155 -1.5270  0.1382  1.4596
   33MOL   H49421678   0.903   4.673   4.980  2.2315 -1.3914 -0.3958
   33MOL   H49521679   0.841   4.507   4.981  1.3861 -0.2132  0.1476
   33MOL   H49621680   0.919   4.574   5.124  1.8597 -0.0453 -2.2494
   33MOL   C49721681   7.531   4.353   5.701  0.3906 -0.2400  0.1032
   33MOL   C49821682   7.379   4.378   5.670  0.9114  0.3632  0.4300
   33MOL   C49921683   7.294   4.264   5.740 -0.9522 -0.0651 -0.2212
   33MOL   C50021684   7.278   4.300   5.887 -0.4749 -0.1953 -0.5315
   33MOL   C50121685   7.182   4.204   5.960  0.6283 -0.6718  1.2569
   33MOL   C50221686   7.132   4.228   6.100 -0.5303  0.0211 -0.4015
   33MOL   C50321687   7.241   4.198   6.200 -0.0955  0.0204 -0.9292
   33MOL   C50421688   7.201   4.225   6.351  0.2791 -0.7690  0.7983
   33MOL   C50521689   7.311   4.217   6.460  0.5228 -0.3568  0.3329
   33MOL   C50621690   7.366   4.077   6.455 -0.3166  0.0306 -0.4205
   33MOL   C50721691   7.490   4.055   6.544 -0.4296  0.3711  0.2072
   33MOL   H50821692   7.562   4.282   5.624 -2.6661 -1.1340 -0.3992
   33MOL   H50921693   7.566   4.305   5.792  2.9231  1.8149  0.2669
   33MOL   H51021694   7.353   4.475   5.712  0.8429  0.2056  0.7494
   33MOL   H51121695   7.338   4.165   5.736  0.5021  0.5534  0.2105
   33MOL   H51221696   7.190   4.263   5.707 -0.8517  1.8379 -0.6789
   33MOL   H51321697   7.237   4.401   5.886 -1.0515 -0.4170  0.3508
   33MOL   H51421698   7.373   4.306   5.939 -0.6366 -2.2043  0.0153
   33MOL   H51521699   7.093   4.196   5.898  1.8659  2.0079 -0.9785
   33MOL   H51621700   7.217   4.101   5.953  1.0880 -0.4343 -0.2593
   33MOL   H51721701   7.090   4.327   6.118 -2.2287 -0.2074 -2.7992
   33MOL   H51821702   7.051   4.158   6.121  1.0426 -1.9999 -0.8800
   33MOL   H51921703   7.271   4.095   6.179  0.1623 -0.4904  1.7140
   33MOL   H52021704   7.328   4.259   6.180  0.9319 -1.4478 -1.0232
   33MOL   H52121705   7.118   4.157   6.371  1.0832 -1.3322  2.2959
   33MOL   H52221706   7.156   4.323   6.365  1.0629 -0.2891  0.0214
   33MOL   H52321707   7.261   4.244   6.553  0.1398  0.8101 -0.2029
   33MOL   H52421708   7.390   4.292   6.453 -0.1999  0.3562 -0.3146
   33MOL   H52521709   7.405   4.044   6.359  1.4456  2.3335 -0.5449
   33MOL   H52621710   7.287   4.013   6.495 -0.0068 -0.4764 -0.6242
   33MOL   H52721711   7.488   4.107   6.639 -0.0018  0.1606  0.3368
   33MOL   H52821712   7.573   4.096   6.486 -0.1709  0.1285  0.4021
   33MOL   H52921713   7.496   3.947   6.560 -1.9170  0.5961  2.4388
   33MOL   C53021714   7.355   4.378   5.512 -0.3316 -0.1052 -0.1931
   33MOL   C53121715   7.221   4.436   5.467 -0.2386  0.6637  0.3585
   33MOL   C53221716   7.200   4.398   5.317 -0.5213  0.1187 -0.5979
   33MOL   C53321717   7.300   4.473   5.222  0.3011 -0.6909  0.0971
   33MOL   C53421718   7.272   4.457   5.073 -0.3413  0.2047  0.7079
   33MOL   C53521719   7.404   4.501   4.997 -0.2040  0.0018 -0.3802
   33MOL   C53621720   7.407   4.449   4.847  0.2028  0.3291  0.4676
   33MOL   C53721721   7.506   4.516   4.757 -0.2960  0.3418 -0.0301
   33MOL   C53821722   7.464   4.481   4.615  0.4716  0.0280 -0.4520
   33MOL   C53921723   7.550   4.535   4.499  0.1397 -0.1396 -0.2039
   33MOL   C54021724   7.698   4.491   4.498  0.1367  0.6664  0.7874
   33MOL   H54121725   7.435   4.421   5.452  0.2350  1.8471  1.9035
   33MOL   H54221726   7.368   4.274   5.481  1.4383  0.1328 -0.3144
   33MOL   H54321727   7.141   4.381   5.518 -0.6986 -2.5211 -3.5837
   33MOL   H54421728   7.104   4.432   5.279 -0.4830  1.3036  0.3415
   33MOL   H54521729   7.205   4.291   5.295  0.2786  0.0555 -0.1143
   33MOL   H54621730   7.398   4.429   5.242 -0.5156 -2.8344 -0.4910
   33MOL   H54721731   7.304   4.579   5.247 -0.0738 -0.5859 -0.2857
   33MOL   H54821732   7.186   4.514   5.040  0.5691  0.8306 -0.6257
   33MOL   H54921733   7.248   4.352   5.057  0.9836  0.1894 -1.2836
   33MOL   H55021734   7.493   4.464   5.048  1.1090  0.2533 -2.4717
   33MOL   H55121735   7.403   4.610   4.989 -0.3045 -0.1717 -3.0933
   33MOL   H55221736   7.308   4.464   4.804  0.7751  0.5230 -0.8232
   33MOL   H55321737   7.429   4.343   4.836  1.4884  0.5338  0.9203
   33MOL   H55421738   7.608   4.485   4.781 -0.5233 -0.3640  0.0297
   33MOL   H55521739   7.514   4.624   4.768 -1.2546  0.2323  1.9211
   33MOL   H55621740   7.365   4.523   4.595  0.6554 -0.0049 -1.4903
   33MOL   H55721741   7.451   4.373   4.606 -2.9671  0.3493 -0.0898
   33MOL   H55821742   7.558   4.644   4.495 -0.6889 -0.0158  1.0722
   33MOL   H55921743   7.505   4.506   4.404  1.1623 -0.2123 -0.6691
   33MOL   H56021744   0.013   4.383   4.490 -1.5094  0.4701 -0.6035
   33MOL   H56121745   0.045   4.556   4.427  0.0838 -0.6152 -0.4521
   33MOL   H56221746   0.041   4.520   4.592 -0.3239  0.7776  0.9823
   33MOL   C56321747   7.192   4.583   5.519  0.5629 -0.1323 -0.1902
   33MOL   C56421748   7.049   4.629   5.486  0.2811  0.1053  0.1151
   33MOL   C56521749   7.037   4.782   5.470 -0.5672  0.2319 -0.7801
   33MOL   C56621750   7.125   4.854   5.362 -0.0031 -0.6007  0.0302
   33MOL   C56721751   7.087   4.815   5.214  0.1010 -0.1344 -0.6354
   33MOL   C56821752   7.195   4.866   5.124 -0.6444  0.1534 -0.6173
   33MOL   C56921753   7.161   4.842   4.974  0.0502 -0.2682  0.3128
   33MOL   C57021754   7.267   4.883   4.870  0.1216  0.6457  0.1524
   33MOL   C57121755   7.236   4.871   4.720 -0.3593  0.0058  0.0549
   33MOL   C57221756   7.354   4.908   4.637 -0.0333  0.4264 -0.4795
   33MOL   C57321757   7.332   4.876   4.489  0.0678  0.2756 -0.4590
   33MOL   H57421758   7.276   4.642   5.483  0.2998 -0.7163 -1.7986
   33MOL   H57521759   7.209   4.601   5.625  1.5172  2.0746 -0.6934
   33MOL   H57621760   7.028   4.588   5.388  0.9450 -0.0292  0.0250
   33MOL   H57721761   7.068   4.845   5.553  1.2586 -3.3675  1.4179
   33MOL   H57821762   6.932   4.806   5.461  0.1835  2.9836 -2.8157
   33MOL   H57921763   7.230   4.823   5.366  0.4783  1.0898  2.6588
   33MOL   H58021764   7.111   4.961   5.378 -2.9295 -1.1148  1.0958
   33MOL   H58121765   6.995   4.872   5.200  0.3906  0.5256  0.0937
   33MOL   H58221766   7.079   4.707   5.212 -0.3836 -0.1709  1.5377
   33MOL   H58321767   7.207   4.974   5.134 -1.2548  0.1619  0.0732
   33MOL   H58421768   7.294   4.825   5.141 -0.5344 -0.0374 -1.6713
   33MOL   H58521769   7.149   4.735   4.958  0.1041 -0.3095  0.5524
   33MOL   H58621770   7.071   4.899   4.952  1.6163  1.3794 -2.1372
   33MOL   H58721771   7.356   4.824   4.894 -0.1695 -0.9852 -2.6001
   33MOL   H58821772   7.297   4.986   4.890 -0.5081  0.9788 -0.5965
   33MOL   H58921773   7.151   4.935   4.695 -1.6880 -1.2426  1.2471
   33MOL   H59021774   7.204   4.769   4.697 -2.5853  0.7651 -0.3608
   33MOL   H59121775   7.431   4.837   4.667 -1.2890 -1.0858 -0.7994
   33MOL   H59221776   7.393   5.010   4.637  0.0862  0.3810 -0.7738
   33MOL   H59321777   7.433   4.887   4.450  0.9029  0.9560  1.8337
   33MOL   H59421778   7.289   4.778   4.470  1.0707 -0.1689 -0.4470
   33MOL   H59521779   7.278   4.963   4.450  1.2144  1.4887  0.6119
   33MOL   C59621780   6.946   4.591   5.598  0.2319  0.1307 -0.5297
   33MOL   C59721781   6.792   4.597   5.557  0.4588  0.7915 -0.6209
   33MOL   C59821782   6.703   4.538   5.663  0.0774  0.5478  0.2486
   33MOL   C59921783   6.715   4.601   5.800 -0.5235 -0.0704 -0.8288
   33MOL   C60021784   6.618   4.545   5.906 -0.0451  0.6712  0.8616
   33MOL   C60121785   6.623   4.616   6.042 -0.4463 -0.0055  0.9591
   33MOL   C60221786   6.736   4.565   6.136  0.1495 -0.4678  0.1263
   33MOL   C60321787   6.774   4.676   6.246 -0.0157  0.3812  0.1823
   33MOL   C60421788   6.672   4.672   6.370 -0.0724  0.1831  0.2265
   33MOL   C60521789   6.688   4.559   6.471  0.0416 -0.3219 -0.1801
   33MOL   C60621790   6.580   4.562   6.582 -0.5666 -0.0492  0.1380
   33MOL   H60721791   6.956   4.488   5.632 -2.8513  0.0777  0.3801
   33MOL   H60821792   6.957   4.655   5.686  0.1424 -2.4914  1.4677
   33MOL   H60921793   6.769   4.704   5.560 -0.2288  0.6252  0.0076
   33MOL   H61021794   6.724   4.433   5.681 -0.9354  0.3691  0.4228
   33MOL   H61121795   6.603   4.562   5.625 -0.7423 -1.5124  1.0514
   33MOL   H61221796   6.688   4.706   5.791  0.9593  0.4365  0.4679
   33MOL   H61321797   6.814   4.588   5.842 -0.9234  0.2597  0.2413
   33MOL   H61421798   6.637   4.439   5.926 -2.5888 -0.1831 -0.9975
   33MOL   H61521799   6.515   4.542   5.871  1.1847 -2.0630 -2.8698
   33MOL   H61621800   6.644   4.719   6.014 -1.2973  0.4150  1.8386
   33MOL   H61721801   6.524   4.618   6.087  0.3912  0.0661  2.8798
   33MOL   H61821802   6.823   4.550   6.072  0.0964 -0.8974  0.1541
   33MOL   H61921803   6.712   4.469   6.181  0.7521 -0.6371  0.0965
   33MOL   H62021804   6.785   4.775   6.202 -0.9774  0.9641  1.2436
   33MOL   H62121805   6.868   4.633   6.280 -0.2730  0.6378  1.2226
   33MOL   H62221806   6.662   4.772   6.412  1.3200 -0.2652  1.6513
   33MOL   H62321807   6.570   4.655   6.335 -0.1498 -1.0501  1.0265
   33MOL   H62421808   6.782   4.567   6.525 -0.2274  0.1480  0.2253
   33MOL   H62521809   6.703   4.463   6.422 -0.8951  0.2902 -1.7024
   33MOL   H62621810   6.589   4.478   6.650  1.4659 -0.8000 -1.0156
   33MOL   H62721811   6.592   4.656   6.637  0.6729 -1.0788  1.6583
   33MOL   H62821812   6.478   4.560   6.544  0.0686 -0.3558 -1.6021
   33MOL   C62921813   6.749   4.537   5.420 -0.7186 -0.1007 -0.0305
   33MOL   C63021814   6.799   4.396   5.390 -0.5286 -0.5055  0.4087
   33MOL   C63121815   6.772   4.366   5.241  0.1577 -0.3473  0.3922
   33MOL   C63221816   6.847   4.252   5.185 -0.2013 -0.1081  0.0852
   33MOL   C63321817   6.798   4.119   5.252  0.2518  0.1602 -0.4203
   33MOL   C63421818   6.872   3.997   5.196 -0.1078  1.0931  0.1337
   33MOL   C63521819   6.807   3.861   5.230 -0.0748 -0.4679  0.5921
   33MOL   C63621820   6.881   3.727   5.201 -0.2261 -0.1903  0.6727
   33MOL   C63721821   6.789   3.604   5.199  0.2744 -0.0522 -0.7589
   33MOL   C63821822   6.724   3.568   5.333 -0.2433 -0.7694  0.0639
   33MOL   C63921823   6.663   3.435   5.352  0.1176  0.4046 -0.0727
   33MOL   H64021824   6.641   4.526   5.412 -0.4893 -3.0354  0.3782
   33MOL   H64121825   6.775   4.611   5.344  0.9794 -1.3873 -0.7422
   33MOL   H64221826   6.900   4.374   5.424 -0.4217 -0.8875 -0.1458
   33MOL   H64321827   6.665   4.350   5.226 -0.0156  0.5109  0.6318
   33MOL   H64421828   6.802   4.460   5.194  0.3920 -0.3574  0.5201
   33MOL   H64521829   6.955   4.259   5.188 -0.2169  0.3028 -0.2463
   33MOL   H64621830   6.849   4.245   5.076 -1.2026 -1.0376  0.1200
   33MOL   H64721831   6.691   4.110   5.231  0.2487  1.8204 -1.1604
   33MOL   H64821832   6.818   4.119   5.359 -0.3555  1.1882 -0.2978
   33MOL   H64921833   6.973   4.016   5.233 -0.1052  0.4427  0.4567
   33MOL   H65021834   6.869   4.010   5.088  1.3452  1.6113  0.1447
   33MOL   H65121835   6.711   3.862   5.178  0.3270 -2.9599 -0.2584
   33MOL   H65221836   6.783   3.856   5.337 -2.9535 -1.1290 -0.0485
   33MOL   H65321837   6.965   3.716   5.269  1.4285 -1.8029 -1.5785
   33MOL   H65421838   6.925   3.727   5.102  1.5459 -1.1664  1.4400
   33MOL   H65521839   6.855   3.520   5.178  1.1592  0.5118 -0.2621
   33MOL   H65621840   6.707   3.611   5.127  1.9251  1.8122 -2.4919
   33MOL   H65721841   6.651   3.644   5.361  0.5472 -0.0836  0.2973
   33MOL   H65821842   6.808   3.572   5.402 -0.0846 -1.6184 -0.0718
   33MOL   H65921843   6.646   3.429   5.459 -0.8515  1.7452 -0.1332
   33MOL   H66021844   6.723   3.352   5.316 -0.8251  0.3695 -1.6382
   33MOL   H66121845   6.561   3.420   5.317 -0.1857 -1.1636  1.4369
   33MOL   H66221846   6.746   4.329   5.458  0.1538  0.6029  2.0657
   34MOL     C121847   4.425   4.499   0.291 -0.6709 -0.8599  0.2558
   34MOL     C221848   4.342   4.625   0.318  0.7684 -0.4174  0.0119
   34MOL     C321849   4.378   4.730   0.217  0.0720 -0.4531 -0.5711
   34MOL     C421850   4.336   4.713   0.071 -0.3563  0.4404  0.7860
   34MOL     C521851   4.407   4.799   7.670 -0.1067 -0.1113 -0.0808
   34MOL     C621852   4.332   4.776   7.537 -0.5133 -0.3419  0.5205
   34MOL     C721853   4.396   4.832   7.411  0.0631  0.1022 -0.1457
   34MOL     C821854   4.513   4.750   7.347 -0.2168  0.1383  0.0177
   34MOL     C921855   4.535   4.793   7.203  0.5268 -0.1852  0.2142
   34MOL    C1021856   4.605   4.695   7.115  0.1363  0.2981 -0.3317
   34MOL    C1121857   4.631   4.748   6.977 -0.4049 -0.6700 -0.5668
   34MOL    H1221858   4.409   4.419   0.363  0.3270 -1.0172  0.3083
   34MOL    H1321859   4.531   4.524   0.285 -0.7959 -0.2386  0.5137
   34MOL    H1421860   4.379   4.665   0.412 -0.7243 -0.1846  0.4995
   34MOL    H1521861   4.485   4.751   0.212  0.1834 -0.9816 -0.3828
   34MOL    H1621862   4.333   4.824   0.252  1.1011 -0.6257  1.2815
   34MOL    H1721863   4.230   4.740   0.066 -0.7948 -1.6795 -2.5952
   34MOL    H1821864   4.355   4.610   0.040  4.8502  1.4011  0.3448
   34MOL    H1921865   4.383   4.902   7.696 -2.1872 -1.3529  3.2345
   34MOL    H2021866   4.516   4.790   7.662 -0.0941 -0.0932  0.0736
   34MOL    H2121867   4.232   4.818   7.547 -0.8090 -0.7914 -0.5383
   34MOL    H2221868   4.320   4.668   7.526  1.0825 -0.5269  0.4785
   34MOL    H2321869   4.312   4.836   7.342  1.1036  1.1909 -1.3583
   34MOL    H2421870   4.420   4.937   7.424  0.3569  0.3865 -2.7324
   34MOL    H2521871   4.484   4.646   7.343  0.9038 -0.1713 -0.3431
   34MOL    H2621872   4.605   4.764   7.405  1.6749 -1.1334 -2.5682
   34MOL    H2721873   4.590   4.886   7.214  0.1756 -0.1773  2.0358
   34MOL    H2821874   4.436   4.808   7.159  0.1686 -0.0562  1.0475
   34MOL    H2921875   4.549   4.602   7.104 -0.4625  0.5548  0.5354
   34MOL    H3021876   4.697   4.669   7.167  0.7063 -0.0117 -1.4719
   34MOL    H3121877   4.688   4.841   6.978 -2.1704  0.4301  1.5808
   34MOL    H3221878   4.700   4.685   6.921  0.8423  0.8029 -0.7187
   34MOL    H3321879   4.537   4.773   6.928 -1.3324  0.4502  1.6969
   34MOL    H3421880   4.386   4.459   0.198  0.2034 -0.7491 -0.1660
   34MOL    C3521881   4.196   4.595   0.319 -0.0472 -0.0424  0.6921
   34MOL    C3621882   4.141   4.533   0.448  0.8363  0.3715 -0.5950
   34MOL    C3721883   3.999   4.584   0.482  0.4087 -0.4182  0.3217
   34MOL    C3821884   3.977   4.740   0.493  0.0310  0.9785 -0.2418
   34MOL    C3921885   3.852   4.788   0.569 -0.2229  0.0471 -0.1287
   34MOL    C4021886   3.834   4.936   0.569  0.5678  0.1137 -0.4047
   34MOL    C4121887   3.712   4.976   0.658  0.5407 -0.0600  0.0172
   34MOL    C4221888   3.691   5.125   0.675  0.9006  0.2667 -0.2836
   34MOL    C4321889   3.579   5.145   0.778 -0.3729  0.3145 -0.1094
   34MOL    C4421890   3.577   5.289   0.824 -0.3996  0.0636 -0.0868
   34MOL    C4521891   3.470   5.314   0.926 -0.3432  0.1225 -0.4807
   34MOL    H4621892   4.169   4.526   0.240 -0.1934  3.2104 -2.2081
   34MOL    H4721893   4.142   4.690   0.311 -0.3072 -0.2053  0.5195
   34MOL    H4821894   4.217   4.554   0.524  1.6917 -0.3634 -1.2366
   34MOL    H4921895   3.917   4.537   0.429 -2.0131  0.9403  2.7314
   34MOL    H5021896   3.987   4.537   0.580  1.5501 -0.4004  0.4772
   34MOL    H5121897   3.980   4.784   0.393 -0.3345  0.9867 -0.2499
   34MOL    H5221898   4.064   4.774   0.548 -0.2382 -2.8528  2.7654
   34MOL    H5321899   3.841   4.737   0.665 -0.5123  0.9309  0.3094
   34MOL    H5421900   3.753   4.758   0.534  0.1470  0.2059 -1.3305
   34MOL    H5521901   3.826   4.971   0.466  0.2435 -0.9888 -0.7518
   34MOL    H5621902   3.917   4.995   0.609 -1.5452  2.2699  0.8789
   34MOL    H5721903   3.620   4.940   0.612 -0.0402  0.5868  0.6572
   34MOL    H5821904   3.725   4.930   0.756 -0.5718 -0.5769 -0.0776
   34MOL    H5921905   3.649   5.177   0.589 -2.6639 -1.3232  0.4169
   34MOL    H6021906   3.784   5.166   0.716 -0.6004  1.4368  2.0833
   34MOL    H6121907   3.595   5.088   0.870  1.5615 -0.1308 -0.6909
   34MOL    H6221908   3.488   5.124   0.722  1.3339 -1.8803 -2.2231
   34MOL    H6321909   3.677   5.312   0.862 -0.3757 -1.5635  0.9002
   34MOL    H6421910   3.556   5.338   0.729  0.5283  1.0974  0.2206
   34MOL    H6521911   3.483   5.237   1.003 -0.0763 -1.2554 -1.8797
   34MOL    H6621912   3.468   5.415   0.967  0.7127 -0.1544  0.2892
   34MOL    H6721913   3.372   5.300   0.881  1.5160 -0.9484 -4.3486
   34MOL    C6821914   4.129   4.384   0.420  0.5238  0.1797 -0.2625
   34MOL    C6921915   4.107   4.292   0.545  0.0003  0.1198  0.2186
   34MOL    C7021916   4.041   4.159   0.501 -1.0050 -0.3305 -0.8716
   34MOL    C7121917   3.894   4.169   0.463  0.2718 -0.7053  0.1502
   34MOL    C7221918   3.852   4.041   0.393  0.1086  0.0369  0.1473
   34MOL    C7321919   3.704   4.035   0.382  0.4636 -0.0662  0.2013
   34MOL    C7421920   3.655   3.912   0.299  0.2205  0.0552 -0.3210
   34MOL    C7521921   3.497   3.896   0.309 -0.5637  0.4916  0.4731
   34MOL    C7621922   3.443   3.760   0.248 -0.2568  0.6057  0.4978
   34MOL    C7721923   3.419   3.774   0.091  0.1014 -0.0424 -0.0682
   34MOL    C7821924   3.289   3.856   0.061  0.2899 -0.1390 -0.1883
   34MOL    H7921925   4.217   4.336   0.377 -0.8024 -1.0952 -1.6727
   34MOL    H8021926   4.052   4.370   0.343  0.6110  1.9251 -0.6941
   34MOL    H8121927   4.028   4.321   0.615 -0.1173  0.3253 -0.0014
   34MOL    H8221928   4.043   4.077   0.573 -0.6092  0.6826  0.2909
   34MOL    H8321929   4.104   4.127   0.418  0.9759 -0.6952  0.7467
   34MOL    H8421930   3.842   4.180   0.559  0.5397 -1.4631  0.3856
   34MOL    H8521931   3.850   4.254   0.410 -1.7183 -1.4751  0.5348
   34MOL    H8621932   3.914   3.962   0.435  2.0261  1.9343  0.9779
   34MOL    H8721933   3.887   4.041   0.290 -2.7443  1.2270 -0.8536
   34MOL    H8821934   3.670   4.023   0.485  1.4266  2.1787  0.8083
   34MOL    H8921935   3.659   4.121   0.332 -1.1247 -0.8997  0.1583
   34MOL    H9021936   3.699   3.819   0.336 -0.6170  0.2057  1.0767
   34MOL    H9121937   3.680   3.917   0.193 -1.0187 -1.2979 -0.6932
   34MOL    H9221938   3.473   3.883   0.414 -0.2545 -0.8919  0.3804
   34MOL    H9321939   3.451   3.989   0.276  1.4703  1.1799 -0.4773
   34MOL    H9421940   3.520   3.685   0.269 -0.1940  0.4808 -0.1893
   34MOL    H9521941   3.350   3.734   0.298 -0.8667 -1.9069 -1.8609
   34MOL    H9621942   3.508   3.812   0.041  1.5601 -0.8425  1.8401
   34MOL    H9721943   3.419   3.670   0.057  0.3727 -0.3139  0.7587
   34MOL    H9821944   3.195   3.803   0.075 -0.1512  0.8576  0.6539
   34MOL    H9921945   3.282   3.880   7.658 -1.7385  2.7046  0.5080
   34MOL   H10021946   3.284   3.947   0.120 -0.6746 -0.5876  0.4300
   34MOL   C10121947   4.239   4.271   0.626  0.5066 -0.1884  0.5014
   34MOL   C10221948   4.229   4.188   0.761 -0.3822  0.2923  0.3054
   34MOL   C10321949   4.144   4.255   0.877 -0.5340 -0.1322  0.7863
   34MOL   C10421950   3.996   4.198   0.875  0.0161  0.6610 -0.5133
   34MOL   C10521951   3.906   4.272   0.975  0.0809 -0.1288  0.4030
   34MOL   C10621952   3.764   4.206   0.992 -0.4457  0.2911  0.1192
   34MOL   C10721953   3.691   4.240   1.121 -0.1802 -0.1299 -0.3455
   34MOL   C10821954   3.541   4.247   1.092  0.3897 -0.4509  0.2644
   34MOL   C10921955   3.471   4.292   1.220 -0.0208  0.1966  0.0706
   34MOL   C11021956   3.332   4.346   1.199 -0.2443  0.5091  0.0377
   34MOL   C11121957   3.284   4.380   1.339 -0.1025  0.0723 -0.3527
   34MOL   H11221958   4.315   4.240   0.554  0.3652  0.1695  0.1910
   34MOL   H11321959   4.261   4.371   0.664 -0.7857  0.6320 -0.8260
   34MOL   H11421960   4.179   4.095   0.734 -1.0495  0.4089  1.1275
   34MOL   H11521961   4.181   4.222   0.974 -1.8130 -2.2145  0.5857
   34MOL   H11621962   4.159   4.363   0.869  0.4636 -0.3253 -0.1776
   34MOL   H11721963   3.957   4.189   0.773  2.2429  0.6301 -1.3987
   34MOL   H11821964   4.016   4.100   0.918 -0.7650  0.6960 -0.0584
   34MOL   H11921965   3.956   4.288   1.070  0.1899 -1.2558  0.5333
   34MOL   H12021966   3.883   4.374   0.942  2.3286  0.7466  1.4388
   34MOL   H12121967   3.702   4.208   0.902  0.9630  0.1408 -0.8639
   34MOL   H12221968   3.773   4.098   0.999 -3.2171 -0.0136 -0.3043
   34MOL   H12321969   3.726   4.337   1.156 -0.5184 -0.0106 -0.3317
   34MOL   H12421970   3.718   4.169   1.199 -0.8277 -0.2676 -0.2428
   34MOL   H12521971   3.510   4.306   1.005 -0.5445 -0.4548  0.5818
   34MOL   H12621972   3.510   4.144   1.076  1.6121 -0.5225 -1.8123
   34MOL   H12721973   3.472   4.206   1.287  0.5030  1.0329  1.1574
   34MOL   H12821974   3.529   4.371   1.268 -0.1964  1.0763 -1.1307
   34MOL   H12921975   3.275   4.270   1.145 -1.9290  0.9667  1.1218
   34MOL   H13021976   3.346   4.433   1.135  0.0869 -0.0047 -0.5818
   34MOL   H13121977   3.362   4.418   1.405  0.6431  0.6734 -1.5491
   34MOL   H13221978   3.205   4.455   1.335  0.4058  0.5637 -1.3625
   34MOL   H13321979   3.252   4.289   1.389 -0.0381 -1.0944 -2.3640
   34MOL   C13421980   4.373   4.166   0.815  0.9017  0.4158  0.7237
   34MOL   C13521981   4.389   4.050   0.921 -0.0797 -0.9788 -0.2078
   34MOL   C13621982   4.525   4.062   0.999  0.0551  0.1766 -0.3062
   34MOL   C13721983   4.536   3.970   1.127 -0.2751  0.4275  0.1851
   34MOL   C13821984   4.629   4.024   1.235 -1.0109 -0.9769 -0.0270
   34MOL   C13921985   4.583   4.149   1.314 -0.0112  0.1216  0.4522
   34MOL   C14021986   4.700   4.214   1.391  0.1982 -0.5712 -0.6678
   34MOL   C14121987   4.645   4.332   1.472 -0.2646  0.0381 -0.5807
   34MOL   C14221988   4.747   4.430   1.533  0.1633 -0.2193  0.2107
   34MOL   C14321989   4.672   4.547   1.609  0.4079 -0.7210  0.3732
   34MOL   C14421990   4.760   4.610   1.718 -0.3313 -0.6333  0.1991
   34MOL   H14521991   4.439   4.149   0.730 -3.5958 -1.8993 -2.4500
   34MOL   H14621992   4.407   4.256   0.867  0.1437  0.4067  1.2491
   34MOL   H14721993   4.311   4.044   0.997 -0.3948 -0.9465 -0.5283
   34MOL   H14821994   4.553   4.163   1.029  1.2498 -0.7345  1.7732
   34MOL   H14921995   4.605   4.043   0.928 -2.1102 -2.0344 -2.2402
   34MOL   H15021996   4.437   3.952   1.170 -2.2647  1.1339 -3.8246
   34MOL   H15121997   4.562   3.869   1.095 -0.5316 -0.3332  2.3306
   34MOL   H15221998   4.629   3.938   1.302 -1.4788 -1.3327 -0.4857
   34MOL   H15321999   4.731   4.047   1.201 -2.6546  0.9136 -4.0358
   34MOL   H15422000   4.549   4.223   1.241 -1.7977 -0.0340  1.0986
   34MOL   H15522001   4.493   4.126   1.371 -1.1784 -0.6693 -1.6262
   34MOL   H15622002   4.741   4.136   1.456 -0.4180  0.2470  0.7042
   34MOL   H15722003   4.782   4.241   1.324  1.9233  0.3154  1.7343
   34MOL   H15822004   4.565   4.382   1.419 -0.7353 -1.7373 -1.5735
   34MOL   H15922005   4.588   4.288   1.554  0.1210  2.8955  1.2979
   34MOL   H16022006   4.811   4.370   1.599 -0.8105  0.1173  1.4839
   34MOL   H16122007   4.813   4.466   1.455 -0.4560  1.6978  0.5475
   34MOL   H16222008   4.627   4.621   1.544  1.2088 -0.0514  0.5696
   34MOL   H16322009   4.589   4.494   1.656  1.5025 -1.6720  1.2942
   34MOL   H16422010   4.796   4.549   1.801  0.9160  1.0999  0.9776
   34MOL   H16522011   4.715   4.699   1.761  0.7504 -1.9325  4.2555
   34MOL   H16622012   4.855   4.640   1.674 -0.4667  1.0527  1.0476
   34MOL   C16722013   4.370   3.909   0.853 -0.1394  0.3801 -0.3482
   34MOL   C16822014   4.282   3.798   0.932 -0.2529  0.0911 -0.0767
   34MOL   C16922015   4.294   3.675   0.845  0.3235 -0.1434 -0.7297
   34MOL   C17022016   4.267   3.532   0.908 -0.2407 -0.8076 -0.2666
   34MOL   C17122017   4.302   3.417   0.808  0.5046 -0.0612  0.2955
   34MOL   C17222018   4.231   3.425   0.673 -0.0826 -0.7535  0.2103
   34MOL   C17322019   4.257   3.306   0.578 -0.2280 -0.0551 -0.3864
   34MOL   C17422020   4.202   3.329   0.430  0.6717  0.2047  0.3929
   34MOL   C17522021   4.206   3.218   0.331  0.0203 -0.3208 -0.3073
   34MOL   C17622022   4.158   3.268   0.195  0.5291 -0.0678 -0.4959
   34MOL   C17722023   4.158   3.170   0.079 -0.6030 -0.3823 -0.4745
   34MOL   H17822024   4.329   3.919   0.753  0.8452 -0.1722 -0.8176
   34MOL   H17922025   4.473   3.881   0.830 -0.2295  2.0330 -2.9277
   34MOL   H18022026   4.333   3.778   1.026 -0.0471  0.5133 -0.0973
   34MOL   H18122027   4.392   3.684   0.800 -0.2412  1.2390 -1.7069
   34MOL   H18222028   4.232   3.693   0.757  0.0797  1.7402 -0.2007
   34MOL   H18322029   4.336   3.505   0.988  0.6037  0.4550 -0.5481
   34MOL   H18422030   4.166   3.520   0.949 -0.7204 -1.8837 -1.7413
   34MOL   H18522031   4.291   3.325   0.865  0.5444  0.2150  0.7475
   34MOL   H18622032   4.409   3.419   0.784  0.2461 -0.4187 -0.9515
   34MOL   H18722033   4.126   3.444   0.695 -0.4125 -0.6648 -1.3348
   34MOL   H18822034   4.277   3.518   0.637  1.6977 -0.1236  3.8152
   34MOL   H18922035   4.205   3.221   0.622 -2.2281  0.8318 -0.9757
   34MOL   H19022036   4.362   3.278   0.580 -0.2333  0.0064  1.6129
   34MOL   H19122037   4.096   3.348   0.450  1.2929  1.8589  2.2471
   34MOL   H19222038   4.241   3.418   0.380  0.7911  1.2749  2.3567
   34MOL   H19322039   4.167   3.120   0.359 -0.8133  0.1863  0.3218
   34MOL   H19422040   4.313   3.202   0.316  0.2011 -0.4817  1.1607
   34MOL   H19522041   4.219   3.352   0.162 -1.2366  1.3512 -0.2397
   34MOL   H19622042   4.056   3.304   0.204 -0.7565 -3.9778  1.6417
   34MOL   H19722043   4.144   3.066   0.112  0.3840 -0.6673 -0.9139
   34MOL   H19822044   4.263   3.158   0.051 -0.1747  1.0391  0.5079
   34MOL   H19922045   4.091   3.182   7.698 -1.9902 -0.9476  0.5377
   34MOL   C20022046   4.135   3.847   0.958 -0.0831  0.4844 -0.5797
   34MOL   C20122047   4.071   3.793   1.087  0.5854  0.7802 -0.3112
   34MOL   C20222048   3.916   3.778   1.079  0.6188  0.5481  0.2946
   34MOL   C20322049   3.863   3.657   1.000  0.3874 -0.2623  0.1983
   34MOL   C20422050   3.713   3.680   0.976  0.4342 -0.2008  0.1380
   34MOL   C20522051   3.648   3.560   0.913  0.6388  0.7485 -0.1940
   34MOL   C20622052   3.498   3.572   0.901 -0.1595 -0.1017 -0.1871
   34MOL   C20722053   3.438   3.472   0.802 -0.3198 -0.4580 -0.5391
   34MOL   C20822054   3.281   3.452   0.816  0.6340  0.1691  0.5381
   34MOL   C20922055   3.216   3.397   0.688  0.1327  0.9539  0.6030
   34MOL   C21022056   3.060   3.417   0.701 -0.6063 -0.0787  1.0498
   34MOL   H21122057   4.138   3.955   0.970  1.6997  0.2639  1.2963
   34MOL   H21222058   4.075   3.830   0.869  2.8261 -3.8062 -1.8998
   34MOL   H21322059   4.108   3.690   1.095  2.1023  1.3938  0.8905
   34MOL   H21422060   3.885   3.867   1.025 -0.0299  1.4559  2.1215
   34MOL   H21522061   3.872   3.788   1.178 -0.7573  2.4452 -0.4793
   34MOL   H21622062   3.889   3.567   1.055  3.0411  0.6800  0.5706
   34MOL   H21722063   3.921   3.643   0.908 -1.3639  1.4685 -1.2328
   34MOL   H21822064   3.711   3.764   0.906  1.8743 -1.2102 -1.1446
   34MOL   H21922065   3.662   3.711   1.067  2.2888  1.6052  0.6243
   34MOL   H22022066   3.689   3.545   0.814 -1.3024  3.8610 -1.5229
   34MOL   H22122067   3.671   3.465   0.961 -1.2339  0.7277  0.7166
   34MOL   H22222068   3.469   3.672   0.871 -0.7822  0.0906  1.0315
   34MOL   H22322069   3.453   3.567   1.000 -2.3964 -2.3048 -1.2556
   34MOL   H22422070   3.502   3.384   0.797  0.5481  0.0372  1.4236
   34MOL   H22522071   3.453   3.511   0.701 -1.3888 -0.6919 -0.8012
   34MOL   H22622072   3.241   3.549   0.844  2.4040  1.7925 -2.3011
   34MOL   H22722073   3.256   3.394   0.905  0.8051 -2.1177 -0.8497
   34MOL   H22822074   3.258   3.432   0.594 -2.3460  0.4104 -0.7376
   34MOL   H22922075   3.242   3.292   0.684  2.1631  1.4793 -1.5361
   34MOL   H23022076   3.012   3.377   0.611  2.1475 -1.7862  0.2826
   34MOL   H23122077   3.031   3.522   0.702  0.1708  0.1405  1.1935
   34MOL   H23222078   3.043   3.351   0.786 -0.8670 -1.0722  0.2478
   34MOL   C23322079   4.113   3.880   1.205  0.7185  0.0562  0.0135
   34MOL   C23422080   4.115   3.803   1.341 -0.1217  0.4421  0.0238
   34MOL   C23522081   4.063   3.888   1.452 -0.4162  0.7460 -0.2785
   34MOL   C23622082   4.072   3.811   1.583 -0.4278  0.0057  0.0533
   34MOL   C23722083   3.987   3.875   1.696 -0.8242 -0.2234  0.4822
   34MOL   C23822084   3.978   3.795   1.827 -0.1321 -0.3388  0.8002
   34MOL   C23922085   3.876   3.866   1.930  0.4121 -0.4311 -0.1107
   34MOL   C24022086   3.890   3.802   2.066  0.2905  0.3239 -0.2061
   34MOL   C24122087   3.791   3.874   2.162  0.6864  0.2707  0.5067
   34MOL   C24222088   3.786   3.817   2.302  0.4714  0.1572 -0.2362
   34MOL   C24322089   3.727   3.669   2.298  0.1399  0.5726 -0.1338
   34MOL   H24422090   4.043   3.962   1.211 -0.6346 -0.9684 -1.4965
   34MOL   H24522091   4.209   3.930   1.195  0.8505  0.5693  3.1413
   34MOL   H24622092   4.043   3.723   1.323  1.1547 -1.3278  2.4109
   34MOL   H24722093   4.118   3.983   1.454 -0.9044  1.0490 -1.1705
   34MOL   H24822094   3.958   3.911   1.436 -0.6900  0.2440  0.7741
   34MOL   H24922095   4.173   3.795   1.622 -0.0056  0.7407 -0.7324
   34MOL   H25022096   4.042   3.709   1.560  0.2098 -0.9973  3.3023
   34MOL   H25122097   3.888   3.883   1.652 -0.1828 -0.7636 -1.0837
   34MOL   H25222098   4.024   3.978   1.705 -2.2804  0.4668 -1.1235
   34MOL   H25322099   4.073   3.771   1.875 -0.1688 -2.8352 -0.2945
   34MOL   H25422100   3.932   3.699   1.805  0.9657 -0.4530 -1.0659
   34MOL   H25522101   3.910   3.969   1.937 -2.5618  0.6599 -0.7058
   34MOL   H25622102   3.777   3.865   1.884  0.5545  0.3032 -0.4400
   34MOL   H25722103   3.875   3.695   2.054 -0.5641  0.3610  0.4943
   34MOL   H25822104   3.990   3.831   2.098 -0.2627  0.7209  1.1905
   34MOL   H25922105   3.815   3.980   2.167  1.7916  0.0212  0.8085
   34MOL   H26022106   3.691   3.863   2.120 -0.6876  0.8448  3.5055
   34MOL   H26122107   3.708   3.874   2.352  1.0549  0.0996  0.7476
   34MOL   H26222108   3.886   3.813   2.345  1.5334  1.0808 -2.5601
   34MOL   H26322109   3.655   3.660   2.217  0.4622  2.3377 -0.6482
   34MOL   H26422110   3.663   3.661   2.386 -1.4030 -0.1834 -1.3184
   34MOL   H26522111   3.795   3.584   2.300  2.0028  2.0313  1.2904
   34MOL   C26622112   4.258   3.746   1.360 -0.5455 -0.6976 -0.4216
   34MOL   C26722113   4.270   3.594   1.400  0.2959 -0.6190  0.3173
   34MOL   C26822114   4.424   3.559   1.436 -0.7555 -0.2453  0.2839
   34MOL   C26922115   4.519   3.587   1.320 -0.4235 -0.9251  0.7023
   34MOL   C27022116   4.650   3.517   1.326 -0.3165  0.6318 -0.0438
   34MOL   C27122117   4.737   3.531   1.452  0.1862  0.0955  0.1625
   34MOL   C27222118   4.853   3.426   1.449  0.5516  0.6827  0.1868
   34MOL   C27322119   4.951   3.448   1.568  0.2544 -0.0376 -1.1897
   34MOL   C27422120   5.098   3.416   1.541 -0.1691 -0.2868 -0.3571
   34MOL   C27522121   5.191   3.419   1.665 -0.0380  0.3919  0.3434
   34MOL   C27622122   5.339   3.433   1.638  0.1517  0.5644  0.1522
   34MOL   H27722123   4.299   3.808   1.439  1.3662 -1.1524 -1.0420
   34MOL   H27822124   4.323   3.757   1.273 -0.9644 -1.0843 -0.7915
   34MOL   H27922125   4.214   3.575   1.491 -0.2060  0.5954  0.2633
   34MOL   H28022126   4.452   3.615   1.525  0.5801 -3.3165  1.8420
   34MOL   H28122127   4.416   3.452   1.452  4.4427 -0.6517  1.0859
   34MOL   H28222128   4.531   3.695   1.309  0.3897 -1.1147 -0.3660
   34MOL   H28322129   4.479   3.549   1.226 -0.0591 -1.7528  0.8759
   34MOL   H28422130   4.708   3.564   1.246  0.0644 -0.0399 -0.1612
   34MOL   H28522131   4.635   3.413   1.297 -0.5248  0.6330  0.0586
   34MOL   H28622132   4.679   3.518   1.543 -0.3741  0.3684 -0.1546
   34MOL   H28722133   4.769   3.635   1.449 -2.1720  0.8770  1.2217
   34MOL   H28822134   4.809   3.326   1.458 -0.0982  1.1053  1.8465
   34MOL   H28922135   4.908   3.431   1.355  0.7096 -0.8635  0.1813
   34MOL   H29022136   4.930   3.395   1.661  0.0946 -4.4246 -3.5579
   34MOL   H29122137   4.954   3.554   1.590 -0.7091 -0.5199  1.3740
   34MOL   H29222138   5.102   3.313   1.505  0.3757 -0.2263 -0.4689
   34MOL   H29322139   5.144   3.468   1.457 -0.3183  0.4795  0.0385
   34MOL   H29422140   5.175   3.323   1.712 -0.2613 -0.2778 -1.0640
   34MOL   H29522141   5.172   3.505   1.729  1.5502  1.4578 -0.5541
   34MOL   H29622142   5.383   3.360   1.570  2.5906 -0.5576  2.8505
   34MOL   H29722143   5.392   3.432   1.733  0.3945 -0.5274  0.0072
   34MOL   H29822144   5.358   3.535   1.605 -1.4635  0.6417 -0.5808
   34MOL   C29922145   4.214   3.493   1.306 -0.6466 -0.0696 -0.0609
   34MOL   C30022146   4.192   3.349   1.368  0.2200 -0.1429  0.7032
   34MOL   C30122147   4.192   3.246   1.252 -0.0304 -0.2542 -0.3990
   34MOL   C30222148   4.338   3.204   1.214 -0.6366  0.2941 -0.0733
   34MOL   C30322149   4.344   3.087   1.125 -0.0091  0.0465 -0.5009
   34MOL   C30422150   4.481   3.042   1.088 -0.1626  0.2182 -0.6014
   34MOL   C30522151   4.567   3.137   1.004  0.3737 -0.4673  1.3444
   34MOL   C30622152   4.705   3.073   0.966  0.3322  0.0851 -1.3440
   34MOL   C30722153   4.798   3.173   0.886 -0.3647 -0.4723  0.3942
   34MOL   C30822154   4.928   3.107   0.831  1.1034  0.1782 -0.2636
   34MOL   C30922155   5.006   3.218   0.759 -0.1910 -0.0432 -0.4008
   34MOL   H31022156   4.268   3.492   1.212  4.1503  1.9946  2.4954
   34MOL   H31122157   4.114   3.525   1.275 -1.4809 -0.8160  1.7892
   34MOL   H31222158   4.267   3.314   1.439 -0.1366 -0.6811  0.8213
   34MOL   H31322159   4.130   3.158   1.269  1.0430 -0.4879  2.6587
   34MOL   H31422160   4.144   3.292   1.166  0.9289 -1.7690 -1.7798
   34MOL   H31522161   4.387   3.292   1.172 -1.6427  1.3485  0.8938
   34MOL   H31622162   4.395   3.186   1.305  0.1959 -1.1649 -0.8663
   34MOL   H31722163   4.304   3.003   1.181 -0.3063  1.0329  0.8136
   34MOL   H31822164   4.281   3.108   1.039  0.0936  0.3761 -0.4991
   34MOL   H31922165   4.468   2.943   1.045  0.9188 -0.2248  0.0944
   34MOL   H32022166   4.533   3.034   1.183 -0.6096  2.5464 -0.1175
   34MOL   H32122167   4.513   3.157   0.911  1.7131 -0.2758  0.5923
   34MOL   H32222168   4.579   3.234   1.051 -3.4965 -0.4301  2.4594
   34MOL   H32322169   4.686   2.976   0.921 -1.8838 -0.0518 -0.1520
   34MOL   H32422170   4.761   3.044   1.056 -0.9161 -1.1041 -0.9361
   34MOL   H32522171   4.831   3.246   0.960 -1.8396  0.6109  0.0179
   34MOL   H32622172   4.739   3.232   0.816 -0.5275 -0.5267  0.4833
   34MOL   H32722173   4.898   3.020   0.772 -1.4499  0.7121  0.2224
   34MOL   H32822174   4.986   3.080   0.919 -0.3764 -0.1483  0.6156
   34MOL   H32922175   5.014   3.308   0.819 -0.8697 -0.1274 -0.1815
   34MOL   H33022176   5.102   3.173   0.734 -0.7978 -2.3284  1.1649
   34MOL   H33122177   4.960   3.250   0.665  0.1210 -1.6496 -1.1245
   34MOL   C33222178   4.051   3.343   1.440 -0.0298 -0.4918 -0.2808
   34MOL   C33322179   4.053   3.270   1.573  0.1672  0.4478  0.3838
   34MOL   C33422180   3.909   3.233   1.614 -0.0957 -0.8076 -0.3691
   34MOL   C33522181   3.857   3.105   1.541 -0.1400  0.3186 -0.3051
   34MOL   C33622182   3.708   3.090   1.564  0.5263 -0.4442  0.4849
   34MOL   C33722183   3.632   2.978   1.484 -0.3245 -0.1731 -0.6048
   34MOL   C33822184   3.720   2.849   1.455 -0.5558 -0.3091  0.5876
   34MOL   C33922185   3.663   2.725   1.395  0.0898  0.2076 -0.2050
   34MOL   C34022186   3.606   2.748   1.253  0.5372 -0.2089 -0.0252
   34MOL   C34122187   3.551   2.613   1.195  0.1051  0.2835 -0.0371
   34MOL   C34222188   3.520   2.622   1.041 -0.2487  0.2705  0.2459
   34MOL   H34322189   4.008   3.441   1.456  0.2289 -0.7464  2.1863
   34MOL   H34422190   3.984   3.290   1.372 -1.2436  1.5141 -0.6854
   34MOL   H34522191   4.121   3.185   1.566 -0.1169  0.3834 -1.8020
   34MOL   H34622192   3.849   3.323   1.604 -0.2149 -0.8167  0.2282
   34MOL   H34722193   3.913   3.213   1.721 -0.2264  1.2691  0.0499
   34MOL   H34822194   3.873   3.109   1.433  0.3978 -0.1441 -0.2502
   34MOL   H34922195   3.909   3.012   1.566 -1.4770 -0.7316 -1.3166
   34MOL   H35022196   3.694   3.067   1.670  0.5654 -1.0631  0.3617
   34MOL   H35122197   3.667   3.189   1.547  2.1829  0.5981  2.3565
   34MOL   H35222198   3.595   3.006   1.386  1.0297 -0.3040 -1.1693
   34MOL   H35322199   3.545   2.948   1.542  1.2662  1.1214  2.5912
   34MOL   H35422200   3.751   2.821   1.556  2.0025 -2.1781 -0.6462
   34MOL   H35522201   3.813   2.867   1.400 -0.2860 -0.3904  1.0117
   34MOL   H35622202   3.746   2.654   1.398 -0.1368 -0.2358 -2.8157
   34MOL   H35722203   3.590   2.678   1.460 -1.6363  2.5089 -0.4166
   34MOL   H35822204   3.676   2.802   1.189 -0.4111  1.6141  0.4445
   34MOL   H35922205   3.517   2.810   1.265  0.6839 -0.1478  0.7870
   34MOL   H36022206   3.458   2.585   1.245  0.7901 -1.0666  0.5028
   34MOL   H36122207   3.624   2.533   1.201  1.2368  1.3165  0.2037
   34MOL   H36222208   3.611   2.628   0.981 -0.4443  1.4833  0.0514
   34MOL   H36322209   3.470   2.535   0.999  0.6253  0.2019 -0.6892
   34MOL   H36422210   3.465   2.710   1.007  2.2944  2.2383  1.0392
   34MOL   C36522211   4.110   3.366   1.685  0.3424 -0.3295  0.0720
   34MOL   C36622212   4.157   3.295   1.814  0.6503  0.0826  0.2683
   34MOL   C36722213   4.268   3.187   1.793  0.2022  0.3975  0.0908
   34MOL   C36822214   4.397   3.240   1.727 -0.1991  0.3792 -0.2393
   34MOL   C36922215   4.507   3.135   1.745  0.9035  0.7853 -0.1474
   34MOL   C37022216   4.623   3.178   1.654 -0.1910  0.2679  0.0091
   34MOL   C37122217   4.757   3.116   1.696 -0.7856 -0.4435  0.6610
   34MOL   C37222218   4.810   3.191   1.824  0.4935  0.5363  0.4407
   34MOL   C37322219   4.950   3.149   1.871 -0.1215  0.0715  0.0464
   34MOL   C37422220   5.020   3.247   1.964 -0.7706  0.3369 -0.3445
   34MOL   C37522221   4.939   3.301   2.081  0.1458 -1.1457  0.0597
   34MOL   H37622222   4.184   3.432   1.641  0.6658 -0.1903  0.8271
   34MOL   H37722223   4.033   3.439   1.710  0.3449 -0.3301  0.0808
   34MOL   H37822224   4.074   3.244   1.864 -0.1309  1.9726  0.9521
   34MOL   H37922225   4.230   3.095   1.750  3.2272 -1.3963  1.0987
   34MOL   H38022226   4.292   3.139   1.888 -0.6069  0.6342  0.4234
   34MOL   H38122227   4.428   3.337   1.767  1.3423 -0.3733  0.4543
   34MOL   H38222228   4.372   3.257   1.622 -0.5793 -1.3169 -0.4324
   34MOL   H38322229   4.464   3.041   1.710  1.6478  0.2361  0.3972
   34MOL   H38422230   4.537   3.112   1.847  1.3759 -0.7971 -0.6328
   34MOL   H38522231   4.641   3.284   1.634 -1.6913 -0.0414 -3.1927
   34MOL   H38622232   4.602   3.134   1.557  3.7749 -0.4280 -0.6347
   34MOL   H38722233   4.753   3.009   1.713 -2.8638 -0.5874 -0.5164
   34MOL   H38822234   4.832   3.118   1.617 -1.4473  1.9821  0.0459
   34MOL   H38922235   4.740   3.163   1.903  0.8042 -0.7576  0.2705
   34MOL   H39022236   4.793   3.299   1.825 -3.1032  0.0468 -0.1777
   34MOL   H39122237   4.934   3.053   1.920 -2.3513  0.7316  0.6804
   34MOL   H39222238   5.025   3.129   1.794  0.9357  1.5784  0.6805
   34MOL   H39322239   5.110   3.207   2.010 -0.7393  0.3717 -0.3756
   34MOL   H39422240   5.057   3.331   1.906  1.4020 -0.5040 -0.2296
   34MOL   H39522241   4.893   3.224   2.142  0.5805  0.1826  2.0921
   34MOL   H39622242   4.872   3.383   2.055  1.4778  0.0077  0.1926
   34MOL   H39722243   5.007   3.351   2.150 -2.5972  1.9221  0.6642
   34MOL   C39822244   4.185   3.400   1.925 -0.2493 -0.1513  0.1117
   34MOL   C39922245   4.184   3.353   2.071  0.3865  0.2192 -0.2863
   34MOL   C40022246   4.048   3.380   2.141 -0.6867 -0.6041  0.3917
   34MOL   C40122247   3.939   3.284   2.100  0.2845 -1.0620 -0.3024
   34MOL   C40222248   3.816   3.298   2.197 -0.0159 -0.3954  0.0803
   34MOL   C40322249   3.718   3.182   2.190  0.9200  0.5001  0.2887
   34MOL   C40422250   3.607   3.197   2.292  0.8675  0.3309  0.1835
   34MOL   C40522251   3.515   3.319   2.268  0.1949 -0.5694 -0.3756
   34MOL   C40622252   3.389   3.305   2.360 -0.6448  0.3098 -0.6591
   34MOL   C40722253   3.277   3.397   2.309 -0.2125 -0.3402  0.0230
   34MOL   C40822254   3.152   3.403   2.392 -0.1838  0.3699  0.6713
   34MOL   H40922255   4.118   3.485   1.913 -0.1577 -0.1889 -0.6767
   34MOL   H41022256   4.282   3.444   1.901 -0.1510 -0.0569  0.6795
   34MOL   H41122257   4.204   3.247   2.080 -0.2006  0.0645 -0.7258
   34MOL   H41222258   4.014   3.483   2.131  1.0755 -0.1222 -0.9327
   34MOL   H41322259   4.060   3.355   2.247 -0.1036 -1.9458  0.0215
   34MOL   H41422260   3.918   3.316   1.998 -4.7822  0.1496  0.9739
   34MOL   H41522261   3.977   3.182   2.098  0.3005 -1.0228 -3.0698
   34MOL   H41622262   3.850   3.321   2.298 -2.1834 -2.0031  1.2202
   34MOL   H41722263   3.771   3.389   2.159  1.1906 -0.1139 -0.7115
   34MOL   H41822264   3.776   3.092   2.211  1.5576  1.1496  1.4074
   34MOL   H41922265   3.676   3.171   2.090  1.8290 -0.0253 -0.0487
   34MOL   H42022266   3.557   3.100   2.287 -1.2685  1.4944 -2.3649
   34MOL   H42122267   3.641   3.217   2.394  0.7002 -2.1920  0.7679
   34MOL   H42222268   3.477   3.331   2.166  1.1823  2.4672 -0.4326
   34MOL   H42322269   3.565   3.415   2.264 -0.3614 -0.2872 -0.5776
   34MOL   H42422270   3.350   3.203   2.361  0.4509 -0.1153 -0.7114
   34MOL   H42522271   3.418   3.330   2.462 -0.5515 -1.0904 -0.3312
   34MOL   H42622272   3.254   3.389   2.203  2.0434  1.0901 -0.6288
   34MOL   H42722273   3.319   3.497   2.302 -1.4005  0.0162 -2.1928
   34MOL   H42822274   3.094   3.487   2.355 -0.2509 -0.3632 -0.9407
   34MOL   H42922275   3.169   3.413   2.499 -0.2743  0.7110  0.6537
   34MOL   H43022276   3.096   3.313   2.366 -1.4267  1.8044 -1.8366
   34MOL   C43122277   4.288   3.435   2.153  0.3293 -0.1769 -0.3820
   34MOL   C43222278   4.323   3.390   2.295 -0.4915  0.6150 -0.0058
   34MOL   C43322279   4.399   3.500   2.370  0.1220 -0.6046 -0.2190
   34MOL   C43422280   4.534   3.550   2.309  0.1910  0.1761 -0.3113
   34MOL   C43522281   4.575   3.680   2.377 -0.7832  0.8524  0.2350
   34MOL   C43622282   4.695   3.742   2.305 -0.1426  0.0245  0.0987
   34MOL   C43722283   4.730   3.873   2.380 -0.5354 -0.4186  0.4743
   34MOL   C43822284   4.835   3.971   2.317  0.6368 -0.2301 -0.4139
   34MOL   C43922285   4.830   4.115   2.371  0.0955  0.3591  0.3825
   34MOL   C44022286   4.695   4.192   2.346  0.3762 -0.0569  0.0737
   34MOL   C44122287   4.724   4.342   2.354 -0.1336  0.1157  0.3139
   34MOL   H44222288   4.276   3.542   2.132  0.2036  0.1738  1.3898
   34MOL   H44322289   4.384   3.422   2.103  0.4980 -2.4255  0.4702
   34MOL   H44422290   4.236   3.378   2.359  0.7072  1.1473  1.7382
   34MOL   H44522291   4.338   3.590   2.376 -0.6235 -1.2414  2.2987
   34MOL   H44622292   4.406   3.478   2.476  1.6099 -0.0792 -0.2021
   34MOL   H44722293   4.502   3.576   2.208 -0.1910 -0.7038 -0.4168
   34MOL   H44822294   4.614   3.476   2.301 -0.4439 -0.5808  0.3476
   34MOL   H44922295   4.610   3.654   2.477  0.3250  1.9572  0.1405
   34MOL   H45022296   4.492   3.747   2.399 -1.5438  0.2842 -0.8560
   34MOL   H45122297   4.673   3.754   2.199  3.0833  0.4160 -0.5721
   34MOL   H45222298   4.786   3.683   2.307 -0.1556  0.0066  0.1512
   34MOL   H45322299   4.755   3.851   2.483 -0.1506  1.1299  0.7237
   34MOL   H45422300   4.637   3.929   2.387 -0.3642  0.3539 -2.5564
   34MOL   H45522301   4.932   3.921   2.323  1.4253  1.4007  0.8672
   34MOL   H45622302   4.813   3.985   2.211 -0.1777 -1.1741 -0.3794
   34MOL   H45722303   4.908   4.178   2.328 -0.0398 -0.7840 -1.5927
   34MOL   H45822304   4.856   4.116   2.477 -1.9367  0.2838  0.8946
   34MOL   H45922305   4.628   4.170   2.429 -0.6452 -0.0317 -0.7348
   34MOL   H46022306   4.639   4.164   2.256 -0.9854 -3.0185  1.7587
   34MOL   H46122307   4.806   4.372   2.288  1.2303 -0.9834  1.4834
   34MOL   H46222308   4.628   4.389   2.334 -0.1651 -0.6539 -1.4902
   34MOL   H46322309   4.747   4.381   2.453 -4.0966  1.1057  0.9211
   34MOL   C46422310   4.405   3.253   2.285 -0.0457  0.6955  0.4339
   34MOL   C46522311   4.457   3.189   2.418  0.2232  1.0862 -0.3681
   34MOL   C46622312   4.331   3.160   2.514  0.1650  0.3652 -0.4950
   34MOL   C46722313   4.240   3.052   2.464  0.4072  0.2168  0.1186
   34MOL   C46822314   4.099   3.063   2.515 -0.1032  0.6483  0.5035
   34MOL   C46922315   4.009   2.956   2.451 -0.6291 -0.4838  0.4171
   34MOL   C47022316   3.855   2.980   2.471  0.5152 -0.9348  0.9577
   34MOL   C47122317   3.776   2.875   2.398  0.1654 -0.6812 -0.1687
   34MOL   C47222318   3.782   2.729   2.450 -0.1373  0.0849 -0.1950
   34MOL   C47322319   3.672   2.636   2.410 -0.5234  0.7963  0.4831
   34MOL   C47422320   3.689   2.504   2.475 -0.2583  0.6388 -0.4451
   34MOL   H47522321   4.482   3.272   2.211 -2.6141  1.2991 -2.1686
   34MOL   H47622322   4.337   3.180   2.241 -0.5948  0.3577  1.7962
   34MOL   H47722323   4.508   3.271   2.470 -0.8326  0.6655  1.3918
   34MOL   H47822324   4.282   3.256   2.531  0.6643  0.5613 -0.1318
   34MOL   H47922325   4.353   3.129   2.616 -0.1119  0.1175 -0.5101
   34MOL   H48022326   4.231   3.058   2.356 -1.0802  0.3806  0.2340
   34MOL   H48122327   4.279   2.952   2.484 -0.4793 -0.0508  0.5541
   34MOL   H48222328   4.063   3.166   2.504  0.8319  1.1521  2.0650
   34MOL   H48322329   4.104   3.060   2.624 -1.1304  1.5632  0.5905
   34MOL   H48422330   4.029   2.939   2.346 -0.9682 -1.1526  0.4531
   34MOL   H48522331   4.027   2.869   2.515  0.8263 -0.3713  0.1755
   34MOL   H48622332   3.825   2.987   2.575 -1.3328  1.2094  0.3169
   34MOL   H48722333   3.839   3.079   2.428  1.1319 -0.4476  1.8411
   34MOL   H48822334   3.674   2.913   2.399  0.2459 -0.4170 -1.4116
   34MOL   H48922335   3.801   2.862   2.293 -0.0491 -2.3712 -0.0218
   34MOL   H49022336   3.884   2.701   2.422 -0.3852 -0.4766 -0.5573
   34MOL   H49122337   3.781   2.734   2.558  0.5437  1.1281 -0.2291
   34MOL   H49222338   3.573   2.672   2.437 -1.0878 -0.2396 -0.1518
   34MOL   H49322339   3.680   2.623   2.303  2.8200  0.0302  0.7758
   34MOL   H49422340   3.669   2.516   2.582  0.2338  0.1639 -0.2989
   34MOL   H49522341   3.791   2.466   2.468 -0.5538 -0.0749 -0.8419
   34MOL   H49622342   3.624   2.423   2.443  0.3116 -0.6302  1.4876
   34MOL   C49722343   4.547   3.061   2.393  0.5282 -0.2196  0.9679
   34MOL   C49822344   4.635   3.018   2.511  0.0149 -0.5717 -0.4410
   34MOL   C49922345   4.721   3.136   2.569  0.2510 -0.0198  0.6645
   34MOL   C50022346   4.813   3.218   2.470  0.6745 -0.0049  0.3822
   34MOL   C50122347   4.877   3.330   2.546  0.0551 -0.0059  0.0980
   34MOL   C50222348   4.968   3.417   2.459 -0.3943  0.1722  0.1171
   34MOL   C50322349   5.020   3.536   2.540 -0.2860 -0.2974  0.1411
   34MOL   C50422350   5.118   3.620   2.455  0.3058  0.4404  0.2513
   34MOL   C50522351   5.147   3.765   2.515 -0.2658 -0.0542  0.4617
   34MOL   C50622352   5.257   3.838   2.440 -0.2429 -0.0184  0.0750
   34MOL   C50722353   5.251   3.990   2.461  0.1479 -0.4265 -0.4282
   34MOL   H50822354   4.480   2.978   2.371  2.1356 -1.0266 -1.0499
   34MOL   H50922355   4.621   3.074   2.315  1.1241 -0.2144  1.5258
   34MOL   H51022356   4.559   2.992   2.585 -0.2316 -0.6389 -0.7201
   34MOL   H51122357   4.778   3.102   2.656  0.2911 -0.2160  0.5598
   34MOL   H51222358   4.651   3.206   2.616 -1.6030 -0.6400 -1.1210
   34MOL   H51322359   4.752   3.262   2.391 -0.5752 -2.4340 -0.0528
   34MOL   H51422360   4.886   3.163   2.410  1.8457  2.2364 -0.2975
   34MOL   H51522361   4.802   3.397   2.587  2.2461  1.7740  1.3137
   34MOL   H51622362   4.919   3.287   2.637  0.2341 -1.3668 -0.6121
   34MOL   H51722363   5.061   3.371   2.424 -0.8981 -0.4330 -0.4230
   34MOL   H51822364   4.917   3.453   2.370  0.2126  0.2082 -0.2235
   34MOL   H51922365   4.941   3.606   2.566  1.1663  0.7195  1.9203
   34MOL   H52022366   5.066   3.489   2.626 -0.8712 -1.4370 -0.1710
   34MOL   H52122367   5.093   3.621   2.349  1.6599 -1.2217 -0.0953
   34MOL   H52222368   5.212   3.567   2.463  0.5102  0.9432  1.3651
   34MOL   H52322369   5.167   3.766   2.622  2.5472  0.3413 -0.0329
   34MOL   H52422370   5.057   3.827   2.513  1.2726  2.2016 -0.6969
   34MOL   H52522371   5.259   3.832   2.331 -1.1959  1.3893 -0.0357
   34MOL   H52622372   5.352   3.797   2.474 -0.8910 -1.5196  0.1310
   34MOL   H52722373   5.278   4.019   2.563  2.2098 -1.4125 -0.6589
   34MOL   H52822374   5.157   4.039   2.434  0.2520  0.0735  0.1028
   34MOL   H52922375   5.334   4.041   2.411 -0.4034  1.8043  0.8923
   34MOL   C53022376   4.731   2.899   2.473  0.3192 -0.0674  0.4701
   34MOL   C53122377   4.658   2.760   2.450  0.4307 -0.2859 -0.0216
   34MOL   C53222378   4.583   2.711   2.573  0.4753  0.3381  0.0316
   34MOL   C53322379   4.494   2.579   2.559 -0.1033 -0.9617 -0.3717
   34MOL   C53422380   4.356   2.608   2.494 -0.3982 -0.2285  0.6611
   34MOL   C53522381   4.281   2.476   2.491  0.4909  0.6961 -0.1507
   34MOL   C53622382   4.149   2.488   2.422 -0.1084 -0.1715 -0.1606
   34MOL   C53722383   4.157   2.489   2.263 -0.2193 -0.3144  0.6091
   34MOL   C53822384   4.020   2.481   2.199 -0.2550 -0.3799  0.2446
   34MOL   C53922385   4.023   2.487   2.048 -0.0541  0.3706  0.0711
   34MOL   C54022386   3.893   2.443   1.976  0.2696  0.7326 -0.4593
   34MOL   H54122387   4.784   2.928   2.383 -1.9006  1.7775 -0.2911
   34MOL   H54222388   4.787   2.890   2.567 -0.8334  0.8985  1.2570
   34MOL   H54322389   4.575   2.784   2.383  1.9780  1.7853 -1.2402
   34MOL   H54422390   4.523   2.795   2.608  0.2635 -0.6602  2.1269
   34MOL   H54522391   4.657   2.688   2.650  1.1661 -0.1921 -0.7852
   34MOL   H54622392   4.482   2.526   2.654 -1.8071  0.9620  0.5093
   34MOL   H54722393   4.551   2.513   2.493  2.2884 -0.4941  1.1530
   34MOL   H54822394   4.352   2.660   2.398 -2.1468  1.3458  1.5502
   34MOL   H54922395   4.307   2.680   2.559 -1.3888 -0.0206 -0.2991
   34MOL   H55022396   4.263   2.444   2.594  1.0210 -0.3343 -0.3747
   34MOL   H55122397   4.333   2.397   2.438 -2.4579 -0.1786 -1.8719
   34MOL   H55222398   4.095   2.574   2.462 -0.7071  0.2163 -1.7560
   34MOL   H55322399   4.086   2.403   2.446  0.9715 -1.2305 -1.0412
   34MOL   H55422400   4.220   2.411   2.222 -0.7999 -0.9813  0.9704
   34MOL   H55522401   4.199   2.586   2.234 -3.8498  0.9358 -0.7692
   34MOL   H55622402   3.951   2.552   2.244  0.2752  0.0080  0.4479
   34MOL   H55722403   3.982   2.382   2.224  0.9438 -1.0496 -0.5380
   34MOL   H55822404   4.104   2.425   2.011 -1.2299 -0.4927 -1.0589
   34MOL   H55922405   4.050   2.589   2.017 -1.6407  0.7874  0.0507
   34MOL   H56022406   3.898   2.431   1.868  2.1322  3.1394 -0.6795
   34MOL   H56122407   3.845   2.352   2.014  1.1492 -0.6063 -2.4522
   34MOL   H56222408   3.815   2.516   1.996 -0.1071  1.5582 -4.5825
   34MOL   C56322409   4.746   2.651   2.392 -1.0152 -0.3561  0.3441
   34MOL   C56422410   4.702   2.597   2.254  0.4602 -0.0687 -0.1637
   34MOL   C56522411   4.759   2.457   2.228 -0.4821  0.1021 -0.3515
   34MOL   C56622412   4.671   2.343   2.286  0.7204  0.2602 -0.2861
   34MOL   C56722413   4.537   2.315   2.219 -0.3376  0.2908 -0.3725
   34MOL   C56822414   4.550   2.281   2.070  0.1345  1.2420 -0.0499
   34MOL   C56922415   4.409   2.245   2.017 -0.7441 -0.0992  0.2376
   34MOL   C57022416   4.409   2.223   1.858  0.3262  0.1741  0.2498
   34MOL   C57122417   4.501   2.108   1.809 -0.9546 -0.1299  0.0525
   34MOL   C57222418   4.502   2.111   1.652  0.4192  0.5410  0.5896
   34MOL   C57322419   4.572   2.002   1.576 -0.3649 -0.6798  0.3493
   34MOL   H57422420   4.767   2.575   2.468  0.6706 -0.1594  0.0826
   34MOL   H57522421   4.847   2.689   2.384 -0.3562 -2.5260 -1.9926
   34MOL   H57622422   4.593   2.589   2.256  0.2489  2.7569  0.6297
   34MOL   H57722423   4.850   2.438   2.284 -0.6480  0.1523 -0.0632
   34MOL   H57822424   4.772   2.430   2.123 -0.7069 -2.9906  0.3813
   34MOL   H57922425   4.644   2.364   2.389 -0.2060  0.0261 -0.4786
   34MOL   H58022426   4.728   2.250   2.288  0.8818  0.3746  2.4976
   34MOL   H58122427   4.472   2.401   2.233 -0.1683  0.7894 -2.5873
   34MOL   H58222428   4.494   2.225   2.264 -0.0721  0.5267  0.3584
   34MOL   H58322429   4.581   2.367   2.010 -1.0333  0.2923 -2.0836
   34MOL   H58422430   4.614   2.194   2.058  1.3420  2.2538 -1.0408
   34MOL   H58522431   4.374   2.151   2.058 -1.2844 -0.6100 -1.3450
   34MOL   H58622432   4.352   2.331   2.053  0.5756  0.5040  0.9382
   34MOL   H58722433   4.438   2.321   1.819 -1.4291  1.4185  1.9742
   34MOL   H58822434   4.307   2.211   1.821  0.7713 -0.3521 -0.8438
   34MOL   H58922435   4.454   2.016   1.844  0.7497 -0.7045  0.8927
   34MOL   H59022436   4.606   2.111   1.837 -0.4578 -0.8651 -1.7202
   34MOL   H59122437   4.528   2.211   1.615 -0.8652  0.8472  0.4861
   34MOL   H59222438   4.398   2.110   1.618  0.5563 -0.8743  0.1911
   34MOL   H59322439   4.679   2.015   1.588 -0.4151 -0.3525  0.4406
   34MOL   H59422440   4.541   1.907   1.620  0.6871 -2.0978 -1.8167
   34MOL   H59522441   4.543   2.018   1.472 -1.3366 -0.3125  0.6690
   34MOL   C59622442   4.742   2.685   2.140 -0.6168 -0.1536  0.7712
   34MOL   C59722443   4.651   2.671   2.013 -0.2416  0.0592  0.2569
   34MOL   C59822444   4.711   2.759   1.895  0.0945 -0.4963  0.1005
   34MOL   C59922445   4.840   2.705   1.834 -1.0848  0.9659 -0.0982
   34MOL   C60022446   4.823   2.554   1.803 -0.6420 -0.0491  0.5093
   34MOL   C60122447   4.934   2.509   1.702 -0.8853 -0.1059 -0.5657
   34MOL   C60222448   4.907   2.364   1.645  0.2348  0.2514 -0.2277
   34MOL   C60322449   4.987   2.325   1.528 -0.1285 -0.1663 -0.2377
   34MOL   C60422450   4.897   2.350   1.403  0.4198 -0.2283 -0.0875
   34MOL   C60522451   4.967   2.306   1.274 -0.6676 -0.0951 -0.5309
   34MOL   C60622452   4.961   2.157   1.252 -0.3996  0.2787 -0.3615
   34MOL   H60722453   4.721   2.786   2.177 -1.2698  0.2367 -0.6450
   34MOL   H60822454   4.850   2.676   2.124 -0.9972 -2.9842 -0.4711
   34MOL   H60922455   4.651   2.569   1.975 -0.3892  0.6779 -1.4146
   34MOL   H61022456   4.729   2.859   1.935  2.0531  0.1580 -2.3122
   34MOL   H61122457   4.646   2.775   1.810 -2.0686  2.3856  2.2051
   34MOL   H61222458   4.921   2.724   1.904  0.2697 -1.4576 -0.9543
   34MOL   H61322459   4.868   2.761   1.744  0.2418  1.6808  0.7284
   34MOL   H61422460   4.725   2.542   1.757 -0.2539 -1.0036 -0.0873
   34MOL   H61522461   4.824   2.493   1.894  0.6699  0.0142  0.5441
   34MOL   H61622462   4.938   2.584   1.623 -2.4070 -0.9588 -1.4783
   34MOL   H61722463   5.033   2.516   1.748 -1.2034 -0.5986  0.1988
   34MOL   H61822464   4.800   2.361   1.624  0.1002 -1.3215  0.6084
   34MOL   H61922465   4.927   2.295   1.727  0.4974 -0.1699 -0.6486
   34MOL   H62022466   4.998   2.217   1.539 -1.7597 -0.2473  0.7771
   34MOL   H62122467   5.082   2.377   1.539 -1.0523  2.0106 -2.1569
   34MOL   H62222468   4.796   2.308   1.410  0.0258  0.0409 -3.6057
   34MOL   H62322469   4.876   2.457   1.408  0.3637 -0.2846  1.2327
   34MOL   H62422470   5.071   2.339   1.264 -0.5819 -0.2738 -0.2098
   34MOL   H62522471   4.927   2.353   1.183  1.1712  1.1399 -0.7357
   34MOL   H62622472   4.869   2.116   1.293 -1.3513  0.7815 -1.9398
   34MOL   H62722473   4.984   2.127   1.149  1.6919  2.9430 -0.7390
   34MOL   H62822474   5.043   2.120   1.313 -0.5460 -0.6697 -0.7385
   34MOL   C62922475   4.503   2.710   2.021 -0.4069 -0.2420 -0.3997
   34MOL   C63022476   4.470   2.856   2.070  0.0762 -0.2899 -0.1647
   34MOL   C63122477   4.323   2.859   2.116  0.3298 -0.3253 -0.3611
   34MOL   C63222478   4.218   2.858   2.000 -0.0008  0.1434  0.2465
   34MOL   C63322479   4.073   2.903   2.038 -0.5575  0.1562  0.2081
   34MOL   C63422480   3.994   2.923   1.901 -0.9049 -0.5056 -0.1665
   34MOL   C63522481   3.846   2.930   1.915 -0.1023  0.2472 -0.0306
   34MOL   C63622482   3.790   2.790   1.955  0.0212 -0.2307 -0.1253
   34MOL   C63722483   3.637   2.772   1.960 -0.4522 -0.0012 -0.1306
   34MOL   C63822484   3.549   2.837   1.853 -0.1041 -0.0266 -0.0777
   34MOL   C63922485   3.391   2.833   1.880 -0.3285  0.8914 -0.6510
   34MOL   H64022486   4.452   2.703   1.924 -0.6364  1.8488 -0.4369
   34MOL   H64122487   4.444   2.638   2.077 -0.6310 -0.1827 -0.5574
   34MOL   H64222488   4.527   2.884   2.159 -1.4788 -0.9670  1.0494
   34MOL   H64322489   4.314   2.787   2.197  0.6901  1.1333  0.9826
   34MOL   H64422490   4.309   2.954   2.168 -0.4004  0.3743 -1.7863
   34MOL   H64522491   4.221   2.757   1.959  0.2811 -0.5028  1.8291
   34MOL   H64622492   4.262   2.918   1.921 -0.3203  0.4203  0.2786
   34MOL   H64722493   4.064   2.986   2.108  2.0964 -0.3014  1.1442
   34MOL   H64822494   4.017   2.828   2.094 -2.3646  1.4165  0.1460
   34MOL   H64922495   4.016   2.845   1.828  2.4955 -0.1264  0.3412
   34MOL   H65022496   4.029   3.013   1.850 -0.6427 -1.1292 -1.0870
   34MOL   H65122497   3.805   2.973   1.823 -0.3054  0.9899  0.4015
   34MOL   H65222498   3.808   2.996   1.994  2.8700  2.4525 -0.3810
   34MOL   H65322499   3.834   2.753   2.048  1.4678 -1.8628 -1.4126
   34MOL   H65422500   3.827   2.721   1.880  0.8205  0.0515  0.0068
   34MOL   H65522501   3.609   2.813   2.057 -0.7640  1.4664 -0.8345
   34MOL   H65622502   3.609   2.669   1.981  0.3643 -0.1534  0.2311
   34MOL   H65722503   3.579   2.797   1.757 -0.2736 -2.8317  1.0040
   34MOL   H65822504   3.580   2.942   1.854 -2.0059  0.5662  1.0031
   34MOL   H65922505   3.358   2.737   1.840 -0.5424  0.8130 -0.2869
   34MOL   H66022506   3.343   2.911   1.821  0.4888  0.7433 -1.5118
   34MOL   H66122507   3.371   2.826   1.987 -0.6065  0.1752 -0.7449
   34MOL   H66222508   4.488   2.925   1.987 -0.9158 -0.1112 -0.2284
   35MOL     C122509   3.536   5.902   3.214 -0.1699  0.5155  0.5828
   35MOL     C222510   3.455   6.011   3.141  0.3888  0.0283  0.1308
   35MOL     C322511   3.432   5.981   2.993 -0.1188  0.3856 -0.5943
   35MOL     C422512   3.392   6.104   2.912 -0.1777  0.0295 -0.8162
   35MOL     C522513   3.376   6.075   2.766 -0.4035 -0.2185  0.3261
   35MOL     C622514   3.399   6.198   2.676 -0.5668  0.0501  0.4712
   35MOL     C722515   3.397   6.177   2.520 -0.8891  0.3125 -0.4567
   35MOL     C822516   3.402   6.308   2.442 -0.2635 -0.0034 -0.0105
   35MOL     C922517   3.417   6.270   2.297 -0.6999 -0.2198  0.4231
   35MOL    C1022518   3.384   6.381   2.193 -0.2129 -0.2968  0.0479
   35MOL    C1122519   3.424   6.337   2.053  0.4160 -0.3085 -0.2524
   35MOL    H1222520   3.629   5.878   3.162 -0.1139 -0.8522  1.3011
   35MOL    H1322521   3.491   5.805   3.234 -1.8919  1.2252  0.1769
   35MOL    H1422522   3.522   6.096   3.134  0.5528 -0.0563  0.6012
   35MOL    H1522523   3.360   5.900   2.977 -1.1217  1.3180 -0.8387
   35MOL    H1622524   3.526   5.941   2.955  0.7340  1.0163  0.7782
   35MOL    H1722525   3.460   6.189   2.920  0.5279 -0.7144  1.5829
   35MOL    H1822526   3.298   6.142   2.952  0.0675 -1.6532  1.4690
   35MOL    H1922527   3.453   6.000   2.750 -0.6693 -0.4371  0.0671
   35MOL    H2022528   3.285   6.026   2.732 -0.9435  0.4496  0.7895
   35MOL    H2122529   3.499   6.238   2.690  0.0416 -0.9345 -0.8867
   35MOL    H2222530   3.323   6.272   2.699 -0.4387  0.3853 -0.1652
   35MOL    H2322531   3.484   6.119   2.491  1.0777  2.4309  1.0570
   35MOL    H2422532   3.306   6.118   2.505 -0.3015 -0.2690 -1.8390
   35MOL    H2522533   3.480   6.370   2.486  0.4989 -1.4069  0.6275
   35MOL    H2622534   3.309   6.361   2.467  0.8362  2.7407 -1.4758
   35MOL    H2722535   3.338   6.196   2.286 -0.3338 -0.4570 -0.5967
   35MOL    H2822536   3.510   6.221   2.271 -0.9764 -0.6473  0.2276
   35MOL    H2922537   3.441   6.472   2.214 -3.2424  1.2604  2.0041
   35MOL    H3022538   3.279   6.409   2.201  0.1677  1.2223  0.0260
   35MOL    H3122539   3.533   6.332   2.047  0.4200 -0.6915  0.1408
   35MOL    H3222540   3.373   6.240   2.047  0.1380 -0.1094 -1.1655
   35MOL    H3322541   3.389   6.405   1.975 -1.4491  0.7039  1.4243
   35MOL    H3422542   3.570   5.932   3.314 -0.5990  1.3817  0.4766
   35MOL    C3522543   3.329   6.056   3.212 -1.1501  0.1419  0.1105
   35MOL    C3622544   3.331   6.092   3.363  0.1189 -0.1307  0.0957
   35MOL    C3722545   3.451   6.190   3.386 -1.0485  0.2199 -0.2544
   35MOL    C3822546   3.465   6.248   3.529 -0.0337  0.6496 -0.2859
   35MOL    C3922547   3.596   6.317   3.562 -0.3548 -0.9699  0.0146
   35MOL    C4022548   3.590   6.392   3.698  0.2884  0.2574 -0.1167
   35MOL    C4122549   3.720   6.401   3.770  0.5187  1.0133 -0.1421
   35MOL    C4222550   3.693   6.456   3.914 -0.2171 -0.1921 -0.6089
   35MOL    C4322551   3.821   6.467   3.996 -0.6771 -0.0208  0.0525
   35MOL    C4422552   3.788   6.463   4.142 -0.2102  0.5386  0.3288
   35MOL    C4522553   3.919   6.454   4.232  0.0003 -0.3641  0.0690
   35MOL    H4622554   3.262   5.971   3.199 -0.4010 -0.2620 -1.2399
   35MOL    H4722555   3.270   6.130   3.158 -2.0095 -1.7235 -1.5293
   35MOL    H4822556   3.339   6.009   3.434 -0.1738 -1.2119 -1.1110
   35MOL    H4922557   3.546   6.144   3.358 -0.9146 -0.1786  0.8511
   35MOL    H5022558   3.436   6.270   3.314 -2.4288  2.9973  2.9807
   35MOL    H5122559   3.435   6.170   3.599  1.0648 -2.0651 -2.7167
   35MOL    H5222560   3.386   6.322   3.539  0.8965  1.3494  2.2255
   35MOL    H5322561   3.647   6.367   3.480  1.9808  0.3706  2.2178
   35MOL    H5422562   3.666   6.234   3.576  1.1948  0.1638 -0.8589
   35MOL    H5522563   3.518   6.341   3.761  0.7325 -0.9108 -0.5343
   35MOL    H5622564   3.562   6.495   3.680 -0.7061 -0.2786 -1.7647
   35MOL    H5722565   3.766   6.304   3.785 -1.4185 -0.3136 -2.3338
   35MOL    H5822566   3.780   6.468   3.708 -0.6319  1.1142 -1.1800
   35MOL    H5922567   3.621   6.387   3.959 -0.4060  1.0661  1.0568
   35MOL    H6022568   3.645   6.553   3.921 -0.9605 -0.5707 -0.3782
   35MOL    H6122569   3.889   6.546   3.964 -1.0066  0.4064  0.4063
   35MOL    H6222570   3.882   6.377   3.993 -0.7397 -0.2745  3.8436
   35MOL    H6322571   3.736   6.552   4.179 -0.6770  1.1203 -1.6348
   35MOL    H6422572   3.717   6.382   4.160 -0.7777  0.4920 -1.9276
   35MOL    H6522573   3.986   6.538   4.211  1.5042 -1.7432 -0.7151
   35MOL    H6622574   3.900   6.456   4.339  0.4036  0.3609  0.1388
   35MOL    H6722575   3.970   6.360   4.210  1.1154  0.5995 -1.6746
   35MOL    C6822576   3.190   6.149   3.410 -0.1398  0.1163  0.1573
   35MOL    C6922577   3.068   6.048   3.385 -0.3460 -0.3386  0.4817
   35MOL    C7022578   3.049   5.965   3.515  0.2015  0.4383  0.4703
   35MOL    C7122579   2.964   5.844   3.481  0.2697  0.3390 -0.1732
   35MOL    C7222580   2.916   5.767   3.605  0.0882  0.4654  0.3962
   35MOL    C7322581   2.859   5.627   3.586  0.3930 -0.6319  0.7617
   35MOL    C7422582   2.714   5.616   3.537  0.1624 -0.1923  0.4777
   35MOL    C7522583   2.671   5.478   3.492  0.1456 -0.0323 -0.8221
   35MOL    C7622584   2.533   5.487   3.411  0.5340  0.0431  0.6926
   35MOL    C7722585   2.476   5.349   3.363 -0.0206 -0.7519  0.4108
   35MOL    C7822586   2.356   5.368   3.271  0.4827  0.2760 -0.9566
   35MOL    H7922587   3.176   6.247   3.363 -1.2308 -0.1166 -0.0158
   35MOL    H8022588   3.197   6.180   3.514  1.2245 -2.1950  0.7933
   35MOL    H8122589   3.092   5.979   3.304  2.0925  0.2783  0.6177
   35MOL    H8222590   3.014   6.023   3.601  0.3669  0.2530  0.6644
   35MOL    H8322591   3.145   5.933   3.555 -0.1405  0.5130  1.3770
   35MOL    H8422592   2.881   5.873   3.416 -1.5678  2.9268  3.1585
   35MOL    H8522593   3.025   5.776   3.420 -2.0832 -0.3347 -1.8589
   35MOL    H8622594   2.836   5.815   3.661  0.2071  0.8984  0.2010
   35MOL    H8722595   2.999   5.751   3.673  1.0945  0.4376 -0.8156
   35MOL    H8822596   2.928   5.567   3.526 -1.0319 -0.8060 -0.7352
   35MOL    H8922597   2.870   5.577   3.682 -0.4901  0.1344  1.2687
   35MOL    H9022598   2.712   5.686   3.454  3.3135 -3.3937 -2.4927
   35MOL    H9122599   2.631   5.650   3.599  1.5795  1.5955  1.4456
   35MOL    H9222600   2.749   5.431   3.432  2.7824  2.1679  0.7403
   35MOL    H9322601   2.668   5.412   3.578  1.1476  0.6809 -0.2238
   35MOL    H9422602   2.459   5.547   3.462  0.7049  0.5753  0.3171
   35MOL    H9522603   2.542   5.545   3.319  1.5032 -1.8357 -0.4302
   35MOL    H9622604   2.547   5.302   3.295 -3.5663 -3.6280 -1.4872
   35MOL    H9722605   2.449   5.273   3.436  0.0195 -0.7980  0.3775
   35MOL    H9822606   2.269   5.413   3.320  0.2377 -2.0348  0.8033
   35MOL    H9922607   2.322   5.271   3.235  1.7568 -0.1390 -1.0744
   35MOL   H10022608   2.377   5.438   3.190 -1.8950  1.1035 -0.9171
   35MOL   C10122609   2.951   6.137   3.350  0.4359 -0.1542 -0.3219
   35MOL   C10222610   2.955   6.193   3.212  0.3513  0.2709  0.9217
   35MOL   C10322611   2.860   6.324   3.197  0.3312  0.4840  0.1477
   35MOL   C10422612   2.705   6.302   3.201 -0.3311 -0.1431  0.2319
   35MOL   C10522613   2.632   6.401   3.289 -0.0428 -0.0903  0.8863
   35MOL   C10622614   2.643   6.388   3.441  0.0102 -0.2928  0.3433
   35MOL   C10722615   2.574   6.508   3.508 -0.3250  0.5760  0.4890
   35MOL   C10822616   2.580   6.511   3.664 -0.1797 -0.2104  0.4086
   35MOL   C10922617   2.509   6.644   3.717 -0.2729 -0.2952 -0.1472
   35MOL   C11022618   2.542   6.677   3.856  0.0324 -0.1555  0.3279
   35MOL   C11122619   2.486   6.813   3.896 -0.1691 -0.0388  0.5071
   35MOL   H11222620   2.859   6.079   3.351  0.1175  0.3513  0.7082
   35MOL   H11322621   2.938   6.209   3.431 -0.7101 -0.2731 -0.3934
   35MOL   H11422622   3.058   6.229   3.205  1.0639 -1.7243  0.8108
   35MOL   H11522623   2.884   6.394   3.277  2.0642 -0.2405  0.2948
   35MOL   H11622624   2.890   6.372   3.104 -0.4326 -0.8232 -0.7924
   35MOL   H11722625   2.678   6.308   3.096 -0.8710 -2.5009  0.2143
   35MOL   H11822626   2.678   6.202   3.236 -0.4155  0.1911  1.1496
   35MOL   H11922627   2.675   6.498   3.264  0.8116 -0.7277 -0.1125
   35MOL   H12022628   2.525   6.415   3.271  0.2025 -1.2348 -1.6607
   35MOL   H12122629   2.602   6.292   3.471 -0.3468 -0.1768  0.2242
   35MOL   H12222630   2.742   6.382   3.488 -0.1104 -2.0388  0.4102
   35MOL   H12322631   2.470   6.502   3.476 -0.7806 -2.5807  2.3166
   35MOL   H12422632   2.606   6.601   3.463 -1.8581  0.8695 -0.0392
   35MOL   H12522633   2.548   6.416   3.706 -0.1838  0.0182  0.9239
   35MOL   H12622634   2.687   6.507   3.685  0.0782 -0.5821 -0.9363
   35MOL   H12722635   2.535   6.728   3.653  0.3122 -0.2995  0.0845
   35MOL   H12822636   2.401   6.645   3.699 -0.1229  0.6677 -1.0086
   35MOL   H12922637   2.650   6.667   3.869 -0.1506 -1.7055  0.8502
   35MOL   H13022638   2.501   6.597   3.918  1.0093  0.6717  2.0744
   35MOL   H13122639   2.510   6.834   4.000  1.6937  1.9268 -0.2861
   35MOL   H13222640   2.514   6.889   3.824 -3.1530 -1.4808 -2.2779
   35MOL   H13322641   2.378   6.815   3.890 -0.1779 -2.4536 -0.7328
   35MOL   C13422642   2.942   6.090   3.096  0.2798  0.3881 -0.5502
   35MOL   C13522643   2.891   6.135   2.960  0.4864 -0.2513  0.2306
   35MOL   C13622644   2.854   6.010   2.874 -0.3041  0.0068  0.0084
   35MOL   C13722645   2.962   5.898   2.860  0.0677 -0.1226 -0.3045
   35MOL   C13822646   2.929   5.769   2.782  0.5304  0.3012 -0.6189
   35MOL   C13922647   2.945   5.797   2.631  0.0413 -0.8428 -0.1056
   35MOL   C14022648   2.883   5.682   2.547 -0.0256 -0.3293 -0.2430
   35MOL   C14122649   2.903   5.701   2.401 -0.1071  0.1095 -0.1035
   35MOL   C14222650   2.804   5.802   2.334 -0.0258  0.4271  0.0422
   35MOL   C14322651   2.796   5.794   2.175  0.3791  0.6282  0.2000
   35MOL   C14422652   2.687   5.888   2.120  0.5115 -0.6263 -0.9251
   35MOL   H14522653   3.040   6.043   3.088  0.1741 -0.0145  0.3698
   35MOL   H14622654   2.879   6.010   3.137  3.3280 -0.5886  2.4633
   35MOL   H14722655   2.795   6.186   2.969  1.0775  0.6952  1.2991
   35MOL   H14822656   2.831   6.042   2.773 -3.6933  0.8540  0.9952
   35MOL   H14922657   2.763   5.965   2.914 -1.7910  2.4058 -0.5817
   35MOL   H15022658   3.048   5.953   2.822  0.0503  0.1083 -0.0085
   35MOL   H15122659   2.973   5.866   2.964  0.0100  0.9630  0.0432
   35MOL   H15222660   3.012   5.701   2.803  0.6302 -0.0575 -2.1467
   35MOL   H15322661   2.825   5.741   2.795  0.8181  0.0185  1.2081
   35MOL   H15422662   2.899   5.893   2.604 -0.3762 -0.3727  2.1693
   35MOL   H15522663   3.051   5.806   2.608  0.3987 -1.3888  1.2708
   35MOL   H15622664   2.933   5.588   2.571 -1.4326 -0.8510  0.7094
   35MOL   H15722665   2.777   5.665   2.562 -0.1719 -0.3258 -1.1927
   35MOL   H15822666   3.009   5.711   2.379 -0.0951  1.2001  0.4224
   35MOL   H15922667   2.879   5.604   2.358 -1.5350 -0.4088  1.8190
   35MOL   H16022668   2.702   5.789   2.369  0.3939 -1.7225  0.5392
   35MOL   H16122669   2.830   5.906   2.357  0.1704  0.3796  0.0407
   35MOL   H16222670   2.889   5.825   2.127 -0.6560  1.4219 -1.3497
   35MOL   H16322671   2.771   5.693   2.145 -0.6187  0.7829  0.5013
   35MOL   H16422672   2.590   5.858   2.160  0.9315 -0.7755 -0.0132
   35MOL   H16522673   2.679   5.878   2.012  2.6047 -1.7506 -0.9945
   35MOL   H16622674   2.715   5.988   2.152  3.4694 -1.2085 -1.4979
   35MOL   C16722675   2.989   6.228   2.879  0.9821 -0.0839 -0.2160
   35MOL   C16822676   2.940   6.292   2.744  0.1664 -0.1885  0.1001
   35MOL   C16922677   3.003   6.213   2.630  0.4887  0.2252 -0.0190
   35MOL   C17022678   2.950   6.258   2.490  0.1804 -0.3575  0.6622
   35MOL   C17122679   3.006   6.184   2.372 -0.5218  0.2280 -0.2412
   35MOL   C17222680   2.944   6.221   2.236  0.1439 -0.3715 -0.0252
   35MOL   C17322681   3.021   6.152   2.118  0.5875  0.5762 -0.8233
   35MOL   C17422682   2.994   6.230   1.995 -0.8431 -0.1861  0.1917
   35MOL   C17522683   3.076   6.185   1.875 -0.0268 -0.2236  0.2347
   35MOL   C17622684   3.076   6.298   1.766  0.3465 -0.0045  0.0562
   35MOL   C17722685   2.940   6.317   1.700 -0.0334  0.1941 -0.0009
   35MOL   H17822686   3.025   6.312   2.939 -0.0183  0.5273 -0.4470
   35MOL   H17922687   3.074   6.165   2.854  1.3377 -0.7122  2.4778
   35MOL   H18022688   2.835   6.266   2.731  0.2854 -1.2488  1.1335
   35MOL   H18122689   2.999   6.105   2.645  3.3263 -0.1901 -1.7707
   35MOL   H18222690   3.108   6.242   2.624  0.5889 -0.1224  0.0143
   35MOL   H18322691   2.843   6.244   2.476  0.2962  0.0633 -0.7524
   35MOL   H18422692   2.976   6.361   2.465  0.4124 -0.4245  0.6312
   35MOL   H18522693   2.995   6.078   2.394 -1.4188  0.6691  1.4958
   35MOL   H18622694   3.114   6.193   2.357 -0.3707  0.5953  0.9863
   35MOL   H18722695   2.836   6.209   2.240  0.2951 -1.3014  1.8026
   35MOL   H18822696   2.950   6.329   2.230 -5.1564  0.2889  3.2721
   35MOL   H18922697   2.993   6.048   2.102  2.1023 -0.0002  0.2301
   35MOL   H19022698   3.125   6.136   2.144  0.0678 -0.5153  0.6355
   35MOL   H19122699   2.891   6.229   1.959  0.0975 -2.5783 -2.5904
   35MOL   H19222700   3.019   6.332   2.024  1.3078 -0.4121 -0.7858
   35MOL   H19322701   3.019   6.101   1.834 -0.0161  0.5080 -1.3100
   35MOL   H19422702   3.169   6.139   1.908  0.7129 -0.2426 -1.7913
   35MOL   H19522703   3.152   6.286   1.689 -0.6905  1.0729 -1.1567
   35MOL   H19622704   3.106   6.390   1.815  0.7674 -1.4854  2.6816
   35MOL   H19722705   2.958   6.365   1.604  1.8111 -2.3024 -0.9641
   35MOL   H19822706   2.865   6.380   1.748 -0.6081 -0.5940  0.1369
   35MOL   H19922707   2.893   6.221   1.680  1.4826 -1.0826  2.3340
   35MOL   C20022708   2.957   6.452   2.739  0.3797  0.7427 -0.2146
   35MOL   C20122709   2.864   6.532   2.831  0.1621 -0.0952  0.0300
   35MOL   C20222710   2.733   6.568   2.750  0.2667 -0.1301  0.1671
   35MOL   C20322711   2.634   6.448   2.723  0.9516 -0.0511 -0.0163
   35MOL   C20422712   2.497   6.495   2.666 -0.3135 -0.0769  0.0720
   35MOL   C20522713   2.409   6.575   2.765 -0.2900 -0.3492  0.0007
   35MOL   C20622714   2.275   6.624   2.711  0.2655 -0.1834  0.3343
   35MOL   C20722715   2.207   6.737   2.791  0.0115 -0.6213 -0.0379
   35MOL   C20822716   2.065   6.755   2.749  0.0005  0.1290  0.3982
   35MOL   C20922717   2.047   6.800   2.605  0.3479  0.3153 -0.2167
   35MOL   C21022718   1.896   6.817   2.568 -0.2655 -0.3720 -0.3209
   35MOL   H21122719   3.057   6.472   2.778  0.3213 -2.4200  1.8055
   35MOL   H21222720   2.956   6.474   2.633  2.8999  0.3665 -0.3491
   35MOL   H21322721   2.828   6.482   2.921  1.0909 -1.8121 -0.5372
   35MOL   H21422722   2.761   6.608   2.653 -1.0701 -2.2646 -1.1405
   35MOL   H21522723   2.676   6.644   2.803  0.3168 -0.0305  0.0777
   35MOL   H21622724   2.623   6.383   2.809  0.4071  1.0707  0.7717
   35MOL   H21722725   2.687   6.386   2.650  2.2315  0.7078  0.2496
   35MOL   H21822726   2.432   6.414   2.632  0.5467 -0.4395 -0.7228
   35MOL   H21922727   2.511   6.553   2.575  0.2172  2.0776  1.4898
   35MOL   H22022728   2.397   6.517   2.857 -1.7883  0.2667  0.2200
   35MOL   H22122729   2.464   6.663   2.800  3.1865 -2.3058 -0.3147
   35MOL   H22222730   2.209   6.537   2.705 -0.4514  0.4492 -1.6273
   35MOL   H22322731   2.282   6.660   2.608 -1.3963  3.5794  1.4447
   35MOL   H22422732   2.268   6.823   2.765  0.6455 -0.7356  1.0582
   35MOL   H22522733   2.215   6.714   2.898 -1.7096 -0.1251  0.2176
   35MOL   H22622734   2.008   6.832   2.801 -0.5900 -0.8345  1.2053
   35MOL   H22722735   2.010   6.661   2.756  0.6789 -0.1860  1.6692
   35MOL   H22822736   2.109   6.888   2.590  0.5615  0.2051  0.0106
   35MOL   H22922737   2.078   6.722   2.536 -1.3333  0.0956 -0.7561
   35MOL   H23022738   1.837   6.731   2.599 -1.3682  0.3292 -0.4644
   35MOL   H23122739   1.880   6.836   2.462 -1.7248 -1.3535 -0.2842
   35MOL   H23222740   1.852   6.897   2.626  1.5820 -2.1400  3.7508
   35MOL   C23322741   2.944   6.658   2.866 -1.2999 -0.9699 -0.1671
   35MOL   C23422742   2.870   6.775   2.939  0.3307 -0.1574 -0.9284
   35MOL   C23522743   2.955   6.906   2.926 -0.4237 -0.2089  0.2713
   35MOL   C23622744   2.884   7.033   2.903 -0.6097 -0.4061 -0.2794
   35MOL   C23722745   2.968   7.152   2.878  0.0190  1.0150 -0.3310
   35MOL   C23822746   2.887   7.285   2.873 -0.8263 -0.2527  0.4375
   35MOL   C23922747   2.938   7.390   2.777 -0.8389  0.1647 -0.2898
   35MOL   C24022748   3.086   7.431   2.814 -0.4546 -1.2107 -0.3410
   35MOL   C24122749   3.097   7.485   2.955  0.1785  0.1993 -0.9993
   35MOL   C24222750   3.247   7.533   2.972  0.3465 -0.2208 -0.4863
   35MOL   C24322751   3.336   7.421   3.009  0.1880  0.0460  0.0107
   35MOL   H24422752   2.966   6.700   2.768 -0.2104  0.0393  0.5025
   35MOL   H24522753   3.037   6.643   2.920 -0.2139  1.5248 -1.2537
   35MOL   H24622754   2.776   6.793   2.889 -0.0379 -1.5276 -0.7460
   35MOL   H24722755   3.033   6.916   3.001  0.4893 -0.7658 -0.6049
   35MOL   H24822756   3.014   6.887   2.836  0.4807 -0.5921  0.9435
   35MOL   H24922757   2.820   7.049   2.990  1.7388  1.3639  1.1978
   35MOL   H25022758   2.825   7.009   2.815 -1.9660  0.4313  0.3819
   35MOL   H25122759   3.010   7.135   2.779  0.9080  0.9713  0.0482
   35MOL   H25222760   3.058   7.152   2.940 -0.2922  0.4043  0.1286
   35MOL   H25322761   2.867   7.322   2.974  0.2766  0.0663  0.5435
   35MOL   H25422762   2.787   7.260   2.838 -0.5946  0.2272 -0.5860
   35MOL   H25522763   2.947   7.341   2.680 -1.8990 -1.8100  0.5736
   35MOL   H25622764   2.870   7.474   2.763 -0.0659  0.7507 -0.5722
   35MOL   H25722765   3.151   7.344   2.803  1.0412  0.3073 -4.3185
   35MOL   H25822766   3.116   7.498   2.733  0.9040 -1.9161 -0.4407
   35MOL   H25922767   3.032   7.569   2.979  0.6317  0.3620 -0.3133
   35MOL   H26022768   3.076   7.410   3.031 -0.4558  0.2040 -1.1652
   35MOL   H26122769   3.257   7.605   3.054 -1.6916 -0.6913  0.2096
   35MOL   H26222770   3.266   7.582   2.876 -1.9572 -2.2466 -2.0441
   35MOL   H26322771   3.387   7.380   2.921 -0.0294 -0.6466  0.2072
   35MOL   H26422772   3.272   7.350   3.061  0.1754  0.4643  0.5601
   35MOL   H26522773   3.418   7.455   3.072 -0.0730 -1.3117  1.1063
   35MOL   C26622774   2.835   6.732   3.083 -0.5174  0.1992 -0.8272
   35MOL   C26722775   2.740   6.823   3.160 -0.2365 -0.3263  0.2243
   35MOL   C26822776   2.743   6.791   3.312 -0.2118  0.0024 -0.6427
   35MOL   C26922777   2.852   6.863   3.402 -0.0113 -0.7832  0.1739
   35MOL   C27022778   2.864   6.811   3.536  0.2960  0.1292  0.0867
   35MOL   C27122779   2.952   6.882   3.630 -0.1897 -0.5529  0.6752
   35MOL   C27222780   3.107   6.855   3.593  0.0299  0.1104 -0.0833
   35MOL   C27322781   3.206   6.920   3.690  0.1942 -0.1318 -0.9191
   35MOL   C27422782   3.348   6.920   3.635  0.5023 -0.7650  0.2979
   35MOL   C27522783   3.437   7.004   3.729  0.4658  0.5085 -0.4837
   35MOL   C27622784   3.579   7.010   3.676 -0.3200  0.1378 -0.4279
   35MOL   H27722785   2.916   6.710   3.152  1.3275 -0.5080 -3.1732
   35MOL   H27822786   2.777   6.642   3.061  0.9167 -1.4637  1.8905
   35MOL   H27922787   2.772   6.926   3.143 -1.1148 -0.1526 -0.4304
   35MOL   H28022788   2.645   6.814   3.354 -0.6797 -0.0929 -1.6567
   35MOL   H28122789   2.767   6.685   3.316 -0.6474 -0.0888 -0.4061
   35MOL   H28222790   2.819   6.967   3.413 -0.5800 -0.9298 -0.0940
   35MOL   H28322791   2.946   6.856   3.349 -0.4101  0.2722 -0.7107
   35MOL   H28422792   2.875   6.702   3.533  2.1300  0.2808  0.9418
   35MOL   H28522793   2.762   6.819   3.573  0.2072  3.9069 -0.8355
   35MOL   H28622794   2.920   6.866   3.732 -0.2111  1.5466  1.0254
   35MOL   H28722795   2.932   6.989   3.619 -0.3730 -0.7397 -0.9728
   35MOL   H28822796   3.119   6.747   3.596  0.2022  0.1063 -0.7006
   35MOL   H28922797   3.134   6.885   3.492 -0.0112  0.7650  0.0998
   35MOL   H29022798   3.187   6.870   3.785 -0.6284  2.3927  0.3025
   35MOL   H29122799   3.173   7.023   3.707  3.2153  1.2405 -2.7587
   35MOL   H29222800   3.387   6.819   3.629 -1.3547 -1.5565  1.0506
   35MOL   H29322801   3.352   6.949   3.530  1.7444 -1.1919  0.2314
   35MOL   H29422802   3.430   6.961   3.828 -0.1539  0.8081 -0.3919
   35MOL   H29522803   3.396   7.098   3.765  1.8200  0.4812  1.2097
   35MOL   H29622804   3.623   6.911   3.662 -0.1207  0.0863  0.5074
   35MOL   H29722805   3.648   7.069   3.737 -1.3588  2.3855 -1.3905
   35MOL   H29822806   3.575   7.067   3.584  1.0465 -0.8141 -1.1069
   35MOL   C29922807   2.598   6.814   3.106  0.3944 -0.5102 -0.5865
   35MOL   C30022808   2.500   6.923   3.143 -0.8301  0.4597 -0.5853
   35MOL   C30122809   2.353   6.858   3.162 -0.2370 -0.4233  0.1165
   35MOL   C30222810   2.319   6.835   3.308  0.4389  0.4848  0.0397
   35MOL   C30322811   2.280   6.960   3.381 -0.7083 -0.4528 -0.4679
   35MOL   C30422812   2.234   6.933   3.527 -0.6096  0.7749  0.4308
   35MOL   C30522813   2.095   6.869   3.544  0.0344 -0.2275 -0.0113
   35MOL   C30622814   2.059   6.865   3.697  0.1289 -0.6157  0.2798
   35MOL   C30722815   1.924   6.804   3.729  0.2376  0.1809 -0.6576
   35MOL   C30822816   1.875   6.854   3.868 -0.0307  0.2445  0.0008
   35MOL   C30922817   1.741   6.796   3.904 -0.8297  0.2963  0.3412
   35MOL   H31022818   2.549   6.724   3.142 -1.2122  0.5874  0.0088
   35MOL   H31122819   2.600   6.808   2.997 -0.3832 -0.1582 -0.6264
   35MOL   H31222820   2.526   6.966   3.240  1.8237  1.5232 -1.7419
   35MOL   H31322821   2.281   6.929   3.123  0.5176 -0.2465 -0.9736
   35MOL   H31422822   2.334   6.766   3.106 -2.7715 -0.3225  0.7664
   35MOL   H31522823   2.238   6.762   3.310 -0.9262  2.0055  1.5606
   35MOL   H31622824   2.399   6.777   3.356 -1.7902 -1.9404  0.9517
   35MOL   H31722825   2.371   7.019   3.395 -2.1099  1.2925  1.5885
   35MOL   H31822826   2.210   7.023   3.326  0.1059  0.1647 -0.8189
   35MOL   H31922827   2.219   7.033   3.569 -1.2561  1.1983 -0.7842
   35MOL   H32022828   2.310   6.882   3.586 -0.1645 -0.7063 -1.4029
   35MOL   H32122829   2.019   6.929   3.494 -0.5624 -0.3970  0.6819
   35MOL   H32222830   2.096   6.767   3.506  0.5222 -0.5689  0.8912
   35MOL   H32322831   2.062   6.964   3.741  0.6222 -1.6029  2.5125
   35MOL   H32422832   2.132   6.812   3.757  0.2932  0.4494  1.0245
   35MOL   H32522833   1.931   6.696   3.724  0.5359  0.0477  2.2524
   35MOL   H32622834   1.851   6.834   3.653 -0.2942  3.1286  0.9260
   35MOL   H32722835   1.862   6.962   3.870  1.2778  0.4910 -2.3635
   35MOL   H32822836   1.949   6.837   3.946 -0.7174  1.2194  0.8641
   35MOL   H32922837   1.717   6.819   4.008  0.9061 -0.2489  0.8736
   35MOL   H33022838   1.658   6.832   3.843 -1.0632  2.3470  1.8086
   35MOL   H33122839   1.748   6.688   3.898 -0.5551  0.3863 -1.1079
   35MOL   C33222840   2.517   7.028   3.035  0.0732 -0.1983  0.5240
   35MOL   C33322841   2.466   7.174   3.072 -0.2390  0.4549  0.0028
   35MOL   C33422842   2.417   7.263   2.958  0.5334 -0.0193 -0.1897
   35MOL   C33522843   2.313   7.218   2.851 -0.0795 -0.0513 -0.3947
   35MOL   C33622844   2.168   7.263   2.875 -0.0872  0.6174  0.3990
   35MOL   C33722845   2.073   7.200   2.769 -0.5807  0.5197 -0.3013
   35MOL   C33822846   1.932   7.254   2.777 -0.5519  0.1441 -0.9518
   35MOL   C33922847   1.828   7.189   2.685  0.1851  0.2880  0.0654
   35MOL   C34022848   1.686   7.247   2.694  0.6489  0.0440  0.4795
   35MOL   C34122849   1.662   7.380   2.627 -0.2224 -0.1530  0.2099
   35MOL   C34222850   1.517   7.421   2.633  0.4706  0.4036  0.1411
   35MOL   H34322851   2.625   7.029   3.023 -0.0996  1.4257 -0.9987
   35MOL   H34422852   2.475   7.006   2.937  2.4543 -0.0106 -0.5812
   35MOL   H34522853   2.377   7.163   3.134  0.5643 -0.4828  1.0007
   35MOL   H34622854   2.509   7.282   2.903  0.0504  2.0273 -0.3439
   35MOL   H34722855   2.387   7.361   2.996  0.6485  0.2839 -0.8682
   35MOL   H34822856   2.336   7.265   2.755  1.6349 -0.0204  0.0195
   35MOL   H34922857   2.323   7.109   2.845 -1.9948 -0.1555 -2.5386
   35MOL   H35022858   2.143   7.232   2.976  1.5108  0.5571  0.8011
   35MOL   H35122859   2.157   7.372   2.871 -2.5347  0.3758 -0.4357
   35MOL   H35222860   2.086   7.095   2.793  2.1175  0.5319 -1.5657
   35MOL   H35322861   2.126   7.208   2.675 -0.6957  0.2003 -0.3947
   35MOL   H35422862   1.932   7.362   2.763 -0.4429  0.3999  1.0151
   35MOL   H35522863   1.894   7.235   2.877  3.1132  0.6539  0.6204
   35MOL   H35622864   1.872   7.179   2.585 -0.3351 -0.2744 -0.1053
   35MOL   H35722865   1.817   7.084   2.709  1.1416 -0.3039 -1.9053
   35MOL   H35822866   1.671   7.249   2.802  0.2823 -0.2219  0.4348
   35MOL   H35922867   1.609   7.189   2.644  0.5158  0.0422  0.6875
   35MOL   H36022868   1.694   7.372   2.523 -1.1767  0.3700 -0.1316
   35MOL   H36122869   1.715   7.464   2.673  0.6032 -0.8468  0.5323
   35MOL   H36222870   1.490   7.436   2.737  2.5258 -1.1507  0.9317
   35MOL   H36322871   1.488   7.515   2.586 -0.5330  0.4381  0.8140
   35MOL   H36422872   1.446   7.345   2.600 -0.6650  0.9424  1.2831
   35MOL   C36522873   2.580   7.246   3.152 -0.3912  0.2872 -0.4827
   35MOL   C36622874   2.556   7.388   3.216  0.3686  0.3909 -0.1008
   35MOL   C36722875   2.479   7.393   3.342 -0.1749  0.4079 -0.1229
   35MOL   C36822876   2.514   7.287   3.446  0.7359 -0.0604 -0.6340
   35MOL   C36922877   2.438   7.294   3.580  0.7303 -0.2760  0.6926
   35MOL   C37022878   2.476   7.185   3.684  0.1788  0.3654  0.1101
   35MOL   C37122879   2.593   7.234   3.764 -0.1929 -0.2749 -0.5851
   35MOL   C37222880   2.658   7.117   3.849  0.2839  0.1489  0.3996
   35MOL   C37322881   2.784   7.156   3.933 -0.9092  0.4731  0.6226
   35MOL   C37422882   2.751   7.228   4.066 -0.3005  0.9302 -0.2124
   35MOL   C37522883   2.866   7.312   4.116 -0.2046  0.2177 -0.2061
   35MOL   H37622884   2.622   7.176   3.224  0.1492 -0.4724 -1.5350
   35MOL   H37722885   2.666   7.254   3.086  1.9712 -0.1001  2.4577
   35MOL   H37822886   2.506   7.453   3.144 -0.9325 -0.6461 -0.1428
   35MOL   H37922887   2.378   7.374   3.307 -0.7314 -0.6386  1.9703
   35MOL   H38022888   2.482   7.494   3.385 -0.7374  1.0524 -1.5689
   35MOL   H38122889   2.617   7.305   3.474  0.4930 -1.3802  1.1870
   35MOL   H38222890   2.509   7.183   3.412  1.4928 -1.1386  2.4207
   35MOL   H38322891   2.330   7.282   3.566  0.2698  1.2910  2.5750
   35MOL   H38422892   2.463   7.386   3.633 -1.6951  0.5543  0.4647
   35MOL   H38522893   2.503   7.092   3.635  0.8655 -0.2638  1.6734
   35MOL   H38622894   2.394   7.172   3.755 -2.8811 -2.6700 -3.7795
   35MOL   H38722895   2.672   7.289   3.714  1.6825  0.3404  2.8769
   35MOL   H38822896   2.554   7.299   3.842 -0.0536 -2.8049  1.6930
   35MOL   H38922897   2.688   7.026   3.798  0.9757 -1.4269  3.4621
   35MOL   H39022898   2.588   7.076   3.922 -0.2032  0.3480  0.0489
   35MOL   H39122899   2.847   7.071   3.960 -0.5253 -0.2150 -2.2155
   35MOL   H39222900   2.837   7.233   3.877 -1.4826 -0.4946 -1.2959
   35MOL   H39322901   2.662   7.290   4.052 -1.6038 -1.1443 -1.2166
   35MOL   H39422902   2.730   7.151   4.140  0.7301  1.7467  0.9569
   35MOL   H39522903   2.893   7.391   4.047  0.7675  1.3606  1.4457
   35MOL   H39622904   2.960   7.259   4.132 -0.5102 -0.9310 -2.0231
   35MOL   H39722905   2.838   7.363   4.208  1.0608 -2.6221  1.8422
   35MOL   C39822906   2.690   7.461   3.242  0.2676 -0.8112  0.7499
   35MOL   C39922907   2.693   7.607   3.296  0.5301 -0.7823  0.1428
   35MOL   C40022908   2.620   0.009   3.206  0.1655 -0.0751  0.0610
   35MOL   C40122909   2.646   7.694   3.054  0.1315  0.5477 -0.1324
   35MOL   C40222910   2.563   0.088   2.971 -0.0689  0.2248 -0.6025
   35MOL   C40322911   2.571   0.060   2.816 -0.6308 -0.4514 -0.1991
   35MOL   C40422912   2.492   0.155   2.734 -0.3754 -0.2177  0.3674
   35MOL   C40522913   2.488   0.108   2.590  0.2081 -0.5702 -0.0292
   35MOL   C40622914   2.437   0.222   2.496  0.1805  0.1111 -0.3062
   35MOL   C40722915   2.428   0.196   2.350 -0.6930  0.2259  0.0228
   35MOL   C40822916   2.316   0.109   2.319  0.1279 -0.3514 -0.0324
   35MOL   H40922917   2.750   7.467   3.151  0.4997  1.4208  1.0153
   35MOL   H41022918   2.744   7.398   3.313 -0.6623  0.1281  2.3115
   35MOL   H41122919   2.650   7.622   3.395  0.2891  0.4823 -0.1416
   35MOL   H41222920   2.638   0.110   3.241  0.0327 -0.6000  1.6591
   35MOL   H41322921   2.514   7.697   3.224  0.0303  2.7926  1.9779
   35MOL   H41422922   2.751   7.691   3.026 -0.1911 -0.2235 -1.3441
   35MOL   H41522923   2.601   7.599   3.024 -0.9635  1.1723 -0.5371
   35MOL   H41622924   2.461   0.079   3.009 -0.5744  2.5854 -1.3194
   35MOL   H41722925   2.600   0.190   2.983 -0.4984 -0.0483  4.1157
   35MOL   H41822926   2.557   7.656   2.802  1.3585 -0.8246  0.5164
   35MOL   H41922927   2.675   0.069   2.787 -0.8496  1.6760 -0.4265
   35MOL   H42022928   2.390   0.153   2.772 -1.1995 -0.5509 -1.7988
   35MOL   H42122929   2.526   0.257   2.749 -0.3501 -0.2003  0.1910
   35MOL   H42222930   2.431   0.015   2.584  0.5831 -0.7868 -0.2136
   35MOL   H42322931   2.590   0.080   2.562  0.6551 -1.9518  2.7779
   35MOL   H42422932   2.335   0.253   2.516 -0.8389 -3.0203 -0.3748
   35MOL   H42522933   2.490   0.317   2.508 -1.3756  0.7998  1.2817
   35MOL   H42622934   2.521   0.161   2.306 -0.6395  0.7097 -0.2488
   35MOL   H42722935   2.412   0.290   2.297  0.3199 -0.0191 -0.7418
   35MOL   H42822936   2.220   0.156   2.339  0.7963  0.8848  0.3841
   35MOL   H42922937   2.320   0.020   2.381  3.1155  1.7720  3.0383
   35MOL   H43022938   2.328   0.083   2.214 -0.3199  2.7636 -0.9072
   35MOL   C43122939   2.841   7.654   3.305 -0.7798 -0.4514 -0.0744
   35MOL   C43222940   2.893   0.028   3.432 -0.2662  0.1177 -0.2611
   35MOL   C43322941   3.028   0.104   3.411  0.0857 -0.3906 -0.4434
   35MOL   C43422942   3.143   0.029   3.340  0.3009  0.0627 -0.2562
   35MOL   C43522943   3.267   0.110   3.335  0.4192  0.2379  0.1705
   35MOL   C43622944   3.384   0.043   3.262 -0.3504  0.5389 -0.3653
   35MOL   C43722945   3.523   0.105   3.296 -0.0297 -0.1079 -0.4874
   35MOL   C43822946   3.643   0.015   3.266 -0.2296  0.6933 -0.4163
   35MOL   C43922947   3.764   0.037   3.357  0.2472 -0.0763 -0.8852
   35MOL   C44022948   3.877   7.643   3.334  0.1919 -0.3610 -0.2361
   35MOL   C44122949   3.947   7.636   3.200 -0.2003  1.0675 -0.6407
   35MOL   H44222950   2.884   0.005   3.221  1.7865  0.7022  1.8864
   35MOL   H44322951   2.899   7.562   3.293  1.4659  1.1427 -2.0880
   35MOL   H44422952   2.818   0.106   3.439  0.9050  1.3904 -1.5860
   35MOL   H44522953   2.994   0.189   3.353  0.4269 -0.9403 -1.4533
   35MOL   H44622954   3.067   0.131   3.510  0.5506 -1.2345 -0.3850
   35MOL   H44722955   3.117   0.014   3.235  0.2419 -0.5294 -0.1616
   35MOL   H44822956   3.162   7.631   3.377 -0.2563  0.7717  2.0878
   35MOL   H44922957   3.308   0.133   3.433 -1.1008 -0.6831  1.0261
   35MOL   H45022958   3.255   0.212   3.296  2.6998  1.1157  1.6564
   35MOL   H45122959   3.365   0.051   3.155  1.0101  0.2895 -0.6269
   35MOL   H45222960   3.379   7.639   3.284 -0.6960  0.4748 -0.7405
   35MOL   H45322961   3.527   0.137   3.400 -1.1542 -1.7537  0.0882
   35MOL   H45422962   3.531   0.197   3.238 -1.5097  0.4201  0.1074
   35MOL   H45522963   3.619   7.614   3.291  1.8688 -0.0018 -1.2462
   35MOL   H45622964   3.669   0.011   3.161 -0.5397 -0.4207 -0.4611
   35MOL   H45722965   3.732   0.024   3.460  1.4686 -2.6131 -0.8046
   35MOL   H45822966   3.790   0.142   3.342 -0.6283 -0.0637 -2.4821
   35MOL   H45922967   3.841   7.543   3.357  1.0168 -0.6311 -0.1269
   35MOL   H46022968   3.963   7.662   3.398 -0.3558 -0.9558  0.6933
   35MOL   H46122969   4.037   7.577   3.209 -0.9583  0.4049  3.1821
   35MOL   H46222970   3.885   7.596   3.119 -0.0635  0.4124 -0.4188
   35MOL   H46322971   3.978   0.033   3.172  2.2439  0.1990 -1.1586
   35MOL   C46422972   2.898   7.646   3.570 -0.3370 -0.5224 -0.3020
   35MOL   C46522973   2.872   0.026   3.699 -0.0512 -0.9691 -0.3179
   35MOL   C46622974   2.718   0.032   3.717 -0.5955  1.2461 -0.5951
   35MOL   C46722975   2.677   0.110   3.849 -0.1829 -0.7646 -0.5708
   35MOL   C46822976   2.532   0.083   3.893 -0.0462 -0.1551 -0.2874
   35MOL   C46922977   2.507   7.641   3.957  0.6050 -0.3173 -1.0432
   35MOL   C47022978   2.388   7.642   4.063 -0.2844  0.6357 -0.3253
   35MOL   C47122979   2.360   7.494   4.088 -0.3736 -0.0019  0.5131
   35MOL   C47222980   2.274   7.425   3.978 -0.8282  0.1848 -0.4639
   35MOL   C47322981   2.269   7.273   3.997 -0.0095 -0.9653  0.8782
   35MOL   C47422982   2.158   7.202   3.922 -0.0088 -0.1249  0.2911
   35MOL   H47522983   2.999   7.605   3.575  0.0674  0.3685 -0.9690
   35MOL   H47622984   2.834   7.558   3.564 -0.8487 -0.3392  2.1107
   35MOL   H47722985   2.909   0.127   3.683 -0.6684 -0.7735 -0.4994
   35MOL   H47822986   2.682   7.634   3.733  0.6926  1.1467  1.8472
   35MOL   H47922987   2.664   0.062   3.627 -0.2718 -2.6008 -2.2040
   35MOL   H48022988   2.741   0.089   3.934 -1.6589 -1.4889  0.3877
   35MOL   H48122989   2.694   0.217   3.833  0.7845 -0.6898  0.8517
   35MOL   H48222990   2.459   0.114   3.817  1.1827 -0.5043 -1.6347
   35MOL   H48322991   2.514   0.168   3.959  0.4926  0.9215 -1.5086
   35MOL   H48422992   2.481   7.569   3.880  1.8658 -0.4233 -1.3853
   35MOL   H48522993   2.597   7.602   4.004  0.3397  0.4593  0.1393
   35MOL   H48622994   2.417   0.002   4.147  1.1745  2.2938 -2.0160
   35MOL   H48722995   2.300   7.692   4.021 -0.0563 -1.8646 -4.0423
   35MOL   H48822996   2.447   7.431   4.105 -1.4027 -1.0722  1.8401
   35MOL   H48922997   2.298   7.494   4.177 -0.1126  1.2655  0.7115
   35MOL   H49022998   2.171   7.460   3.982 -0.9896 -0.3441  0.0271
   35MOL   H49122999   2.294   7.443   3.872 -0.5670  1.9287 -0.1415
   35MOL   H49223000   2.369   7.235   3.977 -1.0886 -3.4373 -0.1120
   35MOL   H49323001   2.251   7.251   4.102 -0.7314 -1.8312  0.5800
   35MOL   H49423002   2.167   7.096   3.947 -0.4922 -0.5163 -1.1492
   35MOL   H49523003   2.171   7.196   3.814  1.2537  1.3264  0.3537
   35MOL   H49623004   2.058   7.235   3.947  0.6791  1.2664  1.2625
   35MOL   C49723005   2.953   7.650   3.812  0.3741  0.0280  1.0327
   35MOL   C49823006   3.093   0.004   3.832 -0.3574 -0.0682  0.3294
   35MOL   C49923007   3.193   7.594   3.835 -0.0205  0.4117 -0.2874
   35MOL   C50023008   3.172   7.497   3.955 -0.0386 -0.3554  0.0846
   35MOL   C50123009   3.314   7.440   3.988  0.2074 -0.0919  0.0017
   35MOL   C50223010   3.307   7.354   4.114 -0.3537  0.5039  0.3695
   35MOL   C50323011   3.313   7.448   4.246  0.2899 -0.2453  0.5909
   35MOL   C50423012   3.266   7.363   4.362 -0.3514  0.5060  0.1032
   35MOL   C50523013   3.248   7.448   4.490  0.2744 -0.7002  0.3979
   35MOL   C50623014   3.229   7.356   4.617 -0.4900  0.5120 -0.6621
   35MOL   C50723015   3.091   7.284   4.614 -0.3129 -0.0668  0.3848
   35MOL   H50823016   2.903   7.654   3.909 -0.8498  0.4378  0.3911
   35MOL   H50923017   2.960   7.547   3.779 -1.4594  0.5614 -1.1660
   35MOL   H51023018   3.114   0.070   3.748 -1.9272  1.2399  0.9511
   35MOL   H51123019   3.292   7.639   3.849 -0.9006  1.6105  2.4114
   35MOL   H51223020   3.189   7.541   3.740  1.1288 -1.8173  0.8607
   35MOL   H51323021   3.108   7.411   3.933 -0.1824 -0.1910 -0.1427
   35MOL   H51423022   3.123   7.544   4.041  0.4659  0.5575 -0.1214
   35MOL   H51523023   3.346   7.375   3.907  0.7237  1.6669 -1.2260
   35MOL   H51623024   3.387   7.519   4.005  1.0569 -0.6111 -1.2061
   35MOL   H51723025   3.207   7.310   4.116 -0.1028 -0.0833  0.2039
   35MOL   H51823026   3.383   7.277   4.128 -0.4321  0.6373  1.5446
   35MOL   H51923027   3.414   7.484   4.266  1.2830 -1.3309 -2.2324
   35MOL   H52023028   3.245   7.533   4.241 -1.6504 -1.8087 -0.0789
   35MOL   H52123029   3.332   7.277   4.369 -0.1182  0.4891 -1.8797
   35MOL   H52223030   3.171   7.316   4.338 -1.8195  1.7845  3.2233
   35MOL   H52323031   3.169   7.523   4.486  2.3359  1.4847 -0.1894
   35MOL   H52423032   3.340   7.505   4.499 -0.1125  0.0959 -0.5539
   35MOL   H52523033   3.241   7.417   4.706 -2.7145 -1.2835  0.9421
   35MOL   H52623034   3.314   7.289   4.602 -0.1444  1.5738 -3.7056
   35MOL   H52723035   3.066   7.264   4.510  0.5004  0.2656  0.1262
   35MOL   H52823036   3.013   7.338   4.668 -0.4719 -0.5827  0.6762
   35MOL   H52923037   3.095   7.182   4.651  0.4465 -1.3645 -3.0674
   35MOL   C53023038   3.102   0.094   3.952 -0.9075 -0.2494  0.9074
   35MOL   C53123039   3.244   0.151   3.986 -0.9177  0.4668  0.4708
   35MOL   C53223040   3.251   0.229   4.126 -0.6040  0.6156 -0.1394
   35MOL   C53323041   3.211   0.146   4.245  0.4423  0.2611  0.2928
   35MOL   C53423042   3.240   0.219   4.375  0.3799 -0.4855  0.5281
   35MOL   C53523043   3.181   0.149   4.498 -0.8887 -0.2373 -0.0727
   35MOL   C53623044   3.036   0.116   4.498  0.0866  0.5120  0.7276
   35MOL   C53723045   2.983   0.070   4.631  0.3251 -0.1233 -0.5525
   35MOL   C53823046   2.828   0.053   4.629  0.7423 -0.1745  0.2740
   35MOL   C53923047   2.780   7.646   4.733  0.1725 -0.0039  0.6687
   35MOL   C54023048   2.626   7.634   4.735  0.7555  0.6477 -0.7747
   35MOL   H54123049   3.031   0.174   3.935  0.1622  0.9466  1.9127
   35MOL   H54223050   3.075   0.039   4.042  1.1683 -3.5166 -0.3862
   35MOL   H54323051   3.307   0.066   4.012  0.3641  1.6677  1.3512
   35MOL   H54423052   3.193   0.321   4.125 -1.9091 -0.2022 -1.8642
   35MOL   H54523053   3.349   0.275   4.142 -0.8370  0.8706  0.5857
   35MOL   H54623054   3.258   0.048   4.241  1.8021  0.9710 -2.6422
   35MOL   H54723055   3.105   0.119   4.241  0.2600  0.8470  1.0428
   35MOL   H54823056   3.207   0.323   4.376  1.0200 -0.2206 -2.1852
   35MOL   H54923057   3.348   0.222   4.385  0.2198  0.5097  2.0781
   35MOL   H55023058   3.204   0.221   4.576  3.7471 -0.2617 -1.2578
   35MOL   H55123059   3.236   0.057   4.518  0.4349  0.5453 -0.0599
   35MOL   H55223060   3.005   0.050   4.417  0.6201  2.0580 -0.7728
   35MOL   H55323061   2.992   0.208   4.459  1.3359 -0.3214 -2.8813
   35MOL   H55423062   3.012   0.143   4.707 -0.8173  0.6663 -0.8608
   35MOL   H55523063   3.028   7.680   4.665 -1.7738 -0.8453  0.3388
   35MOL   H55623064   2.803   0.021   4.528 -0.3339  1.9740 -0.1826
   35MOL   H55723065   2.782   0.149   4.655 -0.0443 -0.8847  1.5504
   35MOL   H55823066   2.836   7.664   4.825 -0.3579 -2.8571  1.5785
   35MOL   H55923067   2.813   7.553   4.687 -0.3249  1.3547 -2.5656
   35MOL   H56023068   2.574   0.012   4.786  1.5584  0.3516  0.5552
   35MOL   H56123069   2.585   7.620   4.635  0.1840 -0.1719 -0.4325
   35MOL   H56223070   2.591   7.547   4.791  0.2189  2.0888  1.1732
   35MOL   C56323071   3.304   0.233   3.877 -0.6575 -0.2106  0.9037
   35MOL   C56423072   3.454   0.252   3.882 -0.6606  0.1268  0.0674
   35MOL   C56523073   3.490   0.379   3.816 -0.2229 -0.0318  0.2167
   35MOL   C56623074   3.459   0.383   3.665  0.3123  0.3373 -0.0951
   35MOL   C56723075   3.502   0.515   3.614  0.2374 -0.0274 -0.3249
   35MOL   C56823076   3.471   0.528   3.466  0.0189  0.4115 -0.5787
   35MOL   C56923077   3.588   0.478   3.375  0.2729 -0.3028 -0.5833
   35MOL   C57023078   3.560   0.514   3.231 -0.0686 -1.1045 -0.3893
   35MOL   C57123079   3.657   0.447   3.135  0.0157 -0.2036 -0.3492
   35MOL   C57223080   3.610   0.445   2.989  0.3128 -0.0929  0.7655
   35MOL   C57323081   3.706   0.394   2.881 -0.3266 -0.7937 -0.5250
   35MOL   H57423082   3.258   0.332   3.881  0.5314  0.4014 -0.4680
   35MOL   H57523083   3.274   0.190   3.782  2.0872 -0.6000  0.1764
   35MOL   H57623084   3.478   0.273   3.986 -0.0449 -2.4699  0.4801
   35MOL   H57723085   3.594   0.402   3.836 -0.1376  1.2796 -1.6312
   35MOL   H57823086   3.428   0.458   3.859  0.2621  1.4490 -1.6915
   35MOL   H57923087   3.357   0.358   3.637  0.4399 -0.8074  0.4071
   35MOL   H58023088   3.523   0.323   3.600  0.0289 -0.7445  0.6161
   35MOL   H58123089   3.607   0.537   3.632  0.8876 -0.8152 -3.0100
   35MOL   H58223090   3.446   0.594   3.665 -0.2379 -1.1121  0.8610
   35MOL   H58323091   3.378   0.475   3.446 -0.0558  0.2386  0.2156
   35MOL   H58423092   3.458   0.634   3.441 -0.6216  0.7246  1.0036
   35MOL   H58523093   3.680   0.523   3.413 -0.1629 -0.4330  0.6554
   35MOL   H58623094   3.607   0.373   3.395  0.5595  0.1073  1.4864
   35MOL   H58723095   3.570   0.620   3.208  1.4316 -1.0968  0.2129
   35MOL   H58823096   3.458   0.491   3.202 -0.5380  0.3861  0.0343
   35MOL   H58923097   3.676   0.343   3.162  0.3078  0.5222  2.3786
   35MOL   H59023098   3.748   0.507   3.129  0.2994 -0.4356  1.5979
   35MOL   H59123099   3.596   0.549   2.960  0.6335 -0.3846 -0.4638
   35MOL   H59223100   3.517   0.388   2.996  0.5100 -0.3998  0.8932
   35MOL   H59323101   3.754   0.299   2.902  1.7286  0.0405 -1.2848
   35MOL   H59423102   3.662   0.393   2.782  0.5613 -0.3886 -0.9303
   35MOL   H59523103   3.797   0.455   2.881 -0.9828  0.1934 -0.6466
   35MOL   C59623104   3.528   0.122   3.824  0.1317  0.5029 -0.0163
   35MOL   C59723105   3.672   0.090   3.873  0.3622 -0.4655  0.1789
   35MOL   C59823106   3.739   7.685   3.778  0.2379 -0.2023  1.2360
   35MOL   C59923107   3.659   7.555   3.758 -0.2581  0.1316  0.9936
   35MOL   C60023108   3.590   7.529   3.616  0.3670 -0.2144 -0.0309
   35MOL   C60123109   3.499   7.407   3.619  0.2650  0.0929  0.7457
   35MOL   C60223110   3.392   7.412   3.498 -0.3625  0.0278  0.0867
   35MOL   C60323111   3.314   7.278   3.490  0.3105  0.2587  0.6094
   35MOL   C60423112   3.187   7.307   3.393 -0.5780  0.6311  0.0994
   35MOL   C60523113   3.104   7.187   3.360 -0.0831  0.2681  0.0298
   35MOL   C60623114   2.999   7.215   3.249 -0.1204  0.4488  0.5409
   35MOL   H60723115   3.459   0.041   3.848 -0.2372  0.8810  0.2005
   35MOL   H60823116   3.531   0.113   3.716  0.0621 -2.4681  0.1883
   35MOL   H60923117   3.723   0.185   3.860 -1.1335  0.3177 -0.0460
   35MOL   H61023118   3.840   7.660   3.810  1.4219  1.2368 -1.2012
   35MOL   H61123119   3.750   0.030   3.681 -0.3520  0.6130  1.5701
   35MOL   H61223120   3.584   7.552   3.837 -2.3399  1.9194 -0.8438
   35MOL   H61323121   3.734   7.479   3.776  3.2792  3.1291 -0.3817
   35MOL   H61423122   3.670   7.505   3.546  0.3484  0.5426 -0.3063
   35MOL   H61523123   3.547   7.620   3.575  3.6142  2.4863  2.2916
   35MOL   H61623124   3.561   7.318   3.607 -0.3244 -0.2587  0.2777
   35MOL   H61723125   3.438   7.400   3.709 -0.9479  2.8225  0.1838
   35MOL   H61823126   3.447   7.417   3.404 -0.9687  2.0996 -0.1924
   35MOL   H61923127   3.326   7.496   3.520 -0.4511 -0.6589  2.6306
   35MOL   H62023128   3.284   7.250   3.591 -0.1207 -0.4763  0.2870
   35MOL   H62123129   3.372   7.198   3.444  0.1961  1.0521 -0.9715
   35MOL   H62223130   3.124   7.380   3.444 -1.5281  0.3292 -0.6490
   35MOL   H62323131   3.229   7.347   3.301  1.3710  2.0318  1.5470
   35MOL   H62423132   3.053   7.131   3.438  1.7640 -0.7824  0.5254
   35MOL   H62523133   3.179   7.117   3.324  0.5394 -0.0520  1.9140
   35MOL   H62623134   2.932   7.129   3.238 -1.8439  1.8284  0.0142
   35MOL   H62723135   2.941   7.307   3.256  1.0638  1.2877 -0.5993
   35MOL   H62823136   3.047   7.231   3.152  0.5420  2.5845  1.1893
   35MOL   C62923137   3.669   0.042   4.027  0.2142  0.1006 -0.2670
   35MOL   C63023138   3.815   0.064   4.095  0.2166 -0.0594  0.2773
   35MOL   C63123139   3.832   0.060   4.244 -0.2663  0.0688 -0.1690
   35MOL   C63223140   3.968   0.106   4.293 -1.1229 -0.5271  0.1573
   35MOL   C63323141   4.004   0.084   4.435  0.0315 -0.1589 -0.3470
   35MOL   C63423142   3.989   0.195   4.542  0.0201 -0.1735 -0.3372
   35MOL   C63523143   4.061   0.166   4.677  0.5047 -0.0918 -0.3492
   35MOL   C63623144   4.047   0.277   4.783 -0.1161 -0.1525 -0.4229
   35MOL   C63723145   4.181   0.298   4.857  0.1949 -0.1229 -0.1512
   35MOL   C63823146   4.170   0.338   5.001 -0.0037  0.4419  0.5587
   35MOL   C63923147   4.129   0.489   5.002 -0.2008  0.5282 -0.6100
   35MOL   H64023148   3.604   0.102   4.091  0.2785  0.8828 -0.9201
   35MOL   H64123149   3.636   7.644   4.050 -2.1678  1.0241  0.5946
   35MOL   H64223150   3.885   7.694   4.055 -1.0909 -1.2048  0.0465
   35MOL   H64323151   3.748   0.113   4.289 -0.5325 -0.2090 -0.3348
   35MOL   H64423152   3.819   7.660   4.278  0.7725 -0.4994 -1.4908
   35MOL   H64523153   3.981   0.214   4.286 -1.1133 -0.4435  1.4809
   35MOL   H64623154   4.047   0.067   4.228  1.7430 -0.2081  3.2666
   35MOL   H64723155   4.111   0.064   4.439  0.1123  0.1218 -1.0065
   35MOL   H64823156   3.938   0.007   4.475 -0.4731 -0.0858 -1.0219
   35MOL   H64923157   3.881   0.201   4.557 -0.2539 -3.8570 -0.5461
   35MOL   H65023158   4.029   0.286   4.496 -1.6982  0.5359 -0.4701
   35MOL   H65123159   4.167   0.151   4.656  0.1515  0.9882 -3.1614
   35MOL   H65223160   4.029   0.072   4.722 -0.9423  0.7882  0.4962
   35MOL   H65323161   3.966   0.257   4.854 -0.5205  0.5833 -0.6788
   35MOL   H65423162   4.007   0.363   4.729 -3.0466 -1.3076 -0.1688
   35MOL   H65523163   4.249   0.365   4.803  0.6947 -0.6559 -0.1955
   35MOL   H65623164   4.228   0.199   4.865  1.3842  0.4433  0.0128
   35MOL   H65723165   4.264   0.334   5.055 -0.1380 -0.0447  0.7546
   35MOL   H65823166   4.102   0.280   5.064  0.5367  1.6289  2.2817
   35MOL   H65923167   4.053   0.516   4.929  0.2815  2.5285 -0.3964
   35MOL   H66023168   4.223   0.543   4.994  0.8424 -0.7627  2.2193
   35MOL   H66123169   4.094   0.514   5.102 -1.4629  2.5400 -1.5144
   35MOL   H66223170   3.858   0.161   4.068 -2.0472  0.7547 -0.4635
   36MOL     C123171   7.415   1.729   4.611 -0.2990 -0.3605 -0.2672
   36MOL     C223172   7.283   1.671   4.657  0.2921  0.2352  0.0434
   36MOL     C323173   7.182   1.674   4.542  0.3390 -0.9584 -0.3324
   36MOL     C423174   7.143   1.815   4.493 -0.0775 -0.5717  0.1173
   36MOL     C523175   7.034   1.801   4.377  0.1597  0.0810  0.0065
   36MOL     C623176   6.974   1.928   4.315 -0.4351  0.2535  0.4737
   36MOL     C723177   7.074   1.986   4.215  0.8221 -0.2772  0.2639
   36MOL     C823178   7.033   2.124   4.160 -0.0592 -0.3602  0.5263
   36MOL     C923179   7.149   2.192   4.087  0.7876 -0.7643  0.0973
   36MOL    C1023180   7.104   2.302   3.999  0.3819  0.2656  0.0655
   36MOL    C1123181   7.226   2.365   3.925  0.5352  0.3620  0.4125
   36MOL    H1223182   7.417   1.838   4.617  2.6272 -0.2815 -1.4535
   36MOL    H1323183   7.440   1.710   4.507  1.3053 -0.7276  0.1742
   36MOL    H1423184   7.248   1.740   4.733  2.0676  0.3932  0.7420
   36MOL    H1523185   7.092   1.623   4.576 -1.1832  1.0384 -1.2933
   36MOL    H1623186   7.217   1.604   4.466 -1.3029 -1.8903 -0.2387
   36MOL    H1723187   7.236   1.861   4.459  0.5609 -1.4456  0.6580
   36MOL    H1823188   7.097   1.872   4.574  0.8645  1.0219 -0.4420
   36MOL    H1923189   7.083   1.742   4.299  1.0963  0.4545  0.3072
   36MOL    H2023190   6.952   1.741   4.415  1.5324 -1.7885  0.0851
   36MOL    H2123191   6.950   1.995   4.397  0.0905  1.3506 -0.2639
   36MOL    H2223192   6.876   1.903   4.274 -1.2210  2.1347  1.1797
   36MOL    H2323193   7.171   1.991   4.263 -0.4136  0.7833  2.7542
   36MOL    H2423194   7.092   1.912   4.137  1.9744  0.3262 -0.0430
   36MOL    H2523195   6.983   2.181   4.239  1.2539  2.0484 -0.3414
   36MOL    H2623196   6.954   2.105   4.087  0.1489 -2.8155  0.8922
   36MOL    H2723197   7.207   2.121   4.028  0.5881 -0.9810  0.1613
   36MOL    H2823198   7.209   2.244   4.163 -1.2197  0.3413  0.9562
   36MOL    H2923199   7.051   2.377   4.058 -0.5069  0.0927 -0.5082
   36MOL    H3023200   7.023   2.258   3.940  1.7361 -1.7282 -0.3422
   36MOL    H3123201   7.310   2.375   3.993  1.6715  0.4016 -0.9655
   36MOL    H3223202   7.277   2.310   3.846  2.2137 -0.5891  2.1265
   36MOL    H3323203   7.195   2.464   3.893 -1.0174  0.8960  3.3738
   36MOL    H3423204   7.499   1.700   4.674  0.1075  0.8797 -0.2159
   36MOL    C3523205   7.304   1.536   4.723  0.4173 -0.2089 -0.2229
   36MOL    C3623206   7.187   1.485   4.813  0.0108  0.5664 -0.5766
   36MOL    C3723207   7.106   1.587   4.898 -0.0792  0.5089 -0.0377
   36MOL    C3823208   7.191   1.674   4.995 -0.0183 -0.3504  0.2622
   36MOL    C3923209   7.266   1.586   5.097 -0.6639 -0.2401 -0.1220
   36MOL    C4023210   7.167   1.522   5.197 -0.3679 -0.1599  0.1129
   36MOL    C4123211   7.230   1.429   5.302 -0.5669 -0.1852 -0.0830
   36MOL    C4223212   7.131   1.378   5.410 -0.3356  0.0758  1.1036
   36MOL    C4323213   7.195   1.290   5.519  0.2044 -0.3293 -0.4313
   36MOL    C4423214   7.101   1.212   5.617  0.4123 -0.3300 -0.2627
   36MOL    C4523215   7.184   1.141   5.722 -0.2061  0.1967  0.3346
   36MOL    H4623216   7.395   1.534   4.784  1.0633 -0.0501 -1.1627
   36MOL    H4723217   7.331   1.464   4.646  0.8903  0.4059 -0.6494
   36MOL    H4823218   7.240   1.418   4.881  0.8968  0.4419 -1.3752
   36MOL    H4923219   7.052   1.648   4.826  0.4473  0.0510 -0.8342
   36MOL    H5023220   7.028   1.529   4.949  0.6483  0.1994  0.7381
   36MOL    H5123221   7.134   1.746   5.053 -0.3295 -0.5183  0.1638
   36MOL    H5223222   7.262   1.735   4.938 -0.6567  0.0723 -0.0814
   36MOL    H5323223   7.331   1.655   5.152 -0.6107 -1.4277  1.3432
   36MOL    H5423224   7.327   1.506   5.054  0.0988  0.9066 -1.2169
   36MOL    H5523225   7.100   1.456   5.142 -0.0963  0.8367 -1.4476
   36MOL    H5623226   7.096   1.598   5.230  0.4910  1.2464 -1.1974
   36MOL    H5723227   7.270   1.340   5.254  1.4746  0.9488 -0.5493
   36MOL    H5823228   7.311   1.487   5.346  0.6480 -1.2865 -0.8317
   36MOL    H5923229   7.057   1.315   5.360 -0.3007 -0.2447  1.4529
   36MOL    H6023230   7.070   1.456   5.456 -2.2379 -0.7775  0.1253
   36MOL    H6123231   7.266   1.352   5.575 -0.5459 -0.7610  1.0293
   36MOL    H6223232   7.254   1.216   5.465  1.7772  1.6375 -1.4737
   36MOL    H6323233   7.036   1.278   5.675 -0.1229  0.7704 -2.0835
   36MOL    H6423234   7.037   1.138   5.569  0.7389 -1.4085  0.9522
   36MOL    H6523235   7.259   1.205   5.769 -0.3507 -0.0041  0.8378
   36MOL    H6623236   7.132   1.095   5.806  2.2098 -2.4628  0.4852
   36MOL    H6723237   7.234   1.056   5.674 -1.0966  0.3027 -0.8018
   36MOL    C6823238   7.086   1.399   4.730  0.4147  0.6060  0.3270
   36MOL    C6923239   7.048   1.264   4.797 -1.0782 -0.8504 -0.2576
   36MOL    C7023240   6.930   1.199   4.711  0.0600  0.0589  0.0965
   36MOL    C7123241   6.824   1.132   4.799 -0.2247 -0.3907  0.3882
   36MOL    C7223242   6.722   1.044   4.728  0.2606 -0.1278  0.1387
   36MOL    C7323243   6.795   0.928   4.655 -0.1612  0.7710  0.4499
   36MOL    C7423244   6.687   0.849   4.579  0.6397  0.3661  0.4914
   36MOL    C7523245   6.727   0.714   4.524 -0.0963 -0.0924  0.3425
   36MOL    C7623246   6.633   0.641   4.427 -0.2510 -0.7130 -0.2821
   36MOL    C7723247   6.519   0.575   4.504  0.6308 -0.2263 -0.7721
   36MOL    C7823248   6.439   0.478   4.415  0.7777 -0.0654 -0.3556
   36MOL    H7923249   7.138   1.380   4.635  1.6237 -1.5122  1.3856
   36MOL    H8023250   7.000   1.459   4.702  0.4028  0.0454 -0.8896
   36MOL    H8123251   7.004   1.279   4.895 -0.5414  1.3307 -0.3276
   36MOL    H8223252   6.967   1.140   4.628 -0.5430 -0.8227  0.4435
   36MOL    H8323253   6.882   1.284   4.663 -1.8735 -0.6270  0.7534
   36MOL    H8423254   6.864   1.075   4.883 -1.1895  0.4574  1.4447
   36MOL    H8523255   6.766   1.205   4.856  2.0384  1.5417  0.2829
   36MOL    H8623256   6.661   1.109   4.666  0.5708 -1.6047 -1.7695
   36MOL    H8723257   6.662   1.009   4.811  0.4513  0.9794  0.7548
   36MOL    H8823258   6.870   0.960   4.584  0.1122  0.3960  0.5699
   36MOL    H8923259   6.848   0.865   4.727 -0.3160 -0.4575 -0.5026
   36MOL    H9023260   6.668   0.927   4.505 -0.0530 -0.3669 -0.1075
   36MOL    H9123261   6.600   0.838   4.642  0.4969 -2.1187 -0.1092
   36MOL    H9223262   6.825   0.722   4.477 -0.4704  1.9195 -0.0973
   36MOL    H9323263   6.747   0.647   4.608 -0.8833  0.4859  1.0011
   36MOL    H9423264   6.585   0.713   4.361 -2.2465 -1.7252  0.0436
   36MOL    H9523265   6.695   0.571   4.372  2.0013  1.4909 -0.6667
   36MOL    H9623266   6.545   0.530   4.600  1.9266  0.2752 -0.8886
   36MOL    H9723267   6.452   0.647   4.550  1.2299 -0.5249  0.6112
   36MOL    H9823268   6.403   0.534   4.329 -2.0106  0.0813  0.8573
   36MOL    H9923269   6.344   0.442   4.454  1.0072  0.1265  0.3884
   36MOL   H10023270   6.512   0.405   4.382 -0.7236 -0.0519 -3.9245
   36MOL   C10123271   7.173   1.170   4.801 -0.2152  0.3474  0.6645
   36MOL   C10223272   7.170   1.043   4.884 -0.4119  0.4376  0.7401
   36MOL   C10323273   7.137   1.081   5.032  0.0775  0.1323 -0.4062
   36MOL   C10423274   7.111   0.969   5.129  0.4729 -0.4557 -0.9393
   36MOL   C10523275   7.066   1.008   5.270  0.3411  0.7180 -0.5049
   36MOL   C10623276   7.016   0.885   5.352  0.4042 -0.8442  0.2949
   36MOL   C10723277   7.133   0.790   5.385 -0.7723  0.4489  0.8248
   36MOL   C10823278   7.093   0.670   5.469  0.0301 -0.0007 -0.1527
   36MOL   C10923279   7.062   0.701   5.614 -0.2156 -0.4437  0.7510
   36MOL   C11023280   7.126   0.603   5.721  0.2270  0.3056  0.0280
   36MOL   C11123281   7.155   0.675   5.854  1.0955 -0.2018  0.0739
   36MOL   H11223282   7.204   1.146   4.699  0.6594 -0.8366  1.1986
   36MOL   H11323283   7.264   1.222   4.830  2.1580 -2.7501 -0.9038
   36MOL   H11423284   7.086   0.981   4.856 -0.3348  0.4601  0.4573
   36MOL   H11523285   7.212   1.152   5.066 -0.3174  0.0149  0.7483
   36MOL   H11623286   7.043   1.136   5.028  0.4746  0.9603  1.2921
   36MOL   H11723287   7.028   0.911   5.089  0.8923 -0.5298 -1.7138
   36MOL   H11823288   7.206   0.916   5.123  0.0149 -1.2294 -1.4851
   36MOL   H11923289   7.134   1.062   5.336  0.7544 -3.4071  2.6562
   36MOL   H12023290   6.973   1.065   5.269 -0.0463  0.0985 -1.9405
   36MOL   H12123291   6.978   0.911   5.451  0.5085  0.0022  0.1177
   36MOL   H12223292   6.936   0.831   5.301 -0.4084  1.1905 -0.6418
   36MOL   H12323293   7.230   0.827   5.420 -0.1808 -0.0125 -0.2809
   36MOL   H12423294   7.157   0.739   5.292  1.4082  0.3898  1.3757
   36MOL   H12523295   7.007   0.619   5.425  1.6272 -0.5045 -2.7707
   36MOL   H12623296   7.172   0.596   5.463 -0.6199 -0.5287 -2.3871
   36MOL   H12723297   7.089   0.801   5.647  0.7836 -0.5680  0.3336
   36MOL   H12823298   6.954   0.691   5.625  0.1150 -1.7599  3.0162
   36MOL   H12923299   7.219   0.559   5.685  0.4762 -0.1432  1.2029
   36MOL   H13023300   7.063   0.514   5.728  1.7021 -0.7974 -0.5968
   36MOL   H13123301   7.061   0.708   5.898  1.1002 -1.3092  0.9357
   36MOL   H13223302   7.218   0.618   5.922  1.7932 -0.6120 -0.9064
   36MOL   H13323303   7.206   0.770   5.835  3.2829 -1.5631 -1.0900
   36MOL   C13423304   7.308   0.974   4.882  0.3128  0.4540  0.8960
   36MOL   C13523305   7.360   0.927   4.742  0.2877  0.4888 -0.1108
   36MOL   C13623306   7.250   0.843   4.672  0.1528  0.1790  0.1368
   36MOL   C13723307   7.287   0.792   4.530 -0.9548  0.3107  0.1130
   36MOL   C13823308   7.167   0.721   4.477 -0.2196 -0.1647  0.5259
   36MOL   C13923309   7.177   0.701   4.327  0.2086  0.6423  0.8963
   36MOL   C14023310   7.045   0.629   4.269 -0.9421 -0.4801 -0.6150
   36MOL   C14123311   7.037   0.646   4.118 -0.2290 -0.3602  0.3649
   36MOL   C14223312   6.969   0.769   4.059 -0.7845  0.3304 -0.6441
   36MOL   C14323313   6.990   0.796   3.902 -0.0920 -0.6022 -0.3084
   36MOL   C14423314   6.956   0.945   3.858  0.1092  0.3958  0.1752
   36MOL   H14523315   7.387   1.041   4.917  1.8546 -1.2531  0.7661
   36MOL   H14623316   7.309   0.882   4.939  0.7393  0.5411  1.0299
   36MOL   H14723317   7.374   1.011   4.674 -0.2841  0.1488 -0.6547
   36MOL   H14823318   7.160   0.903   4.657  0.4431  0.0516 -2.2622
   36MOL   H14923319   7.223   0.763   4.741  1.6636  0.7058  1.3631
   36MOL   H15023320   7.315   0.869   4.458  1.0815  1.8599  2.4846
   36MOL   H15123321   7.360   0.711   4.531 -1.1034  0.1799  1.3374
   36MOL   H15223322   7.163   0.622   4.523 -0.7114 -1.8799 -3.0457
   36MOL   H15323323   7.078   0.772   4.512  0.4697 -0.5898  2.9713
   36MOL   H15423324   7.185   0.801   4.286 -0.3518  0.3445  0.0429
   36MOL   H15523325   7.265   0.642   4.300  1.1584  2.4004  0.0471
   36MOL   H15623326   7.031   0.525   4.297 -1.7293  0.3664  2.3673
   36MOL   H15723327   6.964   0.682   4.320 -0.0966  1.0983 -0.8898
   36MOL   H15823328   7.134   0.634   4.069 -0.1026  0.1419  0.4889
   36MOL   H15923329   6.972   0.570   4.075 -0.6103 -0.9038  1.8636
   36MOL   H16023330   6.864   0.748   4.082 -0.8424  0.4581 -0.7972
   36MOL   H16123331   6.995   0.853   4.123 -0.4035 -1.4762  1.6521
   36MOL   H16223332   7.095   0.776   3.878 -0.3550 -0.7744 -1.3300
   36MOL   H16323333   6.934   0.720   3.847 -0.1182 -1.2055  0.5528
   36MOL   H16423334   6.850   0.970   3.855  0.3831  1.6796  1.1078
   36MOL   H16523335   6.984   0.959   3.754 -1.1208  1.6823  0.0144
   36MOL   H16623336   6.997   1.028   3.915  0.0452 -0.3633  1.3380
   36MOL   C16723337   7.500   0.852   4.746  0.3974  0.4144  0.0299
   36MOL   C16823338   7.620   0.926   4.799 -0.2815 -0.2586  0.0980
   36MOL   C16923339   7.658   1.027   4.680  0.3243  0.6602 -0.1898
   36MOL   C17023340   0.023   1.161   4.724 -0.2963  0.7832  1.0269
   36MOL   C17123341   7.638   1.264   4.803 -0.2258 -0.5191  0.1856
   36MOL   C17223342   0.020   1.378   4.862  0.3272  0.3540 -0.0896
   36MOL   C17323343   7.652   1.504   4.910  0.5876  0.1646  0.6957
   36MOL   C17423344   0.055   1.604   4.955 -0.2714  0.6720 -0.1815
   36MOL   C17523345   7.698   1.737   5.012  0.2389  0.2199 -0.2075
   36MOL   C17623346   7.596   1.814   4.924 -0.4367  0.4603 -0.2353
   36MOL   C17723347   7.531   1.935   4.990 -0.3072  0.0632  0.4402
   36MOL   H17823348   7.473   0.767   4.809  0.1413  2.1446  2.3394
   36MOL   H17923349   7.522   0.810   4.648 -0.8215 -2.1071  0.8092
   36MOL   H18023350   7.595   0.998   4.877  0.1224 -0.8478  0.7776
   36MOL   H18123351   7.570   1.059   4.624  0.0862  0.5207  0.1006
   36MOL   H18223352   0.016   0.982   4.602 -1.7168 -0.6580 -1.0969
   36MOL   H18323353   0.109   1.136   4.786  0.8204  0.6286 -0.5452
   36MOL   H18423354   0.062   1.211   4.635  1.2049 -0.6366  0.8645
   36MOL   H18523355   7.600   1.208   4.889  1.0565 -0.4693  0.7944
   36MOL   H18623356   7.552   1.297   4.745  0.3880 -1.5773 -1.3488
   36MOL   H18723357   0.104   1.352   4.926  2.0587 -0.7780 -2.7319
   36MOL   H18823358   0.073   1.407   4.771 -2.9932  1.0463 -1.8808
   36MOL   H18923359   7.584   1.483   4.993 -0.3504 -1.0571 -0.3594
   36MOL   H19023360   7.589   1.546   4.831 -1.3630 -2.7891  0.5835
   36MOL   H19123361   0.135   1.567   5.020  0.6233  1.0447 -1.0604
   36MOL   H19223362   0.120   1.635   4.874 -0.9631 -2.2654 -1.9414
   36MOL   H19323363   0.080   1.796   5.046  0.8358 -0.6658 -0.1506
   36MOL   H19423364   7.645   1.695   5.098 -0.8417  0.8938 -0.5318
   36MOL   H19523365   7.517   1.740   4.913  0.6286 -0.5936 -0.9741
   36MOL   H19623366   7.646   1.829   4.828  0.7372 -0.2299  0.2549
   36MOL   H19723367   7.615   2.002   5.007  0.9664 -0.6918 -2.6449
   36MOL   H19823368   7.490   1.917   5.089  2.1488  2.7129  2.0224
   36MOL   H19923369   7.465   2.003   4.936 -0.9601  1.3486  2.7863
   36MOL   C20023370   0.034   0.840   4.835  0.7469 -0.2584  0.4018
   36MOL   C20123371   0.017   0.749   4.961 -0.1203 -0.0330 -0.2769
   36MOL   C20223372   7.692   0.842   5.086  0.2699  0.2624 -0.3218
   36MOL   C20323373   7.625   0.774   5.201  0.2671 -0.5099  0.5909
   36MOL   C20423374   7.560   0.861   5.306 -0.1019 -0.0392  0.7490
   36MOL   C20523375   7.526   0.785   5.435 -0.2852 -0.6957 -0.0313
   36MOL   C20623376   7.513   0.879   5.546  0.1338 -0.5933 -0.0509
   36MOL   C20723377   7.518   0.817   5.684 -0.3829 -0.3995 -0.0277
   36MOL   C20823378   7.510   0.924   5.796  0.1935  0.0112  0.2112
   36MOL   C20923379   7.507   0.865   5.931 -0.3372  0.1318 -1.1368
   36MOL   C21023380   7.478   0.974   6.031 -0.2100 -0.1780 -0.4084
   36MOL   H21123381   0.063   0.786   4.745 -1.3046 -0.3347 -0.2397
   36MOL   H21223382   0.123   0.904   4.844 -0.2949  1.2408  0.2138
   36MOL   H21323383   7.623   0.700   4.957  0.5015 -1.2734 -0.1183
   36MOL   H21423384   7.631   0.925   5.053  0.0745  0.2347 -0.0317
   36MOL   H21523385   0.077   0.896   5.122  1.5946 -0.9394 -1.6677
   36MOL   H21623386   7.701   0.724   5.261 -0.1642 -1.4357  0.3866
   36MOL   H21723387   7.558   0.695   5.167  3.5604 -3.0441 -0.2840
   36MOL   H21823388   7.468   0.904   5.267 -0.2163 -1.2817 -0.3842
   36MOL   H21923389   7.630   0.941   5.329 -2.7177  2.2559  0.9669
   36MOL   H22023390   7.440   0.722   5.411 -0.3702 -0.9448  0.8814
   36MOL   H22123391   7.616   0.725   5.451  0.4419  0.6633  1.1051
   36MOL   H22223392   7.422   0.939   5.543  0.6341  0.2612  1.2349
   36MOL   H22323393   7.597   0.948   5.542 -0.7880  0.4996 -0.6538
   36MOL   H22423394   7.611   0.760   5.687 -0.5142 -0.5877  0.5356
   36MOL   H22523395   7.434   0.751   5.709 -0.6538 -0.1724 -0.3441
   36MOL   H22623396   7.424   0.991   5.785  2.3676  3.0046  0.6386
   36MOL   H22723397   7.599   0.987   5.789  0.7240 -0.7076  0.4433
   36MOL   H22823398   7.426   0.792   5.943 -0.8470  0.8251 -0.2231
   36MOL   H22923399   7.598   0.808   5.949  0.4077  1.3993 -0.8211
   36MOL   H23023400   7.391   1.036   6.008 -0.6186 -0.5906  0.0256
   36MOL   H23123401   7.557   1.047   6.051  0.4186 -0.5557 -1.4881
   36MOL   H23223402   7.459   0.932   6.130  1.5079  0.6926  0.3158
   36MOL   C23323403   0.137   0.643   4.981  1.3540  0.0713  1.0507
   36MOL   C23423404   0.147   0.535   4.870  0.1699  0.3364 -0.0838
   36MOL   C23523405   0.013   0.459   4.850  0.1043 -0.0130 -0.7020
   36MOL   C23623406   0.013   0.350   4.743  0.2356 -0.5247  0.4882
   36MOL   C23723407   7.573   0.324   4.687 -0.3727 -0.4886  0.1959
   36MOL   C23823408   7.558   0.224   4.574  0.6820  1.0440 -0.0908
   36MOL   C23923409   7.420   0.198   4.528  0.5398 -0.5813 -0.5392
   36MOL   C24023410   7.409   0.117   4.400 -0.1118  0.6114  0.4613
   36MOL   C24123411   7.272   0.134   4.330 -0.1995  0.7683 -0.4197
   36MOL   C24223412   7.240   0.049   4.209  0.8844  0.3553 -0.1053
   36MOL   C24323413   7.246   7.601   4.233 -1.0879 -0.5557 -0.7556
   36MOL   H24423414   0.107   0.592   5.072 -3.8146  1.3595  0.2293
   36MOL   H24523415   0.230   0.695   5.003  2.8174 -2.1978  0.3581
   36MOL   H24623416   0.160   0.586   4.774 -2.3811 -0.6855 -1.0205
   36MOL   H24723417   7.678   0.416   4.942  0.1555  0.3192 -0.5259
   36MOL   H24823418   7.646   0.536   4.817  0.7743 -0.4662 -3.2989
   36MOL   H24923419   0.057   0.259   4.785  1.2071 -0.6305 -0.7261
   36MOL   H25023420   0.075   0.376   4.657 -0.0454 -1.5176 -0.0151
   36MOL   H25123421   7.545   0.426   4.661 -0.4233 -1.3606 -3.4029
   36MOL   H25223422   7.510   0.291   4.770 -0.8088  0.0518  0.0895
   36MOL   H25323423   7.627   0.140   4.579 -0.6829 -0.0779  0.3410
   36MOL   H25423424   7.600   0.277   4.488 -1.4025  3.0439  0.0805
   36MOL   H25523425   7.376   0.151   4.616  0.6251  0.4054  0.0321
   36MOL   H25623426   7.365   0.290   4.510  0.7222 -0.8278 -2.4363
   36MOL   H25723427   7.486   0.143   4.327 -0.4237  1.0592  0.2904
   36MOL   H25823428   7.434   0.015   4.428  1.8379  1.2395  1.1003
   36MOL   H25923429   7.198   0.127   4.409  1.4548 -3.6781  0.9050
   36MOL   H26023430   7.270   0.235   4.290  0.3726  0.4564 -1.2672
   36MOL   H26123431   7.302   0.080   4.125 -0.5461 -0.8701 -1.6371
   36MOL   H26223432   7.140   0.068   4.172  0.3036 -1.5990  0.3828
   36MOL   H26323433   7.177   7.564   4.309 -1.6153  1.0606 -0.4191
   36MOL   H26423434   7.352   7.582   4.251 -1.0997 -0.5681 -0.7004
   36MOL   H26523435   7.239   7.544   4.141 -0.9773  0.0827 -1.1591
   36MOL   C26623436   0.267   0.445   4.892  0.0202  0.4452  0.4822
   36MOL   C26723437   0.412   0.508   4.870  0.5550 -0.5592 -0.1240
   36MOL   C26823438   0.429   0.527   4.713 -0.7901 -0.2835  0.0346
   36MOL   C26923439   0.539   0.620   4.682 -0.0292 -0.1743  0.5036
   36MOL   C27023440   0.533   0.680   4.542  0.2790 -0.2916 -0.4328
   36MOL   C27123441   0.639   0.788   4.527  0.0765  0.3993  0.4030
   36MOL   C27223442   0.604   0.858   4.393  0.2472 -0.2042 -1.0270
   36MOL   C27323443   0.704   0.961   4.360  0.0002 -0.1058  0.8109
   36MOL   C27423444   0.667   1.051   4.245 -0.6986 -0.4473  0.0898
   36MOL   C27523445   0.756   1.173   4.233 -0.2055  0.7967 -0.6520
   36MOL   C27623446   0.694   1.283   4.149 -0.4817 -0.2618 -0.4957
   36MOL   H27723447   0.260   0.359   4.825 -1.5067  1.1877 -0.3380
   36MOL   H27823448   0.263   0.403   4.992 -1.4857  2.1952  1.1911
   36MOL   H27923449   0.411   0.606   4.916 -2.0239 -1.1026  1.0982
   36MOL   H28023450   0.444   0.428   4.670  0.7316  0.8250 -2.0718
   36MOL   H28123451   0.335   0.566   4.674 -0.7727 -1.8201 -1.6038
   36MOL   H28223452   0.634   0.568   4.696 -0.2747 -0.4514  1.1834
   36MOL   H28323453   0.557   0.689   4.764 -0.1464  1.2000 -0.6229
   36MOL   H28423454   0.433   0.720   4.527 -0.5330 -1.4867  1.6698
   36MOL   H28523455   0.554   0.605   4.465 -1.5228  0.5558 -1.8006
   36MOL   H28623456   0.737   0.740   4.521 -0.6200 -1.0514  0.5204
   36MOL   H28723457   0.638   0.866   4.602 -0.4254 -0.3231  1.1528
   36MOL   H28823458   0.597   0.809   4.296 -0.4467 -1.1566 -0.4895
   36MOL   H28923459   0.504   0.901   4.397 -0.2433 -1.4424  0.0610
   36MOL   H29023460   0.804   0.921   4.351  0.6641  1.7089 -0.0098
   36MOL   H29123461   0.706   1.027   4.447 -0.6707 -3.4025  3.4516
   36MOL   H29223462   0.662   1.000   4.149 -1.1316 -0.9533  0.3828
   36MOL   H29323463   0.564   1.081   4.260 -0.8778  0.1657 -2.1881
   36MOL   H29423464   0.857   1.145   4.202  0.6803  0.8898  1.9955
   36MOL   H29523465   0.764   1.209   4.336 -0.7519  1.4908 -0.8556
   36MOL   H29623466   0.715   1.267   4.044  0.2740 -1.0761 -0.2329
   36MOL   H29723467   0.750   1.368   4.188  1.4597 -2.6325  2.1673
   36MOL   H29823468   0.588   1.299   4.165 -0.5676  0.9078 -2.1272
   36MOL   C29923469   0.526   0.425   4.924 -0.4230  0.0690 -0.0896
   36MOL   C30023470   0.551   0.439   5.072  0.3132  0.1806 -0.2647
   36MOL   C30123471   0.609   0.576   5.100 -0.3259 -0.6867 -0.0623
   36MOL   C30223472   0.759   0.591   5.062  0.6739  0.0545 -0.1440
   36MOL   C30323473   0.813   0.737   5.082  0.1383 -0.0553 -0.1165
   36MOL   C30423474   0.949   0.764   5.004  0.4607 -0.2911  0.0697
   36MOL   C30523475   0.994   0.906   4.998  0.0584  0.2355  0.1275
   36MOL   C30623476   0.906   0.999   4.918 -0.2389  0.5374 -0.0103
   36MOL   C30723477   0.955   1.141   4.928  0.5099 -0.1139  0.5023
   36MOL   C30823478   0.880   1.244   4.843 -0.4300  0.2074  0.3205
   36MOL   C30923479   0.932   1.387   4.871  0.2761 -0.4174 -0.7261
   36MOL   H31023480   0.618   0.446   4.870  0.6697 -2.6029  0.6770
   36MOL   H31123481   0.493   0.328   4.889  0.0002  0.0921 -0.5635
   36MOL   H31223482   0.458   0.438   5.129  2.1751 -0.1423  2.8835
   36MOL   H31323483   0.536   0.650   5.066 -0.3627 -0.7532 -0.1279
   36MOL   H31423484   0.610   0.600   5.206  1.4477  0.3175 -0.2861
   36MOL   H31523485   0.822   0.531   5.127 -0.2222  1.0550  1.6948
   36MOL   H31623486   0.774   0.568   4.957 -0.9165  0.8400 -0.5555
   36MOL   H31723487   0.743   0.802   5.029 -2.8968  0.2434  3.9995
   36MOL   H31823488   0.825   0.757   5.189 -2.9865  0.1327  0.2328
   36MOL   H31923489   0.937   0.737   4.899  0.6791 -0.5195  0.1021
   36MOL   H32023490   1.030   0.705   5.047 -0.0197 -1.4348 -0.5462
   36MOL   H32123491   1.022   0.945   5.096 -2.1698 -0.3782  1.0410
   36MOL   H32223492   1.085   0.901   4.939  0.8894 -0.8899  1.4879
   36MOL   H32323493   0.801   1.006   4.948 -0.2925  3.4778 -0.7574
   36MOL   H32423494   0.914   0.965   4.814  2.9992 -1.2359  0.7539
   36MOL   H32523495   1.060   1.137   4.900  0.3058 -1.8445 -0.0613
   36MOL   H32623496   0.956   1.181   5.030  2.3814 -1.1163  0.9109
   36MOL   H32723497   0.774   1.236   4.870  0.1177  1.0744  2.9224
   36MOL   H32823498   0.891   1.223   4.737 -2.9397 -4.0451  0.7560
   36MOL   H32923499   0.901   1.451   4.789  0.2993  0.8375  0.2226
   36MOL   H33023500   0.902   1.431   4.966  1.3320 -2.8206  0.7868
   36MOL   H33123501   1.041   1.382   4.872  0.2379 -1.2554  0.4911
   36MOL   C33223502   0.635   0.323   5.135  0.0881 -0.0915  0.3811
   36MOL   C33323503   0.560   0.185   5.149  0.5618 -0.1233 -0.5665
   36MOL   C33423504   0.585   0.126   5.287 -0.2564  0.6143  0.1426
   36MOL   C33523505   0.493   0.164   5.401  0.4510 -0.0479 -0.0197
   36MOL   C33623506   0.533   0.294   5.469 -0.2618  0.2008 -0.6847
   36MOL   C33723507   0.447   0.337   5.596 -0.7217  0.1526  0.1623
   36MOL   C33823508   0.467   0.245   5.723  0.2192  0.1153 -0.1633
   36MOL   C33923509   0.578   0.282   5.820 -0.6247  0.4388  0.4731
   36MOL   C34023510   0.574   0.209   5.959  0.3699 -0.2587  0.4826
   36MOL   C34123511   0.711   0.226   6.033  0.6242  0.0586 -0.2337
   36MOL   C34223512   0.704   0.135   6.155 -0.9095 -0.3397 -0.2829
   36MOL   H34323513   0.718   0.290   5.073 -0.7151 -1.9190  0.2584
   36MOL   H34423514   0.667   0.363   5.232 -0.6831 -0.2289  0.6985
   36MOL   H34523515   0.456   0.216   5.139  0.4037  0.7312  2.9283
   36MOL   H34623516   0.687   0.146   5.320 -0.4593 -0.3341  1.3871
   36MOL   H34723517   0.573   0.017   5.285  1.0632  0.4634 -0.2805
   36MOL   H34823518   0.386   0.159   5.386  0.7425  0.4357 -2.5566
   36MOL   H34923519   0.513   0.087   5.475  0.2146 -0.2852 -0.2056
   36MOL   H35023520   0.640   0.300   5.490 -0.4043 -1.9349  0.8366
   36MOL   H35123521   0.519   0.369   5.392  2.1053  1.7640  0.3512
   36MOL   H35223522   0.343   0.342   5.565 -0.8861  0.5150  0.7786
   36MOL   H35323523   0.473   0.439   5.626 -1.3487  1.0953 -2.3190
   36MOL   H35423524   0.478   0.140   5.697 -0.6479 -0.2502  0.8843
   36MOL   H35523525   0.374   0.239   5.779  0.0183 -0.3115 -0.5424
   36MOL   H35623526   0.673   0.257   5.772 -1.6173  0.1169 -1.3370
   36MOL   H35723527   0.580   0.389   5.838  0.2347  0.8051 -1.6400
   36MOL   H35823528   0.563   0.103   5.935 -0.3603 -0.0924  0.0517
   36MOL   H35923529   0.482   0.244   6.007  0.1933 -0.9322  0.6371
   36MOL   H36023530   0.727   0.326   6.073  0.2700  1.3502 -3.1855
   36MOL   H36123531   0.791   0.190   5.969 -0.2111 -1.2131 -0.5812
   36MOL   H36223532   0.792   0.151   6.217 -1.8764  2.2512  0.4713
   36MOL   H36323533   0.618   0.160   6.217  0.1107 -0.1624  1.0799
   36MOL   H36423534   0.685   0.029   6.139 -2.6418 -0.2405  0.9826
   36MOL   C36523535   0.597   0.098   5.032 -0.7242  0.0450 -0.9074
   36MOL   C36623536   0.486   7.698   4.992 -0.0359  0.1693  1.0570
   36MOL   C36723537   0.393   0.050   4.881  0.0394 -0.1969 -0.5910
   36MOL   C36823538   0.456   0.090   4.753 -0.5238 -1.1536  0.1328
   36MOL   C36923539   0.346   0.121   4.644 -0.0577 -0.7420  0.2119
   36MOL   C37023540   0.404   0.153   4.512 -0.0960 -0.2193  0.0558
   36MOL   C37123541   0.305   0.210   4.409 -0.0887 -0.2479 -0.5844
   36MOL   C37223542   0.180   0.124   4.376  0.0630 -0.4891 -0.0969
   36MOL   C37323543   0.090   0.199   4.274 -0.0402  0.5603 -0.3933
   36MOL   C37423544   0.151   0.209   4.137 -0.1443  0.1231 -0.1618
   36MOL   C37523545   0.133   0.085   4.048  0.3511 -0.4187  0.5575
   36MOL   H37623546   0.618   0.156   4.942  1.5673 -2.2204 -1.8985
   36MOL   H37723547   0.681   0.032   5.058 -2.8147 -1.3731  2.6500
   36MOL   H37823548   0.427   7.672   5.080 -0.1286  0.3644  1.0513
   36MOL   H37923549   0.349   0.140   4.924  1.0912 -0.1822  0.4981
   36MOL   H38023550   0.317   7.676   4.868 -0.2564 -0.0994  0.4905
   36MOL   H38123551   0.529   0.015   4.721  0.4974 -1.0487  2.1433
   36MOL   H38223552   0.526   0.173   4.760  0.0942 -1.8651  3.1143
   36MOL   H38323553   0.282   0.206   4.672  0.5094 -0.3436  0.3054
   36MOL   H38423554   0.277   0.038   4.631 -0.3172 -0.5441  0.3158
   36MOL   H38523555   0.452   0.065   4.469  1.6531  0.7314  0.0271
   36MOL   H38623556   0.486   0.223   4.530 -1.1445  0.8360  0.8391
   36MOL   H38723557   0.267   0.306   4.445  1.7429  0.1796  0.2791
   36MOL   H38823558   0.359   0.219   4.315 -0.6480  3.1127 -0.6494
   36MOL   H38923559   0.130   0.102   4.471 -0.1661  0.7667  0.0757
   36MOL   H39023560   0.216   0.030   4.334 -0.7813 -0.5533 -0.6828
   36MOL   H39123561   7.702   0.143   4.256  0.2630  0.3526 -1.3119
   36MOL   H39223562   0.052   0.292   4.316  0.4957  0.5061  0.2041
   36MOL   H39323563   0.135   0.304   4.086  3.5143  0.8003 -0.1960
   36MOL   H39423564   0.259   0.205   4.146 -0.0218  0.4614 -1.3596
   36MOL   H39523565   0.155   0.098   3.942  0.6090  0.6604  0.7412
   36MOL   H39623566   0.031   0.048   4.053 -0.3764  1.3621 -0.6890
   36MOL   H39723567   0.201   0.007   4.083  1.4400 -0.0989 -0.7737
   36MOL   C39823568   0.552   7.565   4.951 -0.2595  0.0542  0.6376
   36MOL   C39923569   0.460   7.439   4.917  0.1095  0.9175  0.1044
   36MOL   C40023570   0.371   7.389   5.035  0.3022  0.2783 -0.6311
   36MOL   C40123571   0.254   7.295   5.007 -0.0842  0.2163  0.4045
   36MOL   C40223572   0.166   7.265   5.126  0.7206  0.4027 -0.6821
   36MOL   C40323573   0.226   7.173   5.227 -0.1841  0.0929  0.4441
   36MOL   C40423574   0.144   7.141   5.359 -0.5146  0.3334  0.9684
   36MOL   C40523575   0.100   7.001   5.368 -0.3963 -0.4710 -0.3005
   36MOL   C40623576   0.027   6.973   5.507 -0.3062 -0.4602  0.0552
   36MOL   C40723577   7.669   6.836   5.519 -0.4591  0.4995  0.1113
   36MOL   C40823578   7.591   6.820   5.652 -0.4845 -0.3013  0.1980
   36MOL   H40923579   0.616   7.522   5.028 -1.3137  2.1209  2.7299
   36MOL   H41023580   0.618   7.584   4.866 -0.8384 -1.3967 -0.1449
   36MOL   H41123581   0.391   7.478   4.842 -1.4570 -1.0524  0.4718
   36MOL   H41223582   0.334   7.483   5.075  5.1008  1.4346  1.4544
   36MOL   H41323583   0.433   7.355   5.118 -1.0215  0.4466  0.4411
   36MOL   H41423584   0.199   7.337   4.922  1.8196  1.4546 -0.2299
   36MOL   H41523585   0.299   7.204   4.968 -0.9342  0.1944 -0.5420
   36MOL   H41623586   0.137   7.360   5.170 -0.0422 -0.0283 -0.2410
   36MOL   H41723587   0.066   7.235   5.094  0.6149  2.7453 -2.6896
   36MOL   H41823588   0.323   7.209   5.262  0.7262 -1.7945 -0.0485
   36MOL   H41923589   0.245   7.084   5.167 -0.8986 -0.2381  0.7007
   36MOL   H42023590   0.193   7.181   5.448 -1.1454  0.4702  1.2594
   36MOL   H42123591   0.057   7.206   5.342 -1.5057 -1.2296 -0.0621
   36MOL   H42223592   0.177   6.923   5.361 -1.3521 -1.3576 -1.0863
   36MOL   H42323593   0.025   6.980   5.291 -1.1033  1.3690 -0.1395
   36MOL   H42423594   0.094   6.994   5.590  2.2975 -1.1498 -1.8194
   36MOL   H42523595   7.647   7.042   5.521  1.0111  1.4851 -1.5407
   36MOL   H42623596   0.051   6.768   5.518 -1.3997 -0.7153  1.3199
   36MOL   H42723597   7.613   6.809   5.429  2.8923 -1.2147 -1.5970
   36MOL   H42823598   7.526   6.906   5.666  0.6349  0.3169  1.7280
   36MOL   H42923599   7.648   6.813   5.744  1.1539  0.9955 -0.6884
   36MOL   H43023600   7.518   6.739   5.656 -0.8195  0.0142  0.5044
   36MOL   C43123601   0.540   7.326   4.867  0.3191  0.0086  0.2911
   36MOL   C43223602   0.626   7.339   4.738  0.7743 -0.4537  0.4474
   36MOL   C43323603   0.545   7.275   4.621  0.0096  0.6857 -0.0030
   36MOL   C43423604   0.599   7.310   4.479 -0.7673  0.1099 -0.2670
   36MOL   C43523605   0.556   7.450   4.429  0.2073  0.4117  0.5104
   36MOL   C43623606   0.577   7.473   4.279  0.2251  0.1646 -0.2978
   36MOL   C43723607   0.531   7.607   4.224  0.4966 -0.1565  0.8578
   36MOL   C43823608   0.581   7.640   4.078 -0.2152  0.3238  0.6403
   36MOL   C43923609   0.547   0.076   4.026 -0.3598 -0.4568  0.3230
   36MOL   C44023610   0.618   0.106   3.887 -0.4978  0.6045  1.0779
   36MOL   C44123611   0.550   0.215   3.800  0.0072  0.4748 -0.5070
   36MOL   H44223612   0.482   7.238   4.844 -2.1529  1.0328  2.3995
   36MOL   H44323613   0.612   7.303   4.945 -0.7010 -1.1383  0.9026
   36MOL   H44423614   0.628   7.445   4.714  0.5877 -0.1247  1.8584
   36MOL   H44523615   0.555   7.170   4.648 -2.3456  1.1097  2.7980
   36MOL   H44623616   0.436   7.283   4.625 -0.1562 -1.3230 -0.2631
   36MOL   H44723617   0.561   7.234   4.411  0.3304 -0.1819 -0.5532
   36MOL   H44823618   0.707   7.308   4.469 -0.7495  3.0726 -1.2740
   36MOL   H44923619   0.612   7.527   4.482 -0.0207 -0.3545  1.9127
   36MOL   H45023620   0.457   7.480   4.465  0.6781  1.1706  1.1882
   36MOL   H45123621   0.528   7.387   4.232 -0.1552 -0.0848  0.5364
   36MOL   H45223622   0.682   7.458   4.257  1.4625  1.3426  4.3095
   36MOL   H45323623   0.562   7.689   4.288 -0.1860  0.3451  0.5630
   36MOL   H45423624   0.422   7.613   4.226  0.3785 -2.0329  1.2525
   36MOL   H45523625   0.689   7.627   4.071 -0.5807 -1.4950 -2.0438
   36MOL   H45623626   0.530   7.564   4.020  0.1560  1.3727 -1.0932
   36MOL   H45723627   0.575   0.144   4.106 -2.2803 -0.2045  0.8238
   36MOL   H45823628   0.438   0.080   4.013 -0.3696 -2.0856 -0.2333
   36MOL   H45923629   0.627   0.009   3.838 -0.1141  0.8842  0.5900
   36MOL   H46023630   0.718   0.141   3.909 -0.1296  0.6757 -0.6231
   36MOL   H46123631   0.449   0.195   3.766  0.1687 -1.0155 -0.1359
   36MOL   H46223632   0.549   0.305   3.862 -1.1188  0.1791 -0.0881
   36MOL   H46323633   0.614   0.248   3.718  0.5134  1.7402  0.3758
   36MOL   C46423634   0.766   7.271   4.754  0.5974 -0.4576  0.4245
   36MOL   C46523635   0.877   7.355   4.828  0.4975  0.2449 -0.1290
   36MOL   C46623636   1.000   7.276   4.871 -0.4383  0.4551  0.6024
   36MOL   C46723637   0.967   7.145   4.937 -0.2746 -0.9444  0.4833
   36MOL   C46823638   1.097   7.069   4.984 -0.2007  0.7229 -0.6675
   36MOL   C46923639   1.060   6.932   5.031  0.4363 -0.5079 -0.5756
   36MOL   C47023640   1.180   6.855   5.088 -0.0454  0.3261  0.3734
   36MOL   C47123641   1.147   6.715   5.137 -0.3337 -0.5172  0.0209
   36MOL   C47223642   1.278   6.644   5.189 -0.3620  0.3927 -0.6745
   36MOL   C47323643   1.239   6.505   5.241 -1.0222 -0.9477 -0.2927
   36MOL   C47423644   1.200   6.405   5.139  0.3988  0.7554  0.5303
   36MOL   H47523645   0.799   7.248   4.653 -0.0907  1.2469 -0.2208
   36MOL   H47623646   0.758   7.170   4.793  2.7856 -0.8749 -0.1636
   36MOL   H47723647   0.819   7.397   4.910  0.4304  0.8755 -0.4975
   36MOL   H47823648   1.052   7.344   4.938  1.1589  0.4735 -0.6181
   36MOL   H47923649   1.066   7.264   4.784  1.0940 -2.2720  2.0801
   36MOL   H48023650   0.897   7.164   5.018  0.9948 -1.5025  1.7305
   36MOL   H48123651   0.926   7.075   4.864 -2.0054  1.1545 -0.6115
   36MOL   H48223652   1.139   7.130   5.064  0.0734  2.7193 -2.2891
   36MOL   H48323653   1.153   7.070   4.891  2.9398 -0.2716  1.1170
   36MOL   H48423654   0.984   6.931   5.109  1.9083 -1.5290  0.8784
   36MOL   H48523655   1.012   6.880   4.948 -1.9687 -2.9834  2.2032
   36MOL   H48623656   1.264   6.859   5.019 -0.9745 -1.5307 -0.9330
   36MOL   H48723657   1.220   6.916   5.168  0.1514  0.7240 -0.0286
   36MOL   H48823658   1.088   6.719   5.228  0.6869 -3.8192  0.9048
   36MOL   H48923659   1.103   6.644   5.067 -0.1383 -0.2518 -0.3747
   36MOL   H49023660   1.351   6.639   5.108  1.2523  0.2438  0.7607
   36MOL   H49123661   1.326   6.699   5.270  0.4787 -0.8443 -0.3108
   36MOL   H49223662   1.336   6.476   5.280  0.4278 -1.4422 -4.0714
   36MOL   H49323663   1.165   6.519   5.321  2.3673  2.6579  2.4267
   36MOL   H49423664   1.102   6.425   5.096 -0.0894 -0.6840  0.9544
   36MOL   H49523665   1.219   6.305   5.179 -1.1410  0.4032  0.3983
   36MOL   H49623666   1.271   6.411   5.056 -1.3388 -0.9716 -1.1281
   36MOL   C49723667   0.920   7.473   4.739 -0.6660 -0.0198 -0.7792
   36MOL   C49823668   1.000   7.591   4.807 -0.3984 -0.4712 -0.3224
   36MOL   C49923669   0.908   7.701   4.850  0.1942  0.3987  0.3103
   36MOL   C50023670   0.975   0.116   4.912 -0.5093  0.5089  0.2306
   36MOL   C50123671   0.963   0.241   4.816  0.1080 -0.0962 -0.5582
   36MOL   C50223672   1.041   0.364   4.861 -0.1385 -0.2236  0.3152
   36MOL   C50323673   1.196   0.353   4.868  0.0016  0.5497 -0.0096
   36MOL   C50423674   1.256   0.484   4.921  0.3027  0.4060  0.4825
   36MOL   C50523675   1.409   0.489   4.909  0.7382  0.5248 -0.1057
   36MOL   C50623676   1.468   0.596   5.002 -0.1853  0.0974 -0.3325
   36MOL   C50723677   1.614   0.581   5.036  0.0578  1.5361  0.0201
   36MOL   H50823678   0.974   7.422   4.659  1.5239  0.1166  0.5882
   36MOL   H50923679   0.828   7.509   4.692 -0.2350  2.3186  0.1120
   36MOL   H51023680   1.049   7.547   4.894  0.0948 -0.9768 -0.8575
   36MOL   H51123681   0.841   7.646   4.917 -1.6147  1.0545 -0.9316
   36MOL   H51223682   0.844   0.022   4.765  0.1823 -2.0053 -0.4182
   36MOL   H51323683   1.080   0.101   4.935 -0.0061  1.4898 -1.3309
   36MOL   H51423684   0.915   0.129   5.003  1.0640  0.2364  1.3193
   36MOL   H51523685   1.002   0.207   4.720  0.3165  0.6988 -0.7602
   36MOL   H51623686   0.858   0.269   4.805 -0.1881 -0.5965  0.9486
   36MOL   H51723687   1.015   0.448   4.796 -1.8073 -0.3582  0.7696
   36MOL   H51823688   1.014   0.396   4.962 -1.2881 -0.4584  0.0858
   36MOL   H51923689   1.217   0.277   4.943  0.6154  0.6022 -0.1279
   36MOL   H52023690   1.243   0.318   4.776  2.8522  1.3696  1.1101
   36MOL   H52123691   1.217   0.512   5.019  0.9078  1.8534  0.3279
   36MOL   H52223692   1.223   0.565   4.856  0.7395  1.0819  1.0882
   36MOL   H52323693   1.447   0.500   4.807 -0.0775 -2.2508 -0.7588
   36MOL   H52423694   1.452   0.395   4.943  0.9009 -0.0264 -1.7580
   36MOL   H52523695   1.421   0.593   5.100 -0.8551 -0.4795 -0.6690
   36MOL   H52623696   1.431   0.696   4.978 -1.2072 -0.1515  0.1514
   36MOL   H52723697   1.650   0.661   5.101  0.5549  1.3870 -0.0682
   36MOL   H52823698   1.686   0.572   4.955  0.0780  0.1526  0.1849
   36MOL   H52923699   1.631   0.489   5.091  0.8539  1.1601 -0.8382
   36MOL   C53023700   1.114   7.645   4.710  0.0159  0.8517 -0.5653
   36MOL   C53123701   1.227   7.552   4.683  0.0104  0.1449  0.1408
   36MOL   C53223702   1.315   7.536   4.806  0.7000 -0.4551 -0.0776
   36MOL   C53323703   1.379   7.397   4.827 -0.3200  0.5100  0.8776
   36MOL   C53423704   1.490   7.379   4.926  0.7243  1.0412  0.4624
   36MOL   C53523705   1.509   7.229   4.945  0.0636  0.7258  0.1810
   36MOL   C53623706   1.611   7.189   5.054 -0.3012  0.7024 -0.1110
   36MOL   C53723707   1.609   7.034   5.074 -0.2259 -0.0732 -0.3764
   36MOL   C53823708   1.651   6.987   5.210  0.0407  0.6773 -0.0334
   36MOL   C53923709   1.652   6.833   5.218  0.0889  0.9967  0.0927
   36MOL   C54023710   1.681   6.767   5.349 -0.3036  0.3772  0.4159
   36MOL   H54123711   1.070   7.692   4.623 -0.4724 -0.1302 -0.8588
   36MOL   H54223712   1.162   0.020   4.768  1.6635  0.5125 -1.4265
   36MOL   H54323713   1.184   7.456   4.654  1.2219  0.3827 -2.5541
   36MOL   H54423714   1.259   7.559   4.896  1.0064 -0.0513  0.0132
   36MOL   H54523715   1.393   7.612   4.815  0.1969  0.0552  0.0158
   36MOL   H54623716   1.401   7.350   4.731  2.1275  1.7043  0.8191
   36MOL   H54723717   1.294   7.340   4.863 -0.6503  0.1951 -0.3703
   36MOL   H54823718   1.474   7.430   5.021 -4.0999 -0.8247  0.7705
   36MOL   H54923719   1.580   7.424   4.884  2.2009 -0.6101  1.7934
   36MOL   H55023720   1.517   7.177   4.850 -1.5228  1.2652 -0.2682
   36MOL   H55123721   1.410   7.202   4.983 -1.3021  2.0295 -2.3042
   36MOL   H55223722   1.575   7.232   5.147  1.9192 -0.6327  1.4184
   36MOL   H55323723   1.713   7.228   5.046  0.1034 -0.5173 -1.1040
   36MOL   H55423724   1.663   7.000   4.986  1.1417  1.8326 -0.3054
   36MOL   H55523725   1.510   6.990   5.062 -1.2083  1.1483  2.9669
   36MOL   H55623726   1.572   7.025   5.275  0.0162  1.2050 -0.3713
   36MOL   H55723727   1.750   7.030   5.229 -0.0266  0.5730  0.5788
   36MOL   H55823728   1.723   6.799   5.143  0.1013 -0.2700  0.6548
   36MOL   H55923729   1.563   6.783   5.181  1.7869 -2.2570  0.2200
   36MOL   H56023730   1.620   6.809   5.429 -0.0487  2.9376 -0.6869
   36MOL   H56123731   1.678   6.660   5.328 -1.5942  0.6223 -0.6821
   36MOL   H56223732   1.788   6.779   5.370 -0.7849  2.5436  1.7586
   36MOL   C56323733   1.302   7.593   4.551 -0.3466  0.7932  0.0825
   36MOL   C56423734   1.380   7.485   4.475 -0.1446  0.6463  0.9315
   36MOL   C56523735   1.534   7.513   4.459  0.6586 -0.1842  0.3367
   36MOL   C56623736   1.623   7.487   4.584 -0.3613 -0.0724 -0.1470
   36MOL   C56723737   1.770   7.528   4.568 -0.4458  0.1239  0.0369
   36MOL   C56823738   1.843   7.477   4.692 -0.5084  0.0060  0.3401
   36MOL   C56923739   1.991   7.500   4.691 -0.0049 -0.0065 -0.6947
   36MOL   C57023740   2.072   7.420   4.594 -0.0122 -0.5353  0.3289
   36MOL   C57123741   2.220   7.437   4.612 -0.1137 -0.2514 -0.2114
   36MOL   C57223742   2.297   7.341   4.514 -0.4110 -0.7139  1.2111
   36MOL   C57323743   2.439   7.390   4.487  0.2449 -0.3018  0.2763
   36MOL   H57423744   1.380   7.666   4.572 -0.7278  0.8189  1.4787
   36MOL   H57523745   1.230   7.642   4.486 -1.1395  0.7283  0.8856
   36MOL   H57623746   1.386   7.387   4.523  3.3543  0.2251 -0.2053
   36MOL   H57723747   1.545   7.613   4.418  1.8943 -1.1163 -1.7112
   36MOL   H57823748   1.561   7.444   4.379  0.0071 -0.2970  0.2113
   36MOL   H57923749   1.622   7.378   4.591  0.6193 -0.1403 -1.0661
   36MOL   H58023750   1.585   7.538   4.673 -1.9454  0.8796 -1.3390
   36MOL   H58123751   1.770   7.636   4.561  0.6257  0.2127  1.2750
   36MOL   H58223752   1.813   7.497   4.472 -1.6733 -2.7946  0.3609
   36MOL   H58323753   1.803   7.531   4.778  0.6339  0.2718  0.7069
   36MOL   H58423754   1.832   7.369   4.700  0.2229 -0.1913 -1.1953
   36MOL   H58523755   2.013   7.605   4.674 -0.4714  0.0459 -0.9686
   36MOL   H58623756   2.031   7.471   4.788 -1.8038 -1.7307 -0.4296
   36MOL   H58723757   2.040   7.456   4.496 -1.7999  0.7553  1.3663
   36MOL   H58823758   2.057   7.312   4.603  0.5923 -0.7492 -0.9997
   36MOL   H58923759   2.250   7.419   4.715  1.1065 -0.0483 -0.5214
   36MOL   H59023760   2.249   7.541   4.596  1.6188 -1.0056 -2.3671
   36MOL   H59123761   2.246   7.326   4.418  1.6054  0.7925 -0.1460
   36MOL   H59223762   2.296   7.239   4.552  0.6667 -1.9281 -1.8350
   36MOL   H59323763   2.483   7.412   4.585 -0.8688  0.8678  0.5262
   36MOL   H59423764   2.496   7.301   4.458  0.9983 -0.2807  1.6479
   36MOL   H59523765   2.448   7.470   4.414  1.4144 -2.0037 -1.5217
   36MOL   C59623766   1.318   7.454   4.329  0.3385  0.5584  0.9282
   36MOL   C59723767   1.169   7.413   4.329  0.5377  0.1566 -0.4216
   36MOL   C59823768   1.152   7.266   4.337 -0.1871  0.1698  0.3487
   36MOL   C59923769   1.013   7.213   4.372 -0.5619 -0.8003 -0.3108
   36MOL   C60023770   1.006   7.059   4.366 -0.2888 -0.0010  0.1684
   36MOL   C60123771   0.887   6.998   4.454 -0.4733  0.3664 -0.4252
   36MOL   C60223772   0.846   6.858   4.395 -0.1142  0.2168 -0.3726
   36MOL   C60323773   0.956   6.747   4.408 -0.2747  0.4992  0.2150
   36MOL   C60423774   0.915   6.622   4.341 -0.0411  0.7002 -0.6291
   36MOL   C60523775   1.017   6.516   4.374  0.0690  0.8821  0.0943
   36MOL   C60623776   0.991   6.390   4.288 -1.2893  0.8548 -0.3014
   36MOL   H60723777   1.323   7.552   4.281 -1.8252  0.3604  0.2355
   36MOL   H60823778   1.382   7.389   4.270  1.1492  0.7833  1.5565
   36MOL   H60923779   1.110   7.455   4.411  2.0551  2.4437 -0.4639
   36MOL   H61023780   1.239   7.216   4.378 -1.5088 -2.1902  0.3184
   36MOL   H61123781   1.164   7.226   4.236 -0.5129 -0.2271  0.4650
   36MOL   H61223782   0.947   7.261   4.299 -1.7937 -1.6400  0.2334
   36MOL   H61323783   0.995   7.258   4.470 -0.0592 -1.3966  0.0596
   36MOL   H61423784   1.092   7.012   4.414 -1.0852 -1.7602 -0.0904
   36MOL   H61523785   0.994   7.025   4.263 -0.4416  1.5351 -0.3250
   36MOL   H61623786   0.922   6.985   4.557 -0.4443  0.8808 -0.3681
   36MOL   H61723787   0.807   7.071   4.462 -1.0857 -0.5015  1.5117
   36MOL   H61823788   0.821   6.871   4.290  2.5103  1.3033 -0.9219
   36MOL   H61923789   0.763   6.819   4.453  0.7947 -2.7670 -0.9818
   36MOL   H62023790   0.969   6.730   4.515  1.0277 -0.8123 -0.1469
   36MOL   H62123791   1.060   6.769   4.386  0.8835 -3.7534  0.9684
   36MOL   H62223792   0.814   6.595   4.371  0.1613 -1.4227 -1.7298
   36MOL   H62323793   0.908   6.633   4.232 -0.9787 -0.3175 -0.6885
   36MOL   H62423794   1.025   6.497   4.481 -1.4335 -2.4043 -0.2994
   36MOL   H62523795   1.111   6.557   4.339  0.0871  0.5223 -0.2856
   36MOL   H62623796   0.889   6.380   4.254 -0.9481 -1.3630 -0.7590
   36MOL   H62723797   1.053   6.372   4.199  2.1320  1.1475  1.9103
   36MOL   H62823798   1.009   6.300   4.347 -0.1421  1.1715 -0.1412
   36MOL   C62923799   1.098   7.471   4.203  0.5222  0.1582  0.5931
   36MOL   C63023800   1.048   7.622   4.208  0.6791  0.2022 -0.1659
   36MOL   C63123801   0.947   7.666   4.321  0.3980 -0.5692 -0.4494
   36MOL   C63223802   0.924   0.113   4.309 -0.7450  0.7919  0.2965
   36MOL   C63323803   0.851   0.181   4.421  0.2179  0.5609  0.3616
   36MOL   C63423804   0.830   0.335   4.408 -0.5925  0.5423 -0.1223
   36MOL   C63523805   0.730   0.375   4.310 -0.4117 -0.4163 -0.4738
   36MOL   C63623806   0.756   0.522   4.257 -0.0569  0.0351 -0.3718
   36MOL   C63723807   0.678   0.560   4.129  0.0388  0.0001  1.2674
   36MOL   C63823808   0.729   0.479   4.005 -0.9413  0.8042  0.3765
   36MOL   C63923809   0.692   0.539   3.866  0.1762  0.0675  0.2339
   36MOL   H64023810   1.169   7.454   4.123  0.4801 -0.1152  0.6138
   36MOL   H64123811   1.004   7.422   4.176 -0.8996  2.1817  1.7152
   36MOL   H64223812   1.139   7.681   4.219 -0.0211  1.4109 -0.7526
   36MOL   H64323813   0.850   7.617   4.321  0.7175 -1.2080 -0.9670
   36MOL   H64423814   0.998   7.642   4.415 -0.3026  0.5978  0.2483
   36MOL   H64523815   0.872   0.125   4.214 -1.8711  0.6490  0.8973
   36MOL   H64623816   1.024   0.155   4.294  0.3517 -2.2344 -1.2049
   36MOL   H64723817   0.913   0.163   4.508 -1.2650 -2.1288  0.9042
   36MOL   H64823818   0.759   0.127   4.441  1.7950 -1.0138  3.8011
   36MOL   H64923819   0.919   0.389   4.378  1.0376 -0.7914  2.1456
   36MOL   H65023820   0.798   0.377   4.503 -0.0906  0.0976  0.2458
   36MOL   H65123821   0.632   0.372   4.358  0.5536 -0.1530  1.5576
   36MOL   H65223822   0.739   0.301   4.231  1.3746 -1.0597  0.3061
   36MOL   H65323823   0.861   0.532   4.231 -0.0611 -1.9594 -1.2285
   36MOL   H65423824   0.742   0.591   4.341 -2.0650  0.4130 -0.9897
   36MOL   H65523825   0.686   0.668   4.112 -0.5068 -0.0798  0.4359
   36MOL   H65623826   0.571   0.547   4.144 -0.1924  0.5847  0.2414
   36MOL   H65723827   0.687   0.379   4.013  0.5989  0.0012 -1.0198
   36MOL   H65823828   0.834   0.449   4.009 -0.9162  0.5306 -1.8363
   36MOL   H65923829   0.584   0.531   3.855  0.3688 -1.2231 -0.9232
   36MOL   H66023830   0.732   0.472   3.789 -1.9161 -1.2087  0.2135
   36MOL   H66123831   0.732   0.640   3.861 -2.2211  1.0721  1.0006
   36MOL   H66223832   1.013   7.645   4.107 -1.4419 -1.4011  0.1826
   37MOL     C123833   6.596   1.384   2.115 -0.0407 -0.0565 -0.3346
   37MOL     C223834   6.646   1.313   2.239 -0.2266  0.1492 -0.3066
   37MOL     C323835   6.663   1.161   2.219 -0.2203  0.1921  0.4707
   37MOL     C423836   6.727   1.116   2.089  0.7501 -0.2931 -0.2893
   37MOL     C523837   6.766   0.971   2.081  0.4201 -0.9580 -0.4099
   37MOL     C623838   6.650   0.881   2.061  0.3582  0.2514 -0.4482
   37MOL     C723839   6.699   0.728   2.037 -0.0997 -0.6419  0.6202
   37MOL     C823840   6.595   0.645   1.959 -0.3442 -0.0672  0.3635
   37MOL     C923841   6.623   0.493   1.961  0.2138  0.2708  0.8052
   37MOL    C1023842   6.763   0.449   1.916 -0.6277 -0.1182 -0.1565
   37MOL    C1123843   6.768   0.294   1.902 -0.0290  0.2496  0.0653
   37MOL    H1223844   6.497   1.346   2.091 -0.1114 -0.4897  0.6256
   37MOL    H1323845   6.664   1.386   2.030  0.9190  0.4871  0.4361
   37MOL    H1423846   6.574   1.342   2.315 -1.0645 -0.6137 -0.8082
   37MOL    H1523847   6.556   1.143   2.218 -0.6985  2.8850  1.0728
   37MOL    H1623848   6.709   1.109   2.303 -2.9306 -0.0344  1.8578
   37MOL    H1723849   6.822   1.167   2.073  2.1012 -2.2527  1.1113
   37MOL    H1823850   6.667   1.157   2.008 -1.3472 -0.0299  1.3494
   37MOL    H1923851   6.827   0.965   1.990  1.7880 -2.3089  0.5750
   37MOL    H2023852   6.821   0.936   2.168  0.5219 -1.0449 -0.5083
   37MOL    H2123853   6.594   0.914   1.974  0.5657 -0.5535 -0.8941
   37MOL    H2223854   6.573   0.895   2.137  0.8432 -0.2697  0.1524
   37MOL    H2323855   6.793   0.723   1.983  0.6528 -2.6437  2.0565
   37MOL    H2423856   6.739   0.688   2.130 -0.1927 -0.3475  0.7880
   37MOL    H2523857   6.599   0.682   1.857  1.9349 -1.5460 -0.1081
   37MOL    H2623858   6.496   0.674   1.995 -0.5157  0.4209 -0.4956
   37MOL    H2723859   6.547   0.450   1.896 -0.4063  0.9661  1.0583
   37MOL    H2823860   6.613   0.454   2.062  2.2108 -0.3337  0.7919
   37MOL    H2923861   6.817   0.485   2.004 -0.1847 -1.3645  0.0985
   37MOL    H3023862   6.794   0.492   1.821 -1.7321  0.5382 -0.2223
   37MOL    H3123863   6.864   0.252   1.872 -0.2255 -0.5408  0.5464
   37MOL    H3223864   6.748   0.252   2.001 -0.6771 -0.6609 -0.4444
   37MOL    H3323865   6.692   0.263   1.830  1.5704 -0.2811 -1.4299
   37MOL    H3423866   6.583   1.487   2.149 -1.4138 -0.3780  0.1497
   37MOL    C3523867   6.784   1.367   2.290 -0.1398 -0.3135  0.0932
   37MOL    C3623868   6.793   1.514   2.336  1.1671  0.2270 -0.2447
   37MOL    C3723869   6.703   1.554   2.455 -0.6070 -0.5072  0.6628
   37MOL    C3823870   6.715   1.488   2.588  0.0651  0.2196 -0.2841
   37MOL    C3923871   6.620   1.545   2.694 -0.2995 -0.3312 -0.2415
   37MOL    C4023872   6.577   1.452   2.809  0.3975  0.0041 -0.7413
   37MOL    C4123873   6.698   1.412   2.897 -0.1935  0.1962 -0.5532
   37MOL    C4223874   6.752   1.526   2.993 -0.5778  0.2476 -0.0802
   37MOL    C4323875   6.892   1.502   3.059 -0.2595 -0.2002  0.4167
   37MOL    C4423876   7.011   1.532   2.964  0.4486  0.3337 -0.3318
   37MOL    C4523877   7.147   1.530   3.041 -0.2481 -0.3031  0.3240
   37MOL    H4623878   6.865   1.351   2.220  1.3714  1.5334  1.3627
   37MOL    H4723879   6.807   1.317   2.385 -0.1741  0.4614  0.5135
   37MOL    H4823880   6.763   1.574   2.250 -2.0621  0.1988  0.7974
   37MOL    H4923881   6.715   1.661   2.473  0.9238 -0.4243 -0.6760
   37MOL    H5023882   6.601   1.548   2.418 -0.1952 -0.8277 -0.4551
   37MOL    H5123883   6.817   1.504   2.623 -0.7745  2.2843  1.3734
   37MOL    H5223884   6.709   1.380   2.576  0.2245  0.3338 -1.4430
   37MOL    H5323885   6.529   1.554   2.634 -1.0758 -0.2200  0.9201
   37MOL    H5423886   6.651   1.646   2.722 -1.6157  0.2914 -0.9847
   37MOL    H5523887   6.543   1.358   2.767  0.5012 -0.8280  0.9812
   37MOL    H5623888   6.493   1.482   2.871 -0.6104 -0.1743 -2.0104
   37MOL    H5723889   6.671   1.331   2.965 -0.1490  0.0455 -0.7152
   37MOL    H5823890   6.774   1.366   2.833  0.9479  0.9208  0.2548
   37MOL    H5923891   6.688   1.540   3.080  2.5240 -0.4836  2.4123
   37MOL    H6023892   6.752   1.619   2.936 -2.7407  1.5792  1.9885
   37MOL    H6123893   6.908   1.403   3.102 -0.0385  0.3877  1.7178
   37MOL    H6223894   6.897   1.572   3.142 -2.4840  2.1861 -1.3988
   37MOL    H6323895   7.016   1.468   2.876 -2.2496  1.8188 -1.6239
   37MOL    H6423896   6.988   1.634   2.933  0.7498 -0.0534 -1.8469
   37MOL    H6523897   7.145   1.584   3.136 -0.4955  1.1376 -0.4976
   37MOL    H6623898   7.191   1.431   3.054 -0.0682 -0.2235  0.3138
   37MOL    H6723899   7.213   1.584   2.974 -0.6633 -2.7117 -2.0756
   37MOL    C6823900   6.940   1.543   2.356  0.1407 -0.3114 -0.0522
   37MOL    C6923901   6.982   1.682   2.414 -0.2546  0.3847 -0.6680
   37MOL    C7023902   7.135   1.703   2.416  0.7829  0.6186 -0.5774
   37MOL    C7123903   7.208   1.692   2.282  0.6142 -0.6989 -0.3189
   37MOL    C7223904   7.357   1.744   2.285 -0.4448 -0.2926 -0.1235
   37MOL    C7323905   7.424   1.746   2.146  0.5903  0.1474 -0.3056
   37MOL    C7423906   7.469   1.608   2.090  0.6320 -0.3113  0.6442
   37MOL    C7523907   7.543   1.611   1.950  0.6040 -0.7050  0.2304
   37MOL    C7623908   7.627   1.491   1.904 -0.0963  0.0427  0.1637
   37MOL    C7723909   7.546   1.368   1.865  0.2425  0.0325 -0.2182
   37MOL    C7823910   7.628   1.252   1.825 -0.0807  0.6526 -0.3941
   37MOL    H7923911   6.988   1.536   2.259  1.1127 -1.1981  0.4778
   37MOL    H8023912   6.983   1.456   2.408 -0.7204 -2.1973 -2.4239
   37MOL    H8123913   6.940   1.694   2.514 -2.7818  2.2344 -1.8780
   37MOL    H8223914   7.174   1.634   2.491  1.3584  1.0765 -0.4537
   37MOL    H8323915   7.172   1.796   2.459  0.3722  0.7382 -0.4865
   37MOL    H8423916   7.202   1.592   2.241 -0.1754 -0.4923 -0.7078
   37MOL    H8523917   7.152   1.749   2.208 -1.4603 -1.2686  0.7778
   37MOL    H8623918   7.416   1.685   2.356  0.0573  1.8338  1.2634
   37MOL    H8723919   7.358   1.845   2.326 -1.3174 -0.5905  0.6608
   37MOL    H8823920   7.344   1.774   2.078  1.3252 -1.1884 -1.7745
   37MOL    H8923921   7.497   1.827   2.146 -1.4386  2.0225  1.1585
   37MOL    H9023922   7.377   1.553   2.068 -0.2430  2.1756 -2.2616
   37MOL    H9123923   7.529   1.557   2.165  1.0824 -0.3856  0.2332
   37MOL    H9223924   7.470   1.634   1.872  0.7844  0.2598  0.3371
   37MOL    H9323925   7.613   1.694   1.946 -0.2748  0.0452  0.3376
   37MOL    H9423926   7.681   1.508   1.811 -0.9101 -0.3632 -0.3970
   37MOL    H9523927   7.693   1.481   1.990 -0.2942  2.7107  0.6877
   37MOL    H9623928   7.492   1.336   1.955  2.3066  0.1461  1.1032
   37MOL    H9723929   7.465   1.396   1.798  0.0532 -0.9369 -0.4066
   37MOL    H9823930   7.679   1.263   1.729  0.3780 -1.1413 -0.3591
   37MOL    H9923931   7.561   1.166   1.827 -0.0631  0.6547  0.5487
   37MOL   H10023932   0.000   1.228   1.900  0.7694 -0.5433 -1.6294
   37MOL   C10123933   6.909   1.796   2.336  0.2263 -0.0434 -0.0251
   37MOL   C10223934   6.938   1.941   2.372 -0.1667 -0.2747 -0.3149
   37MOL   C10323935   6.884   1.968   2.515  0.2172 -0.1355  0.5798
   37MOL   C10423936   6.973   1.931   2.635 -0.1367 -0.4482 -0.1421
   37MOL   C10523937   6.890   1.909   2.770 -0.5327 -0.0407  0.2071
   37MOL   C10623938   6.808   2.029   2.816  0.3208  0.4698 -0.3991
   37MOL   C10723939   6.740   2.020   2.958  0.8590 -0.9789 -0.3791
   37MOL   C10823940   6.843   2.045   3.064  0.0315  0.5836  0.0071
   37MOL   C10923941   6.795   2.029   3.212 -0.1342 -0.1075 -0.3857
   37MOL   C11023942   6.913   2.023   3.312  0.1185  0.1015 -0.2512
   37MOL   C11123943   6.876   1.958   3.447  0.3508 -0.3273 -0.0793
   37MOL   H11223944   6.940   1.775   2.234 -3.3421 -0.6194 -1.0585
   37MOL   H11323945   6.801   1.782   2.342  0.4312 -0.9611  2.1669
   37MOL   H11423946   7.045   1.958   2.383 -0.6292  2.0792  0.8783
   37MOL   H11523947   6.875   2.076   2.518 -0.1105 -0.1462 -0.0053
   37MOL   H11623948   6.783   1.930   2.532  0.0059  0.2334  0.1402
   37MOL   H11723949   7.038   1.847   2.613  0.3018 -0.2308  0.3013
   37MOL   H11823950   7.033   2.018   2.665  0.6030 -1.2062  0.6185
   37MOL   H11923951   6.830   1.818   2.761 -0.1260 -0.4162  1.1823
   37MOL   H12023952   6.955   1.884   2.854 -0.5478  0.2204  0.2964
   37MOL   H12123953   6.867   2.121   2.810 -0.4215  0.8545 -1.9013
   37MOL   H12223954   6.723   2.043   2.750 -0.3948  1.9583  0.7966
   37MOL   H12323955   6.687   1.926   2.974 -0.1543 -0.5129 -0.9753
   37MOL   H12423956   6.658   2.092   2.965 -0.3504 -2.1963 -1.6524
   37MOL   H12523957   6.930   1.983   3.043 -1.1205 -0.7302 -0.9639
   37MOL   H12623958   6.867   2.151   3.056  1.2687  0.2999 -0.1798
   37MOL   H12723959   6.737   2.115   3.246 -2.2251 -0.3177 -3.2457
   37MOL   H12823960   6.739   1.936   3.223 -0.0865 -0.2487 -1.3270
   37MOL   H12923961   6.965   2.119   3.312  1.7336 -0.7362 -2.1931
   37MOL   H13023962   6.996   1.963   3.276 -0.3484 -1.1648  0.7574
   37MOL   H13123963   6.802   2.023   3.494 -0.8957 -2.5316  1.0775
   37MOL   H13223964   6.834   1.858   3.453 -1.1363  0.3301  1.0283
   37MOL   H13323965   6.966   1.935   3.504  0.3390 -1.0736 -0.3481
   37MOL   C13423966   6.883   2.030   2.262 -0.5921 -0.7588  0.0228
   37MOL   C13523967   6.964   2.047   2.130 -0.2902  0.1794 -0.0717
   37MOL   C13623968   7.062   2.162   2.138 -0.1101  0.1399 -0.0031
   37MOL   C13723969   7.011   2.305   2.116  0.3798 -0.5871 -0.4309
   37MOL   C13823970   7.122   2.415   2.109  0.5946  0.0703 -0.7914
   37MOL   C13923971   7.191   2.418   1.971  1.1569 -0.1291  0.3963
   37MOL   C14023972   7.279   2.543   1.950 -0.6995 -0.1203 -0.1628
   37MOL   C14123973   7.360   2.543   1.823  0.4828  0.0488  0.9585
   37MOL   C14223974   7.263   2.544   1.694 -0.1112  0.2786  0.3737
   37MOL   C14323975   7.342   2.568   1.564 -0.0439 -0.0601  0.4985
   37MOL   C14423976   7.254   2.554   1.441 -0.6129  0.4717 -0.0132
   37MOL   H14523977   6.780   2.005   2.236 -1.2843  1.1371  0.8824
   37MOL   H14623978   6.871   2.133   2.296 -1.7213 -0.6811 -0.5883
   37MOL   H14723979   7.038   1.967   2.129  2.6354  2.7662  1.6601
   37MOL   H14823980   7.143   2.147   2.067  0.1173 -0.3564  0.3617
   37MOL   H14923981   7.112   2.167   2.235  1.3107  0.2000 -0.7128
   37MOL   H15023982   6.951   2.301   2.025 -1.2008  0.7867  0.5331
   37MOL   H15123983   6.939   2.333   2.193  2.4766  0.2319  1.2693
   37MOL   H15223984   7.088   2.514   2.138  0.0083  0.3540 -2.3800
   37MOL   H15323985   7.208   2.385   2.169 -0.3767 -0.1883  0.4953
   37MOL   H15423986   7.251   2.331   1.946  0.8942  0.1291 -1.1928
   37MOL   H15523987   7.116   2.417   1.892  1.3690  0.0036  0.1925
   37MOL   H15623988   7.212   2.629   1.955 -1.5790 -0.7537 -0.8275
   37MOL   H15723989   7.348   2.538   2.034 -1.3849  0.3019  0.4308
   37MOL   H15823990   7.429   2.627   1.817 -0.6162  0.8076 -2.1056
   37MOL   H15923991   7.413   2.449   1.811  0.2915 -0.1410  1.5761
   37MOL   H16023992   7.207   2.452   1.690 -0.4104  0.4370  0.9431
   37MOL   H16123993   7.195   2.627   1.713  0.1870  1.2005 -2.3561
   37MOL   H16223994   7.380   2.670   1.569  3.1193 -1.1159 -0.6271
   37MOL   H16323995   7.428   2.501   1.551 -0.2140 -0.3267  0.7445
   37MOL   H16423996   7.153   2.595   1.445 -0.8968 -0.0908 -1.2614
   37MOL   H16523997   7.242   2.450   1.410  1.6554  0.6568 -1.5963
   37MOL   H16623998   7.300   2.599   1.354 -1.5231  0.4737 -0.5008
   37MOL   C16723999   6.882   2.041   1.999 -0.4845 -0.9054 -0.1624
   37MOL   C16824000   6.823   1.900   1.952  0.0706 -0.8664 -0.2581
   37MOL   C16924001   6.925   1.784   1.927  1.3984 -0.1323 -0.6515
   37MOL   C17024002   6.860   1.639   1.941 -0.2345  0.5194 -0.3782
   37MOL   C17124003   6.958   1.521   1.932 -0.3328 -0.3113 -1.0348
   37MOL   C17224004   7.028   1.503   1.794 -0.0620 -0.7913  0.4424
   37MOL   C17324005   7.126   1.386   1.773  0.2734 -0.5081 -0.2011
   37MOL   C17424006   7.188   1.375   1.634  0.2516  0.3267 -0.4962
   37MOL   C17524007   7.247   1.240   1.611 -0.1491  0.5416  0.2729
   37MOL   C17624008   7.138   1.124   1.592 -0.2001  0.3146  0.2002
   37MOL   C17724009   7.212   0.998   1.555 -0.3640  0.7593 -0.6333
   37MOL   H17824010   6.808   2.121   1.998  0.4414 -0.0156  1.0864
   37MOL   H17924011   6.948   2.069   1.916 -1.8027 -1.8372 -1.5494
   37MOL   H18024012   6.760   1.867   2.035 -0.1412 -0.1502 -0.1305
   37MOL   H18124013   7.016   1.796   1.986 -0.8000  0.3771  2.7940
   37MOL   H18224014   6.965   1.793   1.827 -1.7180 -1.9172 -2.1238
   37MOL   H18324015   6.809   1.619   2.036  0.9590  0.5511  0.2721
   37MOL   H18424016   6.788   1.618   1.862  0.0966 -0.3327 -0.4600
   37MOL   H18524017   6.897   1.431   1.940 -1.1821  0.1800 -1.8399
   37MOL   H18624018   7.019   1.506   2.021 -0.5100  0.0096 -0.8592
   37MOL   H18724019   6.953   1.508   1.716  1.6826  0.3110 -1.2124
   37MOL   H18824020   7.080   1.597   1.773  1.7723 -1.8836 -0.0295
   37MOL   H18924021   7.054   1.304   1.780 -0.8754  0.3835 -1.3932
   37MOL   H19024022   7.199   1.373   1.854  2.0711  2.3404 -1.3020
   37MOL   H19124023   7.106   1.382   1.563  1.0586  1.8293 -1.3020
   37MOL   H19224024   7.258   1.449   1.594 -2.1076  1.9364 -1.8072
   37MOL   H19324025   7.313   1.209   1.692  0.5995 -0.0778 -0.5617
   37MOL   H19424026   7.306   1.249   1.519  0.3746  1.7911  0.7154
   37MOL   H19524027   7.069   1.140   1.509 -0.0110  1.3569  0.2363
   37MOL   H19624028   7.085   1.115   1.687 -0.8228  1.4160 -0.0299
   37MOL   H19724029   7.261   1.012   1.459 -0.5252 -2.4147 -1.2271
   37MOL   H19824030   7.141   0.917   1.536 -0.3286  0.3614  0.8908
   37MOL   H19924031   7.285   0.956   1.624 -1.4975 -0.6412 -0.2499
   37MOL   C20024032   6.730   1.909   1.827 -0.5866 -0.2978 -0.7358
   37MOL   C20124033   6.790   1.952   1.691  0.2773  0.4317 -0.4514
   37MOL   C20224034   6.765   2.108   1.667 -0.2369  0.1750  0.0929
   37MOL   C20324035   6.878   2.168   1.579 -0.1455  0.1700 -0.5788
   37MOL   C20424036   6.847   2.316   1.546  0.5130 -0.2041 -0.6196
   37MOL   C20524037   6.881   2.409   1.668 -0.4745 -0.9351  0.2138
   37MOL   C20624038   6.887   2.564   1.642 -1.1420  0.1103  0.7783
   37MOL   C20724039   6.891   2.644   1.779 -0.1036  0.6531 -0.1330
   37MOL   C20824040   6.886   2.793   1.749  0.0422 -0.0938  0.0891
   37MOL   C20924041   6.924   2.881   1.871 -0.0680 -0.1614 -0.7760
   37MOL   C21024042   6.901   3.028   1.840  0.7018 -0.2856  0.0136
   37MOL   H21124043   6.685   1.811   1.809 -2.2373  0.1522  0.7554
   37MOL   H21224044   6.649   1.978   1.851  0.4597  0.5251  0.5189
   37MOL   H21324045   6.897   1.937   1.699  0.1144 -0.7728 -0.4621
   37MOL   H21424046   6.759   2.170   1.757  1.6531 -2.1577  1.9113
   37MOL   H21524047   6.672   2.115   1.612 -0.5192 -0.5338  0.4680
   37MOL   H21624048   6.877   2.112   1.485 -1.6586 -2.0145  0.6967
   37MOL   H21724049   6.973   2.141   1.626 -0.9200 -0.7574  0.4612
   37MOL   H21824050   6.746   2.340   1.514  0.5224 -0.1026 -0.5743
   37MOL   H21924051   6.904   2.349   1.458 -0.5197 -0.5753 -1.4393
   37MOL   H22024052   6.798   2.400   1.737  0.4287  2.2585  1.8323
   37MOL   H22124053   6.967   2.389   1.731 -0.7573  1.9296  1.5847
   37MOL   H22224054   6.815   2.592   1.565  0.2055  0.0989 -0.5121
   37MOL   H22324055   6.984   2.578   1.593  0.1015 -1.1651  2.7994
   37MOL   H22424056   6.989   2.611   1.813 -0.9738 -0.7289  1.0967
   37MOL   H22524057   6.812   2.616   1.849 -0.8664  0.2500 -1.1413
   37MOL   H22624058   6.787   2.817   1.712 -0.0010 -0.2324  0.1149
   37MOL   H22724059   6.963   2.815   1.675  1.1757 -1.2400  0.9018
   37MOL   H22824060   6.865   2.852   1.958 -1.1196 -0.5897 -1.6201
   37MOL   H22924061   7.030   2.860   1.889 -0.3981  0.4843  2.2142
   37MOL   H23024062   6.795   3.051   1.850  0.9633  2.1296 -2.2550
   37MOL   H23124063   6.930   3.043   1.736 -0.9572  0.4708 -0.3502
   37MOL   H23224064   6.953   3.093   1.910  1.6944 -3.4631  2.3498
   37MOL   C23324065   6.735   1.876   1.565  0.4584 -0.5688 -0.1519
   37MOL   C23424066   6.775   1.726   1.552 -0.5997 -0.4232 -0.5482
   37MOL   C23524067   6.929   1.712   1.525 -0.6898 -0.0693 -0.3070
   37MOL   C23624068   6.978   1.790   1.399  0.5777  0.1547  0.1935
   37MOL   C23724069   7.128   1.760   1.376 -0.6061 -0.1695  0.8256
   37MOL   C23824070   7.160   1.616   1.326 -0.4880 -0.6639 -0.8362
   37MOL   C23924071   7.086   1.578   1.192  0.3438 -0.2667 -0.1209
   37MOL   C24024072   7.153   1.453   1.136  0.5291 -0.2281  0.0208
   37MOL   C24124073   7.080   1.330   1.206 -0.2511 -0.2487  0.6766
   37MOL   C24224074   7.156   1.198   1.204  0.1804  0.1305 -0.5513
   37MOL   C24324075   7.150   1.130   1.070 -0.1716 -0.6891  0.1664
   37MOL   H24424076   6.776   1.933   1.482  4.0888  2.0339  3.2090
   37MOL   H24524077   6.628   1.896   1.566  0.9062  1.9892  1.4111
   37MOL   H24624078   6.744   1.687   1.649  1.1516  1.9042  1.0164
   37MOL   H24724079   6.988   1.764   1.600 -0.7524  0.9905 -0.9774
   37MOL   H24824080   6.955   1.607   1.525  1.8494  0.5287 -1.8665
   37MOL   H24924081   6.976   1.898   1.411 -1.4018  0.1414  0.2055
   37MOL   H25024082   6.925   1.763   1.307 -0.1420  0.1323  0.6144
   37MOL   H25124083   7.170   1.771   1.475  0.9844 -0.7032  0.2242
   37MOL   H25224084   7.179   1.833   1.313 -1.3126 -0.7460 -0.4494
   37MOL   H25324085   7.127   1.546   1.403 -2.8415  0.7987 -0.4647
   37MOL   H25424086   7.265   1.588   1.315 -0.0252 -0.7359  3.0643
   37MOL   H25524087   6.978   1.563   1.203  0.0852  0.4301 -1.6254
   37MOL   H25624088   7.108   1.664   1.129  0.6845  0.0259  0.3952
   37MOL   H25724089   7.144   1.438   1.029  0.6801 -1.7926  0.2135
   37MOL   H25824090   7.258   1.442   1.161 -0.3709 -2.1799  3.2868
   37MOL   H25924091   7.060   1.360   1.309  0.1950  1.3477  0.3131
   37MOL   H26024092   6.981   1.324   1.162 -1.1408  0.3163  2.5839
   37MOL   H26124093   7.106   1.132   1.275  0.0676  0.0536 -0.7010
   37MOL   H26224094   7.263   1.206   1.225  0.0702  0.8523 -0.2843
   37MOL   H26324095   7.232   1.063   1.044  0.5130 -0.0546  0.6491
   37MOL   H26424096   7.172   1.209   0.998 -1.0014 -0.1183  0.5297
   37MOL   H26524097   7.053   1.086   1.050  0.8294 -2.6033 -0.6006
   37MOL   C26624098   6.691   1.679   1.434  0.3748 -0.1611 -0.6076
   37MOL   C26724099   6.678   1.527   1.406  0.7281 -0.5593 -1.1717
   37MOL   C26824100   6.675   1.488   1.250 -0.0376  0.4916  0.4151
   37MOL   C26924101   6.558   1.549   1.174 -0.2108 -0.2177 -0.1726
   37MOL   C27024102   6.547   1.493   1.034 -0.4663  0.1087 -0.5531
   37MOL   C27124103   6.443   1.556   0.940 -0.0187  0.3605 -0.8618
   37MOL   C27224104   6.448   1.509   0.792 -0.3375  0.0293 -0.0872
   37MOL   C27324105   6.440   1.357   0.782  0.0443  0.7574  0.1816
   37MOL   C27424106   6.480   1.306   0.645 -0.3736  0.7520  0.0123
   37MOL   C27524107   6.483   1.158   0.630 -0.1509  0.2904  0.0879
   37MOL   C27624108   6.344   1.094   0.622  0.0649  0.4362  0.1250
   37MOL   H27724109   6.731   1.725   1.344 -0.6878 -2.0810 -2.0726
   37MOL   H27824110   6.590   1.717   1.450  0.7111 -0.3569  2.3226
   37MOL   H27924111   6.768   1.480   1.447  0.0479  0.1236  1.1740
   37MOL   H28024112   6.769   1.525   1.209 -0.9628  2.2369 -0.2094
   37MOL   H28124113   6.672   1.380   1.238  1.1604  0.5102 -0.1863
   37MOL   H28224114   6.602   1.649   1.173  0.3446 -0.4427  0.6482
   37MOL   H28324115   6.467   1.562   1.232 -0.0282  1.7834 -0.2978
   37MOL   H28424116   6.528   1.386   1.047 -1.4252  0.2920 -0.4137
   37MOL   H28524117   6.645   1.481   0.987 -0.0332  0.3275  0.2699
   37MOL   H28624118   6.465   1.663   0.947 -0.0979  0.2829  0.8822
   37MOL   H28724119   6.344   1.540   0.983  0.7794  1.3581  1.4535
   37MOL   H28824120   6.368   1.552   0.732 -1.2291 -0.7979  0.4926
   37MOL   H28924121   6.537   1.549   0.744  0.7934 -1.3930  0.8121
   37MOL   H29024122   6.346   1.308   0.805 -0.6268  2.1335  0.4681
   37MOL   H29124123   6.512   1.318   0.854 -0.0291  0.9021  0.3334
   37MOL   H29224124   6.397   1.349   0.588 -0.1516  2.5160  0.9830
   37MOL   H29324125   6.572   1.352   0.609  0.5515 -0.4101  0.8950
   37MOL   H29424126   6.544   1.116   0.710 -3.2078 -0.3900  2.1970
   37MOL   H29524127   6.529   1.137   0.534 -2.1250  0.6467 -0.9762
   37MOL   H29624128   6.288   1.126   0.710  0.5025  2.0464 -0.1527
   37MOL   H29724129   6.341   0.986   0.634  0.1898  0.2175 -1.6334
   37MOL   H29824130   6.292   1.130   0.533 -0.3126  0.3200  0.2990
   37MOL   C29924131   6.556   1.465   1.476 -0.1114 -0.0941 -0.6265
   37MOL   C30024132   6.560   1.440   1.633 -0.0036  0.2150 -0.5210
   37MOL   C30124133   6.671   1.331   1.683  0.5863 -0.0057 -0.0413
   37MOL   C30224134   6.661   1.192   1.619  0.8583 -0.2032  0.8491
   37MOL   C30324135   6.789   1.109   1.653  0.4100 -0.2727  0.4355
   37MOL   C30424136   6.758   0.962   1.640  0.1411 -0.2223 -0.4313
   37MOL   C30524137   6.748   0.923   1.493  0.4034 -0.1006  0.2611
   37MOL   C30624138   6.722   0.772   1.480  0.9971 -0.0150  0.5245
   37MOL   C30724139   6.838   0.678   1.516 -0.3875  0.6185 -0.7618
   37MOL   C30824140   6.803   0.527   1.523 -0.0898 -0.1367  0.5463
   37MOL   C30924141   6.921   0.430   1.561  0.0754 -0.1615  0.8672
   37MOL   H31024142   6.547   1.371   1.422  2.8934 -0.3931 -0.6571
   37MOL   H31124143   6.474   1.527   1.439  1.2565  1.4057 -1.1590
   37MOL   H31224144   6.583   1.534   1.685 -4.0180 -0.5491  2.9179
   37MOL   H31324145   6.768   1.380   1.681 -0.2163  1.7730  2.7137
   37MOL   H31424146   6.664   1.318   1.791 -0.2116  0.8298  0.0174
   37MOL   H31524147   6.578   1.128   1.649  2.6954 -3.0648  0.0487
   37MOL   H31624148   6.658   1.201   1.510 -1.9536 -1.8996  0.7353
   37MOL   H31724149   6.871   1.154   1.597  0.3250  1.7004  1.8508
   37MOL   H31824150   6.810   1.128   1.758  0.0981 -0.8815  0.6106
   37MOL   H31924151   6.670   0.940   1.701  0.5929 -0.3507  0.1821
   37MOL   H32024152   6.831   0.905   1.697  1.6620 -0.2622 -2.3928
   37MOL   H32124153   6.673   0.987   1.448 -1.9965 -1.4890  2.1306
   37MOL   H32224154   6.844   0.953   1.452  0.4817  1.4260  1.5088
   37MOL   H32324155   6.687   0.750   1.379  2.4447  2.7509 -0.6435
   37MOL   H32424156   6.639   0.746   1.546  0.4612 -0.5447 -0.3566
   37MOL   H32524157   6.878   0.720   1.608 -0.2607 -3.0521  0.9074
   37MOL   H32624158   6.918   0.691   1.442 -0.4764 -2.4563 -1.4374
   37MOL   H32724159   6.776   0.486   1.426  1.0286 -0.1460  0.2362
   37MOL   H32824160   6.718   0.510   1.589 -1.0402  0.9854 -0.3566
   37MOL   H32924161   7.009   0.447   1.500 -0.3959 -2.1440 -0.4000
   37MOL   H33024162   6.952   0.438   1.665  0.6908  1.4468  0.5698
   37MOL   H33124163   6.895   0.328   1.535  1.0396 -0.7951  2.3427
   37MOL   C33224164   6.426   1.405   1.688 -0.1075  0.1203  0.1251
   37MOL   C33324165   6.314   1.495   1.666 -0.5087 -0.1632 -0.4421
   37MOL   C33424166   6.287   1.588   1.791  0.1850 -0.1386 -0.1988
   37MOL   C33524167   6.402   1.689   1.829  0.1789  0.3476  0.5187
   37MOL   C33624168   6.362   1.777   1.957 -1.2698 -0.8855 -0.4267
   37MOL   C33724169   6.419   1.731   2.094 -0.1025  0.5836 -0.1419
   37MOL   C33824170   6.399   1.840   2.198  0.3968 -0.7222  0.0098
   37MOL   C33924171   6.459   1.812   2.335 -0.0264  0.8636 -0.7407
   37MOL   C34024172   6.415   1.895   2.458 -0.3842  0.5274 -0.4541
   37MOL   C34124173   6.444   1.841   2.601  0.6085  0.1480  0.0965
   37MOL   C34224174   6.383   1.944   2.705 -0.1929  0.5317 -0.0980
   37MOL   H34324175   6.410   1.315   1.629  0.2467  1.0945 -1.4863
   37MOL   H34424176   6.427   1.377   1.793  1.1346 -1.1284 -0.2012
   37MOL   H34524177   6.328   1.555   1.576 -2.6833  0.3081 -0.5073
   37MOL   H34624178   6.255   1.527   1.876 -0.3340 -0.2935 -0.4996
   37MOL   H34724179   6.207   1.662   1.780  1.3018  1.0416 -0.5457
   37MOL   H34824180   6.488   1.626   1.852 -1.2649 -1.6589  0.5945
   37MOL   H34924181   6.427   1.752   1.744  0.1293  0.0202  0.2607
   37MOL   H35024182   6.393   1.881   1.950 -3.5646 -0.0195  1.4140
   37MOL   H35124183   6.256   1.801   1.969 -1.6074 -1.4855 -1.9909
   37MOL   H35224184   6.521   1.695   2.083 -0.7021 -0.7540 -1.5906
   37MOL   H35324185   6.361   1.644   2.124 -0.1446  1.1929  1.5952
   37MOL   H35424186   6.292   1.847   2.220  0.5404 -2.1940  1.2701
   37MOL   H35524187   6.434   1.936   2.160  1.0054 -0.2523  1.6904
   37MOL   H35624188   6.434   1.708   2.355  1.0572  0.8970  0.9319
   37MOL   H35724189   6.567   1.825   2.326  0.1644  0.3198  0.7173
   37MOL   H35824190   6.308   1.913   2.457 -0.3064  1.1918  1.2284
   37MOL   H35924191   6.456   1.996   2.449  1.5820 -0.0581  1.4378
   37MOL   H36024192   6.551   1.851   2.621  0.5080  1.9080 -0.1770
   37MOL   H36124193   6.400   1.742   2.613 -0.6633  0.5136 -1.3516
   37MOL   H36224194   6.425   2.044   2.703 -2.1210  1.3576 -0.1925
   37MOL   H36324195   6.275   1.938   2.696 -0.0931  1.7773 -2.2041
   37MOL   H36424196   6.409   1.911   2.806 -0.2814  2.3667  0.5334
   37MOL   C36524197   6.182   1.420   1.636  0.6080 -0.2580 -0.3727
   37MOL   C36624198   6.076   1.527   1.570  0.5045  0.1394 -0.4492
   37MOL   C36724199   6.089   1.546   1.415 -0.0850 -0.4681 -0.7500
   37MOL   C36824200   6.061   1.415   1.338  0.6593 -0.3527  0.3767
   37MOL   C36924201   6.098   1.422   1.185  0.2544  0.0749 -0.5777
   37MOL   C37024202   6.002   1.504   1.098  0.2409 -0.2463 -0.1724
   37MOL   C37124203   5.862   1.458   1.078 -0.8186  0.0912 -0.4641
   37MOL   C37224204   5.783   1.523   0.964  0.1144 -0.2924  0.3158
   37MOL   C37324205   5.750   1.669   0.991 -0.5777  0.6674  0.6275
   37MOL   C37424206   5.659   1.715   0.880 -0.5240  1.0271  0.6864
   37MOL   C37524207   5.621   1.863   0.884 -0.5589  0.3578 -0.0497
   37MOL   H37624208   6.191   1.323   1.586 -0.9200  0.7962 -2.8025
   37MOL   H37724209   6.144   1.383   1.731  1.4107  0.3726  0.1960
   37MOL   H37824210   6.090   1.625   1.615  0.5890 -0.5561  1.0762
   37MOL   H37924211   6.191   1.575   1.391 -0.0979 -0.1593 -0.4410
   37MOL   H38024212   6.033   1.631   1.376  0.5315  0.2561 -0.0693
   37MOL   H38124213   5.954   1.396   1.344  0.4961  0.2515 -0.5354
   37MOL   H38224214   6.120   1.331   1.376  0.0966  0.4842  3.2256
   37MOL   H38324215   6.089   1.317   1.157 -0.5470 -0.4990  1.7081
   37MOL   H38424216   6.203   1.450   1.174  0.0015  1.0002 -0.7080
   37MOL   H38524217   6.055   1.507   1.003  0.1378 -0.6033 -0.2427
   37MOL   H38624218   6.001   1.605   1.138  0.8878 -0.1131 -0.4860
   37MOL   H38724219   5.871   1.354   1.044 -1.6527 -0.3207  0.5238
   37MOL   H38824220   5.812   1.457   1.175 -1.0605  0.8843 -0.5839
   37MOL   H38924221   5.692   1.464   0.954  0.0589 -0.3332  1.0027
   37MOL   H39024222   5.837   1.514   0.870 -0.5965 -0.4291 -0.0815
   37MOL   H39124223   5.705   1.675   1.090 -1.0669  0.1051  0.4378
   37MOL   H39224224   5.846   1.720   0.979 -1.0571  1.4802  0.1831
   37MOL   H39324225   5.709   1.684   0.788  0.5542  0.8492  1.3147
   37MOL   H39424226   5.571   1.654   0.898  1.0544 -1.8069 -0.8477
   37MOL   H39524227   5.566   1.886   0.975  0.7697 -0.8728  1.0916
   37MOL   H39624228   5.561   1.890   0.797 -0.7424 -2.5271 -0.8832
   37MOL   H39724229   5.707   1.928   0.893  0.2869 -0.7799  0.2058
   37MOL   C39824230   5.926   1.475   1.610 -0.0056  0.3037  0.1307
   37MOL   C39924231   5.884   1.505   1.760  0.9123  0.5232  0.5670
   37MOL   C40024232   5.775   1.398   1.801 -0.9118  0.4165  0.1051
   37MOL   C40124233   5.836   1.251   1.803 -0.4234  0.1471 -0.7101
   37MOL   C40224234   5.763   1.171   1.911 -0.1125 -0.4076 -0.0523
   37MOL   C40324235   5.823   1.025   1.934  0.4321  0.3064 -0.1608
   37MOL   C40424236   5.804   0.937   1.804  0.5505  0.0145 -0.5064
   37MOL   C40524237   5.823   0.788   1.826  0.3790 -0.0872 -0.2149
   37MOL   C40624238   5.799   0.689   1.708 -0.4421 -0.6291 -0.0340
   37MOL   C40724239   5.762   0.548   1.766  0.2857  0.8953  0.8242
   37MOL   C40824240   5.730   0.450   1.648  0.5201  0.5342  0.2103
   37MOL   H40924241   5.920   1.370   1.583 -0.3231  0.2532  0.4016
   37MOL   H41024242   5.858   1.516   1.535  0.0759  0.6664  0.2567
   37MOL   H41124243   5.969   1.497   1.827  1.0059 -0.5576  0.3276
   37MOL   H41224244   5.687   1.410   1.738 -1.1252  1.3053  0.5732
   37MOL   H41324245   5.740   1.403   1.904  2.0340  1.4414  1.1118
   37MOL   H41424246   5.832   1.210   1.702  0.6248 -0.1746 -0.6224
   37MOL   H41524247   5.940   1.260   1.836 -1.3131  2.0040  1.7718
   37MOL   H41624248   5.768   1.224   2.006 -0.9351 -0.6310  0.1232
   37MOL   H41724249   5.659   1.159   1.881  0.0605 -1.9394 -0.1092
   37MOL   H41824250   5.784   0.981   2.025 -0.1938  1.1934  0.0023
   37MOL   H41924251   5.932   1.034   1.943  0.4419 -1.2841  1.6046
   37MOL   H42024252   5.700   0.964   1.785  0.7470  0.9441 -0.3117
   37MOL   H42124253   5.858   0.976   1.717  0.8427  2.1610  0.6151
   37MOL   H42224254   5.756   0.755   1.905  0.3131 -2.2136 -1.1200
   37MOL   H42324255   5.920   0.766   1.870  0.1404  2.2326  1.5219
   37MOL   H42424256   5.721   0.728   1.643  1.3582 -0.4906 -2.1603
   37MOL   H42524257   5.875   0.695   1.631 -2.5946 -0.3831 -2.1922
   37MOL   H42624258   5.680   0.554   1.838 -0.5196  1.3987 -0.1236
   37MOL   H42724259   5.842   0.509   1.829  1.5885  1.5420 -0.3959
   37MOL   H42824260   5.697   0.353   1.684  0.5878  0.6936  0.7108
   37MOL   H42924261   5.826   0.435   1.599 -0.2331 -1.1573 -0.7698
   37MOL   H43024262   5.659   0.487   1.574 -1.4551 -1.6459  0.9674
   37MOL   C43124263   5.830   1.648   1.776 -0.0491  0.5682  0.3806
   37MOL   C43224264   5.779   1.685   1.919 -0.2441  0.0431  0.3063
   37MOL   C43324265   5.719   1.826   1.916 -0.3602  0.2673 -0.5263
   37MOL   C43424266   5.619   1.859   1.803 -0.3502 -0.1897  0.9880
   37MOL   C43524267   5.524   1.986   1.814 -0.0751  0.1086  0.3849
   37MOL   C43624268   5.585   2.124   1.780  0.1633 -0.0231 -0.1554
   37MOL   C43724269   5.645   2.137   1.645 -0.6808 -0.2447 -0.7495
   37MOL   C43824270   5.748   2.257   1.658 -0.1500  0.5463  0.0018
   37MOL   C43924271   5.830   2.273   1.522 -0.1730  0.0316 -0.7133
   37MOL   C44024272   5.910   2.407   1.509  0.1384  0.1438 -0.0445
   37MOL   C44124273   6.019   2.401   1.398  0.2963 -0.7260  0.0857
   37MOL   H44224274   5.743   1.645   1.710 -1.3606 -1.7023  2.1584
   37MOL   H44324275   5.909   1.719   1.752  1.6913 -0.9179  1.6393
   37MOL   H44424276   5.695   1.619   1.943 -0.2787 -0.4426 -1.1042
   37MOL   H44524277   5.670   1.843   2.012 -0.5549  0.3790 -0.6463
   37MOL   H44624278   5.796   1.902   1.899  0.3738 -0.5565 -0.8893
   37MOL   H44724279   5.551   1.774   1.801  1.6333 -1.8592  1.6677
   37MOL   H44824280   5.680   1.853   1.713  0.4459  0.5905  1.4591
   37MOL   H44924281   5.493   1.979   1.918 -1.2132  0.4033  0.0736
   37MOL   H45024282   5.439   1.968   1.749 -0.1552 -0.2058  0.5775
   37MOL   H45124283   5.664   2.133   1.855  0.4169 -0.6128 -0.3491
   37MOL   H45224284   5.504   2.197   1.784  0.3320  0.1964 -0.6828
   37MOL   H45324285   5.570   2.148   1.567 -3.0358 -2.6908  1.1183
   37MOL   H45424286   5.709   2.050   1.626 -1.7042 -1.4496  1.1809
   37MOL   H45524287   5.690   2.348   1.666 -1.3369 -0.2380  0.4930
   37MOL   H45624288   5.811   2.256   1.747  1.5222  0.4256 -1.1442
   37MOL   H45724289   5.762   2.256   1.438 -0.6962 -1.8671  0.0819
   37MOL   H45824290   5.906   2.196   1.517  0.5366  0.6541  0.2426
   37MOL   H45924291   5.965   2.407   1.603  1.1202 -0.7311 -0.6055
   37MOL   H46024292   5.847   2.496   1.502 -0.7044 -0.5857 -2.3073
   37MOL   H46124293   6.078   2.310   1.393  0.2160 -0.7459 -0.4757
   37MOL   H46224294   5.965   2.406   1.303  1.2129 -3.2039 -0.6007
   37MOL   H46324295   6.083   2.489   1.396  0.2123 -0.6738 -0.3979
   37MOL   C46424296   5.885   1.676   2.034 -0.2004  0.3017  0.1605
   37MOL   C46524297   5.841   1.681   2.180  0.5540  0.7008  0.1806
   37MOL   C46624298   5.747   1.567   2.224  0.3624 -0.2931  0.5469
   37MOL   C46724299   5.796   1.420   2.235 -0.1305 -0.2958 -0.2176
   37MOL   C46824300   5.694   1.309   2.267  0.0259 -0.0571 -0.3167
   37MOL   C46924301   5.756   1.173   2.297  0.7507 -0.5742  0.1356
   37MOL   C47024302   5.645   1.069   2.319  0.4330  0.7647 -0.2583
   37MOL   C47124303   5.577   1.092   2.456  0.6172  0.4082 -0.2776
   37MOL   C47224304   5.470   0.987   2.498 -0.3031  0.2277  0.6931
   37MOL   C47324305   5.414   1.014   2.642  0.2285 -0.3815  0.5360
   37MOL   C47424306   5.335   0.892   2.701  0.6551  0.5523  0.3118
   37MOL   H47524307   5.960   1.754   2.017 -0.1838  0.1018 -0.6969
   37MOL   H47624308   5.942   1.584   2.020 -2.3323 -0.9330 -0.6479
   37MOL   H47724309   5.797   1.780   2.192 -0.2076  0.5462 -1.2609
   37MOL   H47824310   5.670   1.562   2.147  1.5794 -0.2711 -0.6755
   37MOL   H47924311   5.697   1.597   2.316  1.1654 -0.5338  1.0617
   37MOL   H48024312   5.837   1.393   2.137  0.4056  1.0295 -0.3757
   37MOL   H48124313   5.873   1.409   2.312 -1.2930 -2.1627  0.7091
   37MOL   H48224314   5.617   1.306   2.190  0.7451 -0.2154 -1.0348
   37MOL   H48324315   5.638   1.345   2.354  0.4018 -1.1302  0.3789
   37MOL   H48424316   5.809   1.145   2.206 -1.7022  2.8119 -2.4965
   37MOL   H48524317   5.824   1.176   2.382  0.1052 -0.1462  0.6493
   37MOL   H48624318   5.577   1.066   2.234  2.5669 -3.8838 -2.0071
   37MOL   H48724319   5.698   0.974   2.310 -1.7693 -0.6388  1.0552
   37MOL   H48824320   5.651   1.079   2.535 -1.0072 -3.1339  0.7379
   37MOL   H48924321   5.528   1.188   2.472 -0.5461 -0.3571  0.8057
   37MOL   H49024322   5.387   0.993   2.428 -1.2744 -2.4374  1.5710
   37MOL   H49124323   5.507   0.885   2.502 -1.5935 -0.2622  0.1157
   37MOL   H49224324   5.487   1.056   2.712  1.2286  0.9503 -1.2551
   37MOL   H49324325   5.342   1.096   2.631  0.5997 -0.3263 -1.8408
   37MOL   H49424326   5.262   0.839   2.639 -1.9567  0.7717  3.0939
   37MOL   H49524327   5.279   0.928   2.787 -1.2968 -0.0746 -0.6732
   37MOL   H49624328   5.408   0.820   2.738  0.9929 -0.8099 -2.8270
   37MOL   C49724329   5.967   1.697   2.269  0.1238  0.3470 -0.0895
   37MOL   C49824330   5.957   1.725   2.416 -0.9771 -0.0691  0.6084
   37MOL   C49924331   5.922   1.875   2.441 -1.1345 -0.7290 -0.2479
   37MOL   C50024332   5.869   1.905   2.583  0.2725  0.5526  0.0732
   37MOL   C50124333   5.899   2.054   2.612 -0.5165  0.7767 -0.5647
   37MOL   C50224334   5.839   2.088   2.752 -0.0086  0.4492  0.1988
   37MOL   C50324335   5.835   2.240   2.784 -1.1398  0.7634 -0.6285
   37MOL   C50424336   5.980   2.295   2.789 -0.4583 -0.5139  0.3224
   37MOL   C50524337   5.988   2.433   2.858  0.4127  0.8403 -0.0384
   37MOL   C50624338   6.125   2.511   2.858 -0.6750  0.5785 -0.2137
   37MOL   C50724339   6.132   2.619   2.965  0.6820 -0.3295 -0.0854
   37MOL   H50824340   6.033   1.612   2.252 -0.4688 -0.2898  0.7604
   37MOL   H50924341   6.022   1.779   2.224 -0.2348  0.9361  0.5406
   37MOL   H51024342   5.870   1.674   2.458 -1.4287  0.7955  0.7570
   37MOL   H51124343   5.846   1.899   2.366 -0.3401  0.9705 -0.5206
   37MOL   H51224344   6.004   1.943   2.418 -0.3107 -1.1467  1.3973
   37MOL   H51324345   5.905   1.841   2.664 -1.9462 -1.3783 -0.4140
   37MOL   H51424346   5.765   1.875   2.577  0.1223  0.4271  2.6135
   37MOL   H51524347   6.007   2.042   2.623 -0.5782  0.7307  0.0225
   37MOL   H51624348   5.870   2.123   2.534  0.4994 -1.1813 -2.7343
   37MOL   H51724349   5.737   2.051   2.764 -0.8746  2.5804 -0.3617
   37MOL   H51824350   5.904   2.039   2.824 -1.6602 -2.9340 -0.5067
   37MOL   H51924351   5.775   2.297   2.712 -2.5505 -1.1304 -0.9838
   37MOL   H52024352   5.791   2.256   2.882  0.8195 -0.3846  0.4766
   37MOL   H52124353   6.018   2.301   2.688  1.7587  0.0160  1.1530
   37MOL   H52224354   6.047   2.222   2.835 -0.2629 -2.0406 -2.3134
   37MOL   H52324355   5.955   2.410   2.959  1.1428 -0.1587 -0.0150
   37MOL   H52424356   5.913   2.499   2.815 -0.5839  0.4527  1.0726
   37MOL   H52524357   6.130   2.557   2.760 -1.8196  1.6154  0.1988
   37MOL   H52624358   6.205   2.440   2.878 -0.6286 -0.0805 -2.5426
   37MOL   H52724359   6.107   2.572   3.061 -0.4998 -0.1155 -0.2835
   37MOL   H52824360   6.049   2.687   2.944  0.0050 -0.9678  0.4597
   37MOL   H52924361   6.231   2.664   2.971  0.3067  0.6295 -0.9774
   37MOL   C53024362   6.090   1.682   2.480 -1.0132 -0.1889  0.2230
   37MOL   C53124363   6.093   1.532   2.520 -0.8716 -0.5841  0.6850
   37MOL   C53224364   6.038   1.521   2.666 -1.4957  0.0577 -0.2077
   37MOL   C53324365   5.964   1.387   2.702  0.1431  0.1819  0.3030
   37MOL   C53424366   5.940   1.379   2.850  0.1469 -0.4287  0.0788
   37MOL   C53524367   6.072   1.340   2.921  0.4180  0.3664 -0.5740
   37MOL   C53624368   6.048   1.312   3.070 -0.7256 -0.0704 -0.2180
   37MOL   C53724369   6.166   1.343   3.159  0.4157  0.4913 -0.2279
   37MOL   C53824370   6.265   1.226   3.161  0.1860 -0.1834  0.1875
   37MOL   C53924371   6.393   1.252   3.240 -0.0913  0.4029  0.3749
   37MOL   C54024372   6.523   1.181   3.184  0.5482 -0.7162 -0.1056
   37MOL   H54124373   6.176   1.709   2.419 -0.4693 -0.2934  0.9407
   37MOL   H54224374   6.111   1.741   2.569  0.8933 -1.6212  0.7578
   37MOL   H54324375   6.030   1.484   2.445 -0.9174  2.0479 -1.0006
   37MOL   H54424376   5.970   1.605   2.680  0.7142  1.9104 -0.2911
   37MOL   H54524377   6.116   1.550   2.737 -1.4547 -1.0878  0.2215
   37MOL   H54624378   6.020   1.297   2.676  1.2586  0.5161  1.5439
   37MOL   H54724379   5.874   1.379   2.641  0.2315  0.5096  0.1304
   37MOL   H54824380   5.863   1.303   2.866  0.1853 -0.5747 -0.4218
   37MOL   H54924381   5.880   1.465   2.879  0.0853 -0.3030 -0.4123
   37MOL   H55024382   6.151   1.412   2.899 -1.0099  1.0466 -3.7928
   37MOL   H55124383   6.113   1.247   2.881 -1.7432 -1.0481  0.3940
   37MOL   H55224384   6.021   1.208   3.084 -0.4491 -0.0391  0.5828
   37MOL   H55324385   5.954   1.362   3.096 -1.2279  0.1399 -2.3381
   37MOL   H55424386   6.118   1.358   3.256  0.5779  0.9544 -0.2172
   37MOL   H55524387   6.222   1.431   3.127  1.5503 -0.4090 -0.7717
   37MOL   H55624388   6.309   1.210   3.063 -1.7490 -0.5832 -0.6471
   37MOL   H55724389   6.225   1.128   3.187 -1.6966  0.5086  0.0123
   37MOL   H55824390   6.375   1.216   3.341 -0.3021 -0.8087 -0.0858
   37MOL   H55924391   6.417   1.357   3.257 -2.6601  1.3686 -1.5651
   37MOL   H56024392   6.608   1.198   3.250  1.5296 -1.8822 -1.0598
   37MOL   H56124393   6.513   1.072   3.181 -0.1399 -0.6250 -1.9396
   37MOL   H56224394   6.539   1.212   3.081  0.0498  0.0963  0.0578
   37MOL   C56324395   6.227   1.460   2.497 -0.4719 -0.6724 -0.4146
   37MOL   C56424396   6.233   1.318   2.438 -0.0016  0.6048  0.5905
   37MOL   C56524397   6.361   1.243   2.487  0.0934  0.3820  0.7098
   37MOL   C56624398   6.356   1.174   2.625  0.3251  0.1001  0.0484
   37MOL   C56724399   6.474   1.080   2.668  0.0578 -0.4440  0.3781
   37MOL   C56824400   6.445   1.000   2.795  0.0538  0.3995  0.1827
   37MOL   C56924401   6.571   0.929   2.850  0.5436  0.7265 -0.7908
   37MOL   C57024402   6.519   0.812   2.932  0.1345  0.3934  0.1065
   37MOL   C57124403   6.550   0.668   2.870 -0.1150 -0.3832  0.3626
   37MOL   C57224404   6.524   0.555   2.974  0.3971  0.5936 -0.4609
   37MOL   C57324405   6.590   0.414   2.941 -0.5395 -0.5566 -0.4188
   37MOL   H57424406   6.275   1.447   2.594 -0.1376  0.5128 -0.4169
   37MOL   H57524407   6.289   1.526   2.436 -1.5145  2.0801  1.4250
   37MOL   H57624408   6.144   1.261   2.465  0.5337 -0.6280 -0.1816
   37MOL   H57724409   6.446   1.311   2.479  0.4561  0.0911  1.9798
   37MOL   H57824410   6.394   1.166   2.417 -1.7934  1.2505 -1.1723
   37MOL   H57924411   6.264   1.116   2.627 -1.9788  3.4267 -2.7326
   37MOL   H58024412   6.339   1.242   2.708  0.8835  2.4378 -1.7016
   37MOL   H58124413   6.573   1.124   2.678  0.5585 -1.7333  1.3176
   37MOL   H58224414   6.487   1.004   2.591 -0.1888  2.6218 -2.8078
   37MOL   H58324415   6.413   1.069   2.873 -0.4807  0.1310  0.2031
   37MOL   H58424416   6.370   0.924   2.774  2.9316 -2.4908  0.0235
   37MOL   H58524417   6.630   0.901   2.763  2.0697 -0.3560  0.5582
   37MOL   H58624418   6.647   0.989   2.901  0.2589  1.8538 -1.6736
   37MOL   H58724419   6.413   0.814   2.956 -0.0724 -0.1968 -0.7347
   37MOL   H58824420   6.560   0.819   3.032 -0.8665  1.2482  0.4591
   37MOL   H58924421   6.655   0.654   2.845 -0.5745 -3.7443  0.0416
   37MOL   H59024422   6.503   0.667   2.771 -0.2402  0.8439  0.4072
   37MOL   H59124423   6.416   0.546   2.981  0.1660  1.2569 -2.5597
   37MOL   H59224424   6.559   0.588   3.072 -0.6602  1.9636 -0.5343
   37MOL   H59324425   6.556   0.381   2.843  1.6909  3.0113 -2.5246
   37MOL   H59424426   6.699   0.419   2.938 -0.5397  0.5997  1.0832
   37MOL   H59524427   6.553   0.344   3.015  0.7512  0.3602  1.1238
   37MOL   C59624428   6.209   1.332   2.281  0.0142  0.4121  0.3399
   37MOL   C59724429   6.211   1.194   2.212 -0.1008  0.2240  0.0903
   37MOL   C59824430   6.205   1.210   2.052 -0.2252  0.1556 -0.0564
   37MOL   C59924431   6.259   1.091   1.978 -0.0495  0.2263  0.5509
   37MOL   C60024432   6.212   1.090   1.839  0.6450  0.4372  0.5942
   37MOL   C60124433   6.242   0.961   1.773  0.2505  0.5319  0.3767
   37MOL   C60224434   6.184   0.959   1.630 -0.0312  0.0833  0.0608
   37MOL   C60324435   6.158   0.812   1.584 -0.1085  0.2599 -0.3662
   37MOL   C60424436   6.284   0.736   1.553  0.0749  0.2916  0.0208
   37MOL   C60524437   6.283   0.591   1.515  0.1067  0.2119  0.3284
   37MOL   C60624438   6.418   0.524   1.504 -0.0770 -0.0468  0.2525
   37MOL   H60724439   6.115   1.386   2.267  0.7253  1.1485 -1.8696
   37MOL   H60824440   6.272   1.401   2.224 -1.8224  0.1335 -2.0861
   37MOL   H60924441   6.316   1.169   2.226  0.1858  2.9279  3.3142
   37MOL   H61024442   6.265   1.291   2.011 -0.6591  0.0044 -1.0066
   37MOL   H61124443   6.098   1.227   2.036 -0.2594  0.8639  0.8390
   37MOL   H61224444   6.223   1.003   2.032 -0.0922 -0.3619 -0.4261
   37MOL   H61324445   6.365   1.077   1.996 -0.1452  0.2540  1.1738
   37MOL   H61424446   6.268   1.158   1.775  2.0850 -0.3559  0.9820
   37MOL   H61524447   6.105   1.106   1.828  0.3978 -1.3816  0.2274
   37MOL   H61624448   6.350   0.944   1.769 -0.0142 -1.0496 -0.5109
   37MOL   H61724449   6.196   0.878   1.827 -1.3626  0.9490 -0.3219
   37MOL   H61824450   6.251   1.004   1.558  0.2574  0.2866  0.4552
   37MOL   H61924451   6.085   1.002   1.619  1.1890  2.4048 -2.3246
   37MOL   H62024452   6.089   0.810   1.500 -2.1604  1.5574  1.2201
   37MOL   H62124453   6.098   0.770   1.666  1.2259  1.1331  1.0890
   37MOL   H62224454   6.341   0.783   1.472  1.3137  2.1559  1.9243
   37MOL   H62324455   6.353   0.745   1.637 -0.9291  1.5582  0.7318
   37MOL   H62424456   6.225   0.591   1.423  2.8942  1.7502 -1.4802
   37MOL   H62524457   6.233   0.529   1.589  2.5209  0.7554  2.4716
   37MOL   H62624458   6.477   0.522   1.596 -2.6677  0.1134  1.9764
   37MOL   H62724459   6.402   0.426   1.460  0.2007 -0.3612  0.8488
   37MOL   H62824460   6.472   0.579   1.427  1.4463 -0.4626  1.0190
   37MOL   C62924461   6.114   1.087   2.258  0.4310  0.1859  0.3527
   37MOL   C63024462   6.163   0.970   2.337  0.1884  0.5497 -0.4763
   37MOL   C63124463   6.063   0.895   2.420  0.6826 -0.2643  0.4596
   37MOL   C63224464   5.951   0.812   2.346 -0.2781  0.4249  0.4312
   37MOL   C63324465   5.847   0.755   2.455 -0.5055  0.3656  0.3546
   37MOL   C63424466   5.793   0.622   2.407  0.1403  0.6023 -0.2404
   37MOL   C63524467   5.892   0.501   2.441  0.5441 -0.8536 -0.5727
   37MOL   C63624468   5.842   0.356   2.433 -0.3051  0.5132  0.0222
   37MOL   C63724469   5.763   0.314   2.301  0.7043 -0.9135  0.0336
   37MOL   C63824470   5.849   0.323   2.181  0.0770 -0.1376  0.3302
   37MOL   C63924471   5.764   0.281   2.060  0.4676  0.2831 -0.1166
   37MOL   H64024472   6.033   1.136   2.313 -0.5286 -0.0660 -0.8109
   37MOL   H64124473   6.061   1.046   2.172  1.9946  1.9478 -1.5019
   37MOL   H64224474   6.209   0.892   2.277 -1.2851 -2.1013  1.6740
   37MOL   H64324475   6.126   0.831   2.482  1.1585  0.9634  1.2542
   37MOL   H64424476   6.008   0.973   2.471 -0.9763 -1.3812  0.4226
   37MOL   H64524477   5.990   0.726   2.292 -0.0200  1.6623 -1.3976
   37MOL   H64624478   5.904   0.890   2.286 -0.1278  0.3597  0.2288
   37MOL   H64724479   5.764   0.825   2.445 -0.2750  0.6964  0.7768
   37MOL   H64824480   5.868   0.750   2.562  1.6464  2.6477  0.0756
   37MOL   H64924481   5.771   0.613   2.301 -2.5026 -3.0021  0.5382
   37MOL   H65024482   5.700   0.601   2.459 -0.2037 -0.9402 -1.4584
   37MOL   H65124483   5.945   0.513   2.535  0.2242 -2.6860 -0.1257
   37MOL   H65224484   5.970   0.497   2.365  0.7632 -0.0376 -0.3914
   37MOL   H65324485   5.774   0.348   2.517 -1.8373 -0.0180 -1.2429
   37MOL   H65424486   5.929   0.290   2.439 -1.0929 -0.5820 -0.3642
   37MOL   H65524487   5.681   0.385   2.291  1.4597  0.0283  0.5416
   37MOL   H65624488   5.723   0.212   2.303 -2.5876  0.2660 -1.5032
   37MOL   H65724489   5.946   0.274   2.175  0.3482  0.2683  1.2485
   37MOL   H65824490   5.867   0.430   2.166 -0.9230  0.0521  0.4368
   37MOL   H65924491   5.671   0.337   2.058 -0.6511 -1.5337 -0.5555
   37MOL   H66024492   5.750   0.173   2.066  1.1995  0.1656 -0.4192
   37MOL   H66124493   5.817   0.301   1.967  0.1801 -1.0083 -0.5751
   37MOL   H66224494   6.243   1.005   2.401 -0.6432  1.8192 -0.1126
   38MOL     C124495   0.092   3.766   3.131  0.3059 -0.5901  0.7855
   38MOL     C224496   7.687   3.694   3.064  0.8961  0.3517  1.1102
   38MOL     C324497   7.553   3.779   3.070  0.1937 -0.3454 -0.7854
   38MOL     C424498   7.505   3.832   3.208 -0.1734 -0.5637  0.2558
   38MOL     C524499   7.375   3.909   3.199  0.3592  0.2452 -0.5370
   38MOL     C624500   7.352   3.999   3.329  0.6106 -0.3753  0.5498
   38MOL     C724501   7.217   4.074   3.338  0.3573  0.6597 -0.1160
   38MOL     C824502   7.182   4.171   3.224  0.9639  0.7984 -0.2553
   38MOL     C924503   7.034   4.207   3.232 -0.6156  0.3330  0.0783
   38MOL    C1024504   7.006   4.315   3.122 -0.2228 -0.4434  0.2117
   38MOL    C1124505   6.853   4.342   3.097 -0.0187  0.0083 -0.2726
   38MOL    H1224506   0.185   3.711   3.121  0.4631 -0.0520 -0.8814
   38MOL    H1324507   0.070   3.783   3.236 -1.7945 -0.0136  0.2730
   38MOL    H1424508   7.667   3.604   3.123 -3.3696 -0.5856 -1.5595
   38MOL    H1524509   7.474   3.714   3.032 -0.3191  0.0667 -0.4445
   38MOL    H1624510   7.552   3.860   2.997  0.1573  0.5691  0.2176
   38MOL    H1724511   7.577   3.909   3.239  1.4956 -2.5236  1.3829
   38MOL    H1824512   7.500   3.754   3.284  1.5109 -3.2056 -2.2826
   38MOL    H1924513   7.360   3.974   3.114 -0.9803  0.1483 -0.3843
   38MOL    H2024514   7.300   3.830   3.191  2.2817 -1.5091 -1.7316
   38MOL    H2124515   7.438   4.065   3.329  0.0353  0.4720 -2.9941
   38MOL    H2224516   7.366   3.934   3.415  1.4902  0.3873  0.9879
   38MOL    H2324517   7.151   3.988   3.322  1.3673 -0.1838  0.2232
   38MOL    H2424518   7.201   4.120   3.435  0.7455 -0.6326  0.5722
   38MOL    H2524519   7.187   4.127   3.124  1.6928 -1.5252  0.7807
   38MOL    H2624520   7.246   4.259   3.225 -2.9208  3.7638  0.0229
   38MOL    H2724521   7.003   4.232   3.334 -0.5032 -0.5661  0.3424
   38MOL    H2824522   6.980   4.117   3.204  1.8120 -0.8862 -0.7543
   38MOL    H2924523   7.059   4.281   3.034 -0.4883 -0.6489  0.1309
   38MOL    H3024524   7.055   4.406   3.158  2.8423 -1.6753 -0.7656
   38MOL    H3124525   6.839   4.401   3.007 -1.0748 -0.8741 -0.6956
   38MOL    H3224526   6.795   4.255   3.066  1.1510 -0.7186 -0.4877
   38MOL    H3324527   6.811   4.381   3.189  1.8452 -1.3680  1.1956
   38MOL    H3424528   0.097   3.861   3.076  0.0874 -1.9426 -1.6350
   38MOL    C3524529   0.009   3.646   2.923 -0.8048 -0.0270  0.2034
   38MOL    C3624530   0.068   3.503   2.904 -0.1761 -0.0903 -0.2239
   38MOL    C3724531   7.654   3.402   2.920 -0.1630 -0.0638  0.4910
   38MOL    C3824532   0.006   3.258   2.951  0.1883  1.2858 -0.0756
   38MOL    C3924533   7.589   3.169   2.997  0.3610  0.4745  0.1760
   38MOL    C4024534   7.639   3.034   3.049 -0.5846  0.3945 -0.3940
   38MOL    C4124535   7.533   2.973   3.135  0.5161  1.0827 -0.4387
   38MOL    C4224536   7.581   2.846   3.211 -0.1006 -0.1951 -0.3162
   38MOL    C4324537   7.513   2.843   3.350  0.0887 -0.7595 -0.9285
   38MOL    C4424538   7.563   2.719   3.430 -0.2393  0.3298  0.0215
   38MOL    C4524539   7.486   2.699   3.563 -0.0148 -0.2828 -0.8951
   38MOL    H4624540   0.076   3.720   2.880 -1.7821 -0.2996 -1.8269
   38MOL    H4724541   7.623   3.649   2.862 -2.2486  1.4194  2.3056
   38MOL    H4824542   0.123   3.486   2.997  0.0449  1.9848  0.0311
   38MOL    H4924543   7.585   3.433   2.997 -1.1007 -1.4923  0.2437
   38MOL    H5024544   7.595   3.408   2.829  0.0630  2.3451  0.4834
   38MOL    H5124545   0.088   3.249   3.023 -0.4871 -1.1842  0.4143
   38MOL    H5224546   0.050   3.215   2.861  0.8530  1.1747  0.2996
   38MOL    H5324547   7.523   3.148   2.913 -0.4770 -2.7383  1.5403
   38MOL    H5424548   7.538   3.224   3.075  0.8451 -0.1155  0.9118
   38MOL    H5524549   0.033   3.045   3.097 -0.1423  1.8495 -1.5585
   38MOL    H5624550   7.653   2.970   2.962  0.0071 -1.0734  0.7726
   38MOL    H5724551   7.484   3.055   3.188 -0.9255 -0.8302  1.2895
   38MOL    H5824552   7.446   2.939   3.079  1.2658  0.5906 -1.3137
   38MOL    H5924553   7.689   2.849   3.228  0.1132 -3.4313 -0.9347
   38MOL    H6024554   7.565   2.759   3.149 -3.0136  0.4609 -0.5283
   38MOL    H6124555   7.405   2.832   3.347  0.2248 -2.4560 -0.1201
   38MOL    H6224556   7.540   2.934   3.403  1.5738  0.0839 -3.0799
   38MOL    H6324557   7.553   2.627   3.373 -0.9471  0.1677  0.4065
   38MOL    H6424558   7.670   2.728   3.448 -0.0417 -2.5553  0.4810
   38MOL    H6524559   7.379   2.706   3.544 -0.1683  0.0669  0.0879
   38MOL    H6624560   7.514   2.605   3.612 -0.8671  0.1086  0.3323
   38MOL    H6724561   7.481   2.787   3.627 -0.6885  0.1287 -1.5138
   38MOL    C6824562   0.152   3.476   2.774 -0.3936  0.6745 -0.4198
   38MOL    C6924563   0.294   3.531   2.780  0.8600 -0.3649 -0.0672
   38MOL    C7024564   0.375   3.489   2.891 -0.1316  0.7890 -0.6232
   38MOL    C7124565   0.413   3.333   2.878 -0.4819 -0.2450  0.1223
   38MOL    C7224566   0.485   3.297   3.005 -0.1692  0.5698 -0.6550
   38MOL    C7324567   0.530   3.148   3.003  0.4819 -0.1074  0.3292
   38MOL    C7424568   0.592   3.100   3.135  0.1126 -0.1799  0.2555
   38MOL    C7524569   0.651   2.954   3.120  0.3477  0.0610  0.7740
   38MOL    C7624570   0.718   2.895   3.243 -0.2718 -0.2360 -0.6416
   38MOL    C7724571   0.795   2.765   3.223 -0.2959 -0.0765  0.2602
   38MOL    C7824572   0.853   2.722   3.363  0.9137  0.3379  0.2387
   38MOL    H7924573   0.093   3.523   2.695  0.7651  2.3381 -0.3301
   38MOL    H8024574   0.151   3.372   2.741 -0.3874  0.9180 -1.1915
   38MOL    H8124575   0.274   3.635   2.806  1.4568 -0.2813  0.0622
   38MOL    H8224576   0.338   3.526   2.986 -0.2128  0.1845 -0.4172
   38MOL    H8324577   0.473   3.534   2.877  1.2260  0.1510  5.4468
   38MOL    H8424578   0.325   3.269   2.868 -0.8537  0.5518 -1.9174
   38MOL    H8524579   0.481   3.323   2.793  0.2502 -0.3116  0.7122
   38MOL    H8624580   0.430   3.325   3.095  2.0805  1.4449  0.4701
   38MOL    H8724581   0.572   3.362   3.011  1.2578 -1.4050  0.5789
   38MOL    H8824582   0.450   3.077   2.985  0.2707  0.5859 -1.5925
   38MOL    H8924583   0.607   3.127   2.929  0.2016  0.0468 -0.0043
   38MOL    H9024584   0.524   3.098   3.220  1.0973  0.0699  1.0533
   38MOL    H9124585   0.672   3.168   3.163 -0.6536 -0.2325  2.6220
   38MOL    H9224586   0.586   2.884   3.067  0.8833  0.1947 -0.0610
   38MOL    H9324587   0.732   2.973   3.050  0.5359 -1.6121  0.5086
   38MOL    H9424588   0.769   2.968   3.306  0.9847 -1.5016 -0.1835
   38MOL    H9524589   0.635   2.861   3.305 -1.1281  0.4317 -1.4156
   38MOL    H9624590   0.729   2.690   3.181 -0.6539  0.4388 -0.1113
   38MOL    H9724591   0.865   2.787   3.142  0.5602  1.0164  1.2682
   38MOL    H9824592   0.899   2.623   3.355 -0.3733 -0.1244 -1.8866
   38MOL    H9924593   0.781   2.720   3.445  0.9798  1.3792  0.3214
   38MOL   H10024594   0.921   2.801   3.395  0.2181  0.1800  2.1822
   38MOL   C10124595   0.365   3.537   2.639  0.1452  0.6103 -0.1623
   38MOL   C10224596   0.472   3.646   2.608  0.3131  0.3190 -0.9516
   38MOL   C10324597   0.426   3.791   2.605  0.3641  0.0767 -0.1107
   38MOL   C10424598   0.541   3.893   2.596 -0.3370 -0.1559 -0.3880
   38MOL   C10524599   0.493   4.035   2.643  0.0329  0.3489  0.1381
   38MOL   C10624600   0.593   4.147   2.606 -0.3899 -0.0754 -0.3118
   38MOL   C10724601   0.727   4.137   2.678  0.4659  0.0448  0.4283
   38MOL   C10824602   0.814   4.269   2.662 -0.6356 -0.5968  0.1240
   38MOL   C10924603   0.905   4.286   2.786  0.8594  0.0698 -0.0482
   38MOL   C11024604   0.985   4.412   2.773  0.2299  1.2543  0.2004
   38MOL   C11124605   1.030   4.472   2.905 -0.1740 -0.4139  0.6562
   38MOL   H11224606   0.412   3.442   2.616  0.9264  1.3416 -1.6660
   38MOL   H11324607   0.289   3.547   2.562 -2.1039 -2.3979  1.5445
   38MOL   H11424608   0.542   3.632   2.690 -1.5208 -1.2410  0.4064
   38MOL   H11524609   0.362   3.813   2.519 -0.8630  0.9126  0.9867
   38MOL   H11624610   0.377   3.813   2.700 -0.5415  4.6051 -1.5139
   38MOL   H11724611   0.627   3.854   2.651 -1.8482 -1.4474  1.1301
   38MOL   H11824612   0.574   3.904   2.493  0.0233  0.3592 -0.2177
   38MOL   H11924613   0.401   4.055   2.588 -1.0309 -1.0074  1.4182
   38MOL   H12024614   0.466   4.037   2.748  1.7904 -0.9823  0.6439
   38MOL   H12124615   0.615   4.127   2.501  1.7675  0.6498 -0.0278
   38MOL   H12224616   0.546   4.245   2.612  1.3231  0.8444 -1.6090
   38MOL   H12324617   0.786   4.051   2.646 -0.3594 -0.1170 -0.6745
   38MOL   H12424618   0.709   4.113   2.783 -3.6434 -0.3471 -0.2715
   38MOL   H12524619   0.867   4.290   2.569  0.5770  0.7275  1.0717
   38MOL   H12624620   0.742   4.351   2.656  1.5937  1.6009  2.1817
   38MOL   H12724621   0.845   4.281   2.876  2.5991  2.3470  1.2945
   38MOL   H12824622   0.966   4.196   2.776 -1.2303 -1.4119  0.0637
   38MOL   H12924623   0.912   4.482   2.733  0.6490  2.3931  1.4187
   38MOL   H13024624   1.073   4.400   2.709 -0.3016 -0.0545 -0.3048
   38MOL   H13124625   1.117   4.423   2.950 -0.5173 -0.8244  0.8789
   38MOL   H13224626   1.055   4.577   2.893  3.2135 -1.2296  0.1407
   38MOL   H13324627   0.941   4.470   2.968 -0.9543 -3.0954 -0.4393
   38MOL   C13424628   0.554   3.613   2.479  0.9420  0.2131  0.3233
   38MOL   C13524629   0.671   3.514   2.496  0.0310 -0.4949  0.3492
   38MOL   C13624630   0.780   3.586   2.570 -0.5882 -0.6712  0.3933
   38MOL   C13724631   0.902   3.510   2.637 -0.0557 -0.0465 -0.6958
   38MOL   C13824632   0.884   3.375   2.708 -0.6706 -0.3934  0.5742
   38MOL   C13924633   1.017   3.316   2.758 -0.3315 -0.2544  0.2707
   38MOL   C14024634   1.009   3.179   2.841  0.5810 -0.0400  0.3978
   38MOL   C14124635   0.923   3.188   2.977 -0.5671 -0.0384  0.1682
   38MOL   C14224636   1.003   3.266   3.082  0.6965  0.0889  0.4878
   38MOL   C14324637   0.920   3.338   3.192 -0.1367  0.5232  0.5595
   38MOL   C14424638   0.969   3.475   3.237  0.5450 -0.1537 -0.2433
   38MOL   H14524639   0.485   3.560   2.414  1.4952  0.9186 -0.8657
   38MOL   H14624640   0.581   3.701   2.419 -1.8072  0.5426 -0.5091
   38MOL   H14724641   0.639   3.434   2.562 -2.1600  0.5625  0.6050
   38MOL   H14824642   0.734   3.633   2.657 -4.7387  0.3547 -2.1798
   38MOL   H14924643   0.813   3.663   2.501 -2.1710  0.9755  1.4067
   38MOL   H15024644   0.976   3.503   2.557 -1.6641 -1.5574 -2.0800
   38MOL   H15124645   0.950   3.587   2.698  0.8985 -0.5806 -0.7543
   38MOL   H15224646   0.814   3.392   2.791  0.7013  2.7963  1.1663
   38MOL   H15324647   0.833   3.300   2.648 -2.1305  1.2057 -0.2236
   38MOL   H15424648   1.079   3.295   2.671  1.8987  2.4919  1.1065
   38MOL   H15524649   1.074   3.398   2.802 -0.6774  0.3979 -0.4746
   38MOL   H15624650   0.956   3.109   2.776  0.7998  0.3662 -0.2302
   38MOL   H15724651   1.102   3.126   2.859  0.6810  0.2873  0.8427
   38MOL   H15824652   0.835   3.248   2.960 -0.7999  0.3916  2.7122
   38MOL   H15924653   0.913   3.089   3.023  1.9904 -0.6010 -0.3700
   38MOL   H16024654   1.073   3.196   3.127 -0.8522 -0.8334  1.5090
   38MOL   H16124655   1.061   3.346   3.037 -0.1578  0.0382 -0.7257
   38MOL   H16224656   0.817   3.355   3.158  0.0967  1.4653  0.3135
   38MOL   H16324657   0.905   3.261   3.268 -0.9602  0.7106  0.5900
   38MOL   H16424658   0.986   3.546   3.156  0.5926 -1.4949 -1.4208
   38MOL   H16524659   1.064   3.465   3.290  0.4400 -0.3243 -0.0861
   38MOL   H16624660   0.889   3.517   3.299  0.3598 -3.0526  1.5898
   38MOL   C16724661   0.735   3.451   2.372  0.3069 -0.1754 -0.0420
   38MOL   C16824662   0.701   3.306   2.343  0.2771  1.2589  0.6121
   38MOL   C16924663   0.797   3.239   2.238 -0.7592 -0.1261  1.0001
   38MOL   C17024664   0.951   3.237   2.277  0.4855  0.2508 -0.2710
   38MOL   C17124665   0.990   3.148   2.407 -0.7213  1.4129  0.0575
   38MOL   C17224666   0.983   2.998   2.376 -0.4475 -0.6826  0.3704
   38MOL   C17324667   1.095   2.916   2.437 -0.1738  0.4573  0.2727
   38MOL   C17424668   1.237   2.922   2.365  0.0836 -0.4560 -0.9673
   38MOL   C17524669   1.334   2.825   2.433 -0.0039  0.3644  0.0502
   38MOL   C17624670   1.369   2.869   2.569  0.5390  0.8963  0.2382
   38MOL   C17724671   1.498   2.806   2.617  0.0551 -0.3624 -0.3682
   38MOL   H17824672   0.699   3.499   2.281 -0.3422 -1.7956 -0.6647
   38MOL   H17924673   0.844   3.455   2.382  0.5574 -2.6790 -1.4090
   38MOL   H18024674   0.720   3.244   2.431 -0.7374  2.4015  1.6584
   38MOL   H18124675   0.786   3.289   2.142 -0.1921  0.6127  1.3109
   38MOL   H18224676   0.757   3.141   2.213 -0.7533  0.8361 -3.0242
   38MOL   H18324677   1.015   3.211   2.192  0.2257  1.9582 -0.9964
   38MOL   H18424678   0.971   3.343   2.286 -2.4006  0.7005  1.2737
   38MOL   H18524679   0.920   3.169   2.489 -2.3495  1.9699 -1.4371
   38MOL   H18624680   1.087   3.163   2.455 -0.8708 -1.0090  1.1681
   38MOL   H18724681   0.889   2.957   2.415 -0.7158 -1.2433 -0.8401
   38MOL   H18824682   0.988   2.970   2.271 -0.9582  0.7803 -0.0623
   38MOL   H18924683   1.058   2.814   2.425 -1.6633  0.9381  0.6475
   38MOL   H19024684   1.094   2.927   2.545  0.6560 -2.1671  0.5651
   38MOL   H19124685   1.238   2.894   2.260 -0.8386  0.4283 -1.2217
   38MOL   H19224686   1.286   3.019   2.375  0.2169 -0.6205  0.0053
   38MOL   H19324687   1.419   2.823   2.365  1.0424  0.1212  1.3467
   38MOL   H19424688   1.295   2.723   2.429 -2.6028  1.3604 -1.2107
   38MOL   H19524689   1.279   2.840   2.625 -2.1381  1.9831 -3.3014
   38MOL   H19624690   1.367   2.977   2.580 -3.5575  0.8133  1.2586
   38MOL   H19724691   1.485   2.699   2.633  0.2421 -0.3512 -0.1421
   38MOL   H19824692   1.526   2.845   2.715  0.0056  0.3550 -0.6374
   38MOL   H19924693   1.574   2.818   2.539  0.2167  0.3282 -0.1023
   38MOL   C20024694   0.554   3.291   2.291  0.3795  0.7919 -0.2946
   38MOL   C20124695   0.487   3.171   2.361  0.8507  0.0696  0.4768
   38MOL   C20224696   0.356   3.136   2.285  0.1502 -0.0848  1.0359
   38MOL   C20324697   0.373   3.012   2.189 -0.6719  0.3413 -0.1892
   38MOL   C20424698   0.238   2.965   2.132 -0.1478  0.2506  0.0246
   38MOL   C20524699   0.262   2.839   2.045 -0.3445  0.1131  0.1521
   38MOL   C20624700   0.139   2.779   1.983  0.2991  0.3358  0.0750
   38MOL   C20724701   0.170   2.657   1.889 -0.1211 -0.2024  0.4123
   38MOL   C20824702   0.061   2.635   1.780  0.1145  0.8331  0.3364
   38MOL   C20924703   0.065   2.498   1.709 -0.9337 -0.2489 -0.5005
   38MOL   C21024704   0.036   2.380   1.805  0.8487  0.1899 -0.0698
   38MOL   H21124705   0.499   3.385   2.300  1.0130  1.0646  0.8524
   38MOL   H21224706   0.551   3.271   2.184  1.5558  0.0450 -0.1975
   38MOL   H21324707   0.545   3.083   2.334  0.6358  0.9809 -3.2076
   38MOL   H21424708   0.329   3.224   2.226  1.3350 -0.8456 -0.6880
   38MOL   H21524709   0.279   3.118   2.359 -1.1636  1.3141  0.0426
   38MOL   H21624710   0.426   2.927   2.234 -0.8241  0.7433  0.7664
   38MOL   H21724711   0.444   3.044   2.113 -0.8267  2.1322  0.3950
   38MOL   H21824712   0.194   3.056   2.092  0.2059  0.4805  0.1611
   38MOL   H21924713   0.174   2.927   2.212  0.2067 -1.1591 -0.3456
   38MOL   H22024714   0.330   2.858   1.962  0.1128 -1.8244  0.0698
   38MOL   H22124715   0.314   2.758   2.094  0.5780  1.2927  1.1384
   38MOL   H22224716   0.095   2.854   1.918 -2.0203 -0.6579  0.4600
   38MOL   H22324717   0.066   2.741   2.055 -0.6987  0.7604 -0.7008
   38MOL   H22424718   0.177   2.568   1.953 -1.1271 -0.1702  0.5771
   38MOL   H22524719   0.268   2.680   1.848 -0.2287 -0.8081 -0.1851
   38MOL   H22624720   0.067   2.710   1.701  0.5054  0.1279 -0.3106
   38MOL   H22724721   7.667   2.654   1.824 -0.1995 -2.0392  0.9242
   38MOL   H22824722   7.695   2.484   1.629 -1.8881  0.3232  0.2681
   38MOL   H22924723   0.166   2.494   1.668 -0.5372  0.7380  0.3673
   38MOL   H23024724   0.097   2.378   1.896  1.9582 -1.5413 -0.8250
   38MOL   H23124725   0.061   2.285   1.757 -0.5448  1.5327 -3.5842
   38MOL   H23224726   7.638   2.368   1.843  1.2859  1.4173  1.5509
   38MOL   C23324727   0.475   3.181   2.515  0.2120 -0.2668  0.0891
   38MOL   C23424728   0.485   3.047   2.595 -0.1374 -0.1848  0.2985
   38MOL   C23524729   0.620   2.983   2.578  0.4240 -0.5890 -0.4955
   38MOL   C23624730   0.657   2.895   2.690 -0.5866 -0.2195  0.6537
   38MOL   C23724731   0.802   2.837   2.681  0.0225 -0.7591 -0.5125
   38MOL   C23824732   0.852   2.746   2.798 -0.0137  0.1425  0.2974
   38MOL   C23924733   1.007   2.740   2.793  0.3097 -0.3530 -0.4445
   38MOL   C24024734   1.069   2.673   2.919 -0.8066 -0.3381  0.3397
   38MOL   C24124735   1.015   2.532   2.950  0.0992 -0.1116  0.9545
   38MOL   C24224736   1.055   2.415   2.857  0.1098  0.0003  0.1810
   38MOL   C24324737   1.002   2.277   2.891 -1.3517 -0.1718  0.5199
   38MOL   H24424738   0.388   3.241   2.539  1.2506  1.5439 -0.6020
   38MOL   H24524739   0.551   3.251   2.550 -0.0698 -0.2029  0.5701
   38MOL   H24624740   0.468   3.063   2.702  1.9848 -0.3124  0.6748
   38MOL   H24724741   0.640   2.917   2.494 -0.1678 -1.9768  0.4399
   38MOL   H24824742   0.688   3.068   2.585 -0.4239  0.0279  0.3484
   38MOL   H24924743   0.588   2.811   2.693 -0.6941 -0.1000  1.8775
   38MOL   H25024744   0.647   2.951   2.783 -0.4344 -3.0392  2.4286
   38MOL   H25124745   0.853   2.932   2.696  0.9873 -1.2409 -0.6960
   38MOL   H25224746   0.835   2.813   2.580 -1.8944  0.1246 -1.3744
   38MOL   H25324747   0.807   2.648   2.790  1.1737 -0.3477 -0.6545
   38MOL   H25424748   0.817   2.787   2.893 -0.2353 -1.2153  0.8101
   38MOL   H25524749   1.037   2.678   2.708  0.0389  0.8964 -1.4527
   38MOL   H25624750   1.057   2.835   2.778  0.8850 -0.9688 -2.5233
   38MOL   H25724751   1.175   2.665   2.897 -0.6347 -0.1411  1.0836
   38MOL   H25824752   1.060   2.739   3.005 -2.5307  0.2481 -0.2741
   38MOL   H25924753   1.052   2.510   3.050  2.6369  0.4243  0.1613
   38MOL   H26024754   0.908   2.541   2.966 -0.3414 -2.6686 -0.2868
   38MOL   H26124755   1.163   2.417   2.847 -0.0317 -0.2102 -1.5109
   38MOL   H26224756   1.008   2.443   2.762 -0.8185 -1.3271  0.2317
   38MOL   H26324757   0.894   2.285   2.901 -1.3062  0.3132  0.6310
   38MOL   H26424758   1.049   2.246   2.984 -1.0500  1.2073  0.8333
   38MOL   H26524759   1.027   2.209   2.809 -4.0564  0.8538 -1.2194
   38MOL   C26624760   0.368   2.953   2.571  0.8146 -0.3828  0.5719
   38MOL   C26724761   0.221   3.000   2.622 -0.2029 -0.0677  0.4767
   38MOL   C26824762   0.209   2.974   2.767 -0.3888 -0.8013  0.2712
   38MOL   C26924763   0.233   2.837   2.830  0.6717  0.0001  0.6433
   38MOL   C27024764   0.188   2.837   2.974 -0.0423  0.3689 -0.1494
   38MOL   C27124765   0.274   2.742   3.059  0.1227  0.7150  0.4859
   38MOL   C27224766   0.217   2.727   3.201  0.0055 -0.4306  0.3827
   38MOL   C27324767   0.305   2.625   3.289 -0.3901  0.4796 -0.7443
   38MOL   C27424768   0.270   2.603   3.439 -1.0172 -0.3697  0.8519
   38MOL   C27524769   0.344   2.476   3.475 -0.0353 -0.6903 -0.4335
   38MOL   C27624770   0.326   2.435   3.612  0.2431  0.2780 -0.3890
   38MOL   H27724771   0.385   2.854   2.611  0.6194 -0.6367  0.0348
   38MOL   H27824772   0.357   2.936   2.463  1.1212 -0.2916  0.5258
   38MOL   H27924773   0.223   3.106   2.601  0.8296 -0.0334  0.6899
   38MOL   H28024774   0.276   3.040   2.822 -0.5818 -1.1709  0.9492
   38MOL   H28124775   0.106   3.006   2.786 -0.8715 -2.4077  0.3889
   38MOL   H28224776   0.342   2.830   2.827  0.7402  1.4140 -1.6061
   38MOL   H28324777   0.190   2.758   2.769  1.2992  0.8246 -0.8863
   38MOL   H28424778   0.084   2.806   2.984  0.0266  0.3978  0.7164
   38MOL   H28524779   0.201   2.935   3.020 -2.0208  0.1003  1.0372
   38MOL   H28624780   0.378   2.772   3.054  0.1725  0.4143 -0.4118
   38MOL   H28724781   0.269   2.642   3.015 -1.1986  0.8708  0.2473
   38MOL   H28824782   0.194   2.815   3.261  0.4911  0.4618 -0.7220
   38MOL   H28924783   0.126   2.667   3.192 -0.6365  0.5102  0.4907
   38MOL   H29024784   0.411   2.649   3.284 -0.0027 -1.2178 -1.1123
   38MOL   H29124785   0.289   2.530   3.238 -0.2811 -1.2651  2.3833
   38MOL   H29224786   0.318   2.677   3.503  0.2261 -1.0684  0.7401
   38MOL   H29324787   0.163   2.605   3.455 -1.0350  1.6810  0.6317
   38MOL   H29424788   0.450   2.482   3.448 -0.0544 -2.6050 -1.0381
   38MOL   H29524789   0.312   2.389   3.417  2.8284 -0.9929 -1.6421
   38MOL   H29624790   0.390   2.351   3.639 -1.6922 -1.4324 -1.0482
   38MOL   H29724791   0.225   2.409   3.641  0.1930 -0.3202 -1.1009
   38MOL   H29824792   0.362   2.513   3.680 -3.5126  0.8508  1.0672
   38MOL   C29924793   0.114   2.926   2.540  0.2914  0.2199 -0.2465
   38MOL   C30024794   7.675   2.990   2.547  0.2886 -0.2498  0.1822
   38MOL   C30124795   7.574   2.905   2.460  0.1269  0.1821 -0.1011
   38MOL   C30224796   7.588   2.907   2.305 -0.1486  0.3839  0.7041
   38MOL   C30324797   7.473   2.852   2.234  0.7186  0.1753 -0.2318
   38MOL   C30424798   7.488   2.869   2.082  1.0501 -1.1107  0.2030
   38MOL   C30524799   7.376   2.963   2.024 -0.0113 -0.3630 -0.3049
   38MOL   C30624800   7.371   3.108   2.073 -0.2694 -0.6115  0.0798
   38MOL   C30724801   7.259   3.185   2.007 -0.7985  0.5203  0.1008
   38MOL   C30824802   7.299   3.216   1.860 -0.1302 -0.0422 -0.3455
   38MOL   C30924803   7.196   3.303   1.787  0.8000 -0.0955 -0.4417
   38MOL   H31024804   0.109   2.821   2.569  2.2079  0.2674  0.2823
   38MOL   H31124805   0.144   2.937   2.436 -1.3112  1.8772 -0.5633
   38MOL   H31224806   7.635   2.975   2.647  0.5216 -1.2318  0.1328
   38MOL   H31324807   7.581   2.803   2.497  0.2320  0.1730 -0.1483
   38MOL   H31424808   7.476   2.947   2.485  0.9322  3.3937 -1.9272
   38MOL   H31524809   7.606   3.008   2.270 -4.1952  1.3381  1.2011
   38MOL   H31624810   7.670   2.843   2.271 -1.0836 -0.9452  0.9061
   38MOL   H31724811   7.438   2.751   2.254  1.1110  0.2952  1.1046
   38MOL   H31824812   7.391   2.916   2.265  1.3338  0.8275  0.0499
   38MOL   H31924813   7.484   2.770   2.035  0.8879 -0.2634 -1.6306
   38MOL   H32024814   7.588   2.905   2.060 -0.4228  3.3564  0.2224
   38MOL   H32124815   7.400   2.962   1.917 -2.7539  1.1089 -0.9852
   38MOL   H32224816   7.272   2.932   2.037 -0.5045  1.4747  0.2330
   38MOL   H32324817   7.461   3.165   2.048  1.1066 -1.8302  2.0858
   38MOL   H32424818   7.372   3.114   2.182  1.5557  0.6604  0.0178
   38MOL   H32524819   7.245   3.282   2.054 -1.5447  0.0497  0.8665
   38MOL   H32624820   7.163   3.135   2.017 -1.3017  1.9648  2.8111
   38MOL   H32724821   7.324   3.128   1.801 -0.5182  0.5551 -1.4076
   38MOL   H32824822   7.389   3.277   1.862  1.1956 -1.9614  1.9713
   38MOL   H32924823   7.095   3.271   1.815  1.2841  0.6655  2.2368
   38MOL   H33024824   7.209   3.405   1.820  0.8190 -0.2981  0.1743
   38MOL   H33124825   7.208   3.308   1.679 -0.3265 -0.9401 -0.6250
   38MOL   C33224826   7.668   3.145   2.499 -0.3609 -0.4752 -0.4659
   38MOL   C33324827   7.531   3.212   2.493  0.9144  0.4995  0.2763
   38MOL   C33424828   7.548   3.349   2.432  0.3185 -0.8749  0.0176
   38MOL   C33524829   7.638   3.453   2.495 -0.1890  0.4566 -0.0029
   38MOL   C33624830   7.591   3.591   2.444 -0.7013  0.3242  0.6665
   38MOL   C33724831   7.639   3.704   2.532 -1.0227  0.0149  0.4056
   38MOL   C33824832   7.603   3.841   2.479 -0.1927  0.2790 -0.2834
   38MOL   C33924833   7.621   3.956   2.570 -0.7071  0.2143  0.2408
   38MOL   C34024834   7.593   4.089   2.502 -0.3410  0.3405  0.1237
   38MOL   C34124835   7.631   4.199   2.606  0.1837  0.5003 -0.4902
   38MOL   C34224836   7.605   4.338   2.551  0.1168 -0.2109 -0.2263
   38MOL   H34324837   0.030   3.212   2.555 -0.9373  0.5268 -0.9734
   38MOL   H34424838   0.002   3.143   2.397  0.5946  0.5285 -0.1430
   38MOL   H34524839   7.472   3.159   2.418  0.9204  1.2292 -0.2449
   38MOL   H34624840   7.450   3.388   2.404  0.3065 -0.8317  0.1204
   38MOL   H34724841   7.593   3.326   2.335  0.1012  1.2090 -0.6040
   38MOL   H34824842   7.631   3.439   2.603 -2.8006  0.8545 -0.0858
   38MOL   H34924843   0.038   3.440   2.460 -0.7183 -2.2526 -0.6464
   38MOL   H35024844   7.606   3.611   2.338 -1.1493 -0.4266  0.4563
   38MOL   H35124845   7.484   3.602   2.460 -0.8511  2.2983 -1.4847
   38MOL   H35224846   0.044   3.707   2.541 -0.8825 -1.5035 -0.6568
   38MOL   H35324847   7.605   3.687   2.635 -0.8950 -0.4983  0.3609
   38MOL   H35424848   7.497   3.826   2.458 -0.3154  0.9244 -0.1164
   38MOL   H35524849   7.654   3.857   2.385  0.9358  0.1599  0.2940
   38MOL   H35624850   7.556   3.932   2.655 -0.2113  0.4788  0.6990
   38MOL   H35724851   0.017   3.962   2.614 -0.6135  3.5722 -0.3236
   38MOL   H35824852   7.485   4.098   2.486 -0.1635  1.3851 -0.5270
   38MOL   H35924853   7.643   4.096   2.406  1.2047 -0.3782  0.8643
   38MOL   H36024854   0.034   4.182   2.625 -0.3023 -0.9537  1.0206
   38MOL   H36124855   7.590   4.188   2.707  0.0236 -0.1262 -0.6218
   38MOL   H36224856   7.657   4.355   2.457 -2.3214 -1.9562 -1.9323
   38MOL   H36324857   7.501   4.352   2.521 -0.4904 -1.1630  1.3528
   38MOL   H36424858   7.632   4.409   2.629 -1.3297  0.4007 -0.2663
   38MOL   C36524859   7.464   3.208   2.630 -0.8789 -0.5824 -0.3249
   38MOL   C36624860   7.331   3.274   2.641 -0.0743 -0.3296  0.1969
   38MOL   C36724861   7.219   3.205   2.556  0.0618  0.7816  0.3152
   38MOL   C36824862   7.169   3.074   2.595 -0.2942 -0.1784  0.2747
   38MOL   C36924863   7.043   3.026   2.512  0.2430  0.0323  0.5282
   38MOL   C37024864   6.986   2.892   2.555  0.2962  0.5724 -0.4691
   38MOL   C37124865   6.888   2.826   2.443 -0.5613  0.1690 -0.7308
   38MOL   C37224866   6.781   2.923   2.383  0.0439 -0.0581 -0.6764
   38MOL   C37324867   6.739   2.865   2.250 -0.1019 -0.1838  0.1572
   38MOL   C37424868   6.606   2.920   2.205  0.4372  0.4194 -0.0100
   38MOL   C37524869   6.564   2.864   2.063  0.1562  0.0405  0.2064
   38MOL   H37624870   7.458   3.104   2.660 -0.8614 -0.8523 -1.2449
   38MOL   H37724871   7.526   3.262   2.701 -1.0079 -1.2147  0.2715
   38MOL   H37824872   7.345   3.371   2.593  1.2452  0.0647  1.3379
   38MOL   H37924873   7.237   3.199   2.448  0.2646 -0.0932  0.3971
   38MOL   H38024874   7.138   3.278   2.549  1.5968  2.5550  0.6080
   38MOL   H38124875   7.140   3.072   2.700 -2.5128 -3.4541 -0.3130
   38MOL   H38224876   7.250   3.005   2.572 -0.8597 -0.8053  0.1344
   38MOL   H38324877   7.077   3.025   2.408  1.4329 -2.8923  0.9096
   38MOL   H38424878   6.976   3.112   2.508  0.8075  0.4247 -1.1933
   38MOL   H38524879   6.924   2.925   2.638  0.0656  4.3698 -2.0213
   38MOL   H38624880   7.058   2.819   2.592  1.0046  0.9618 -1.0586
   38MOL   H38724881   6.960   2.795   2.368 -0.2934 -0.6224 -0.1597
   38MOL   H38824882   6.845   2.732   2.479  0.0817 -0.2886 -1.1488
   38MOL   H38924883   6.816   3.025   2.366 -0.1788  0.3153  1.0227
   38MOL   H39024884   6.695   2.928   2.449 -0.0748 -2.5164 -0.6198
   38MOL   H39124885   6.810   2.885   2.170  1.1462  0.4104  1.3804
   38MOL   H39224886   6.720   2.758   2.255 -2.5427  0.0535 -3.1987
   38MOL   H39324887   6.533   2.900   2.283  1.3458 -0.1227  0.7144
   38MOL   H39424888   6.617   3.028   2.196  0.0739  0.6704  2.2156
   38MOL   H39524889   6.479   2.923   2.028  0.4476 -0.0641 -0.7027
   38MOL   H39624890   6.544   2.758   2.081  1.4632 -0.1978  0.3173
   38MOL   H39724891   6.640   2.872   1.985  0.5101 -2.7624  0.2305
   38MOL   C39824892   7.294   3.296   2.787 -0.1064 -0.3161 -0.3539
   38MOL   C39924893   7.157   3.354   2.806  0.6003  0.1207  0.3407
   38MOL   C40024894   7.146   3.490   2.741 -0.3041  0.6620 -0.7567
   38MOL   C40124895   7.244   3.595   2.778 -0.0433 -0.1930  0.5154
   38MOL   C40224896   7.219   3.723   2.695  0.2782 -0.4974 -0.4340
   38MOL   C40324897   7.285   3.846   2.772  0.5857  0.1404  0.0288
   38MOL   C40424898   7.262   3.982   2.709  0.5127  0.8078 -0.0183
   38MOL   C40524899   7.303   4.101   2.804  0.8952  0.1864 -0.2069
   38MOL   C40624900   7.267   4.247   2.756  0.4555  0.0006 -0.4039
   38MOL   C40724901   7.320   4.362   2.838 -0.0420 -0.4568 -0.4269
   38MOL   C40824902   7.295   4.504   2.777 -0.7183 -0.2323 -1.1508
   38MOL   H40924903   7.363   3.360   2.842  0.8655 -0.8536 -0.9437
   38MOL   H41024904   7.290   3.197   2.833 -2.0134 -0.8269 -1.5830
   38MOL   H41124905   7.086   3.289   2.755  1.5572 -0.0136 -0.8329
   38MOL   H41224906   7.044   3.529   2.750 -0.2843  0.5498  0.0273
   38MOL   H41324907   7.158   3.488   2.633 -2.1215 -1.4798 -0.9441
   38MOL   H41424908   7.242   3.612   2.885  1.0468 -3.1336  1.0376
   38MOL   H41524909   7.339   3.549   2.749  0.2245 -0.3776  1.6754
   38MOL   H41624910   7.248   3.702   2.592 -0.7439 -1.2222 -0.5879
   38MOL   H41724911   7.116   3.757   2.706  1.1473  2.5117 -1.0924
   38MOL   H41824912   7.391   3.832   2.796  0.5656 -1.4948 -0.7883
   38MOL   H41924913   7.236   3.859   2.869  0.8427  1.8384 -0.0519
   38MOL   H42024914   7.310   3.986   2.611 -1.8340  1.8012 -1.1702
   38MOL   H42124915   7.155   3.990   2.692  0.4289  1.3962  0.7499
   38MOL   H42224916   7.408   4.100   2.830  1.1119 -0.1970 -1.0692
   38MOL   H42324917   7.249   4.082   2.897  1.6440  0.9752  0.3963
   38MOL   H42424918   7.308   4.252   2.654 -0.7927  0.7053 -0.8732
   38MOL   H42524919   7.159   4.253   2.753  0.5087  0.5288 -1.8336
   38MOL   H42624920   7.422   4.342   2.870  0.2039  1.0425 -0.2053
   38MOL   H42724921   7.267   4.367   2.933  1.0235 -2.2969  0.2927
   38MOL   H42824922   7.351   4.584   2.825 -1.3328 -1.3813  1.6493
   38MOL   H42924923   7.191   4.536   2.783 -0.4351  0.4219  0.8646
   38MOL   H43024924   7.307   4.500   2.669 -0.2680 -0.1892 -1.1013
   38MOL   C43124925   7.116   3.349   2.953 -0.4034  0.0083 -0.7313
   38MOL   C43224926   6.961   3.336   2.958 -0.0418  0.2456 -0.2462
   38MOL   C43324927   6.897   3.404   3.086  1.0307  0.1158 -0.7975
   38MOL   C43424928   6.947   3.543   3.144  0.0781  0.7050  0.8397
   38MOL   C43524929   6.915   3.641   3.037 -0.1281  0.1956  0.2512
   38MOL   C43624930   6.985   3.776   3.062  0.5642  0.0291  0.6007
   38MOL   C43724931   6.962   3.876   2.954  0.2380  0.4228  0.1168
   38MOL   C43824932   6.814   3.937   2.937 -0.0429  0.3224 -0.2009
   38MOL   C43924933   6.806   4.035   2.821  0.4178 -0.0882  0.7312
   38MOL   C44024934   6.668   4.099   2.806 -0.0736  0.3125  0.5736
   38MOL   C44124935   6.674   4.195   2.675 -0.2412  0.0501 -0.2329
   38MOL   H44224936   7.153   3.437   3.005 -0.7437 -0.9686  1.2433
   38MOL   H44324937   7.146   3.260   3.008 -0.7572  0.2578 -0.1266
   38MOL   H44424938   6.908   3.394   2.881 -1.3623 -1.6928 -0.8432
   38MOL   H44524939   6.790   3.400   3.069  0.6614 -2.0403  1.6294
   38MOL   H44624940   6.906   3.325   3.161 -0.0447  0.3644 -0.4091
   38MOL   H44724941   7.051   3.552   3.177  0.3832 -0.6360  0.2723
   38MOL   H44824942   6.891   3.566   3.234 -2.3185 -2.7287  0.3449
   38MOL   H44924943   6.808   3.651   3.019 -0.1781  0.3477  0.6286
   38MOL   H45024944   6.955   3.599   2.944  1.6513  0.7449  0.7378
   38MOL   H45124945   7.091   3.752   3.064  0.5413 -0.3423 -1.4600
   38MOL   H45224946   6.959   3.805   3.163  0.7356 -0.8651  0.9009
   38MOL   H45324947   7.001   3.833   2.861  0.4346  0.6205  0.1080
   38MOL   H45424948   7.027   3.962   2.970  0.0996  0.4363  0.6178
   38MOL   H45524949   6.742   3.856   2.931 -0.3505  0.6074 -0.3629
   38MOL   H45624950   6.798   3.994   3.029 -0.9564  3.4855 -2.2615
   38MOL   H45724951   6.835   3.976   2.734  0.3821 -0.9571  1.2992
   38MOL   H45824952   6.873   4.118   2.843 -1.2090  1.1587  1.0793
   38MOL   H45924953   6.653   4.155   2.899 -0.0569  0.8395  0.2607
   38MOL   H46024954   6.591   4.023   2.796 -1.2714  1.8249 -2.6138
   38MOL   H46124955   6.698   4.139   2.585 -2.4996 -1.4297  0.0224
   38MOL   H46224956   6.574   4.238   2.670  0.5926  2.1801  0.7487
   38MOL   H46324957   6.747   4.275   2.680  0.5905 -0.7575  1.1199
   38MOL   C46424958   6.925   3.187   2.939 -0.1923  0.7978 -0.1766
   38MOL   C46524959   6.777   3.148   2.946 -0.0770  0.7043  0.2567
   38MOL   C46624960   6.683   3.220   2.847  0.8282  0.4863 -0.0523
   38MOL   C46724961   6.693   3.199   2.698  0.0635  0.9463 -0.0853
   38MOL   C46824962   6.568   3.237   2.620  0.1918  0.5026  0.2308
   38MOL   C46924963   6.591   3.268   2.472  0.7679 -0.0738  0.3503
   38MOL   C47024964   6.473   3.317   2.404  0.4188  0.0900  0.9021
   38MOL   C47124965   6.502   3.351   2.257 -0.2756  0.1721  1.5098
   38MOL   C47224966   6.374   3.361   2.173 -0.0868 -0.8198  0.4551
   38MOL   C47324967   6.421   3.386   2.027  0.5296 -0.6293  0.7842
   38MOL   C47424968   6.302   3.429   1.938 -0.0556  0.6895  0.0840
   38MOL   H47524969   6.962   3.122   3.018 -1.6202 -0.7562 -0.7450
   38MOL   H47624970   6.953   3.163   2.837  0.0432 -1.5764  0.4174
   38MOL   H47724971   6.740   3.171   3.046  0.0120 -1.3893  0.8087
   38MOL   H47824972   6.684   3.328   2.861  1.0084  0.5048 -0.2123
   38MOL   H47924973   6.579   3.191   2.867  0.8345 -0.3098 -1.1160
   38MOL   H48024974   6.784   3.245   2.658 -0.4764  2.2261  0.1621
   38MOL   H48124975   6.716   3.093   2.687  1.4351  1.1745  0.5300
   38MOL   H48224976   6.518   3.326   2.658  0.2609  0.3369  0.7057
   38MOL   H48324977   6.487   3.164   2.614  1.1746 -0.3951 -2.9286
   38MOL   H48424978   6.674   3.338   2.463  1.5582 -0.7265  2.4837
   38MOL   H48524979   6.619   3.175   2.423  0.3757 -1.5257  2.7895
   38MOL   H48624980   6.402   3.236   2.392 -0.9404  1.7121 -2.7048
   38MOL   H48724981   6.409   3.389   2.456  0.9301  0.9331  0.3751
   38MOL   H48824982   6.566   3.438   2.242  0.6483 -0.8816 -1.1261
   38MOL   H48924983   6.565   3.271   2.215 -0.2495  1.0474 -0.1764
   38MOL   H49024984   6.321   3.265   2.165 -2.5291  0.6486 -2.1451
   38MOL   H49124985   6.310   3.439   2.214  1.8042  0.3551  1.2404
   38MOL   H49224986   6.500   3.458   2.005 -0.0960 -0.2697 -0.3527
   38MOL   H49324987   6.464   3.292   1.992 -0.9065 -1.0828  0.2040
   38MOL   H49424988   6.213   3.372   1.963 -0.6802  1.6533  0.0886
   38MOL   H49524989   6.320   3.424   1.831  2.7213 -3.4218  0.6448
   38MOL   H49624990   6.276   3.534   1.953  0.0912  1.1058 -2.3267
   38MOL   C49724991   6.752   2.994   2.944  0.0879 -0.9184 -0.1409
   38MOL   C49824992   6.602   2.950   2.950  0.5886  0.0114  0.0234
   38MOL   C49924993   6.537   3.016   3.076 -0.2878  0.3720  0.4679
   38MOL   C50024994   6.383   2.986   3.085  0.6056 -0.2020  0.0195
   38MOL   C50124995   6.313   3.075   3.191  0.7133  0.1220 -0.5746
   38MOL   C50224996   6.157   3.058   3.189 -0.7564 -0.0305  0.0668
   38MOL   C50324997   6.086   3.134   3.303  0.2137  0.5055  0.1394
   38MOL   C50424998   6.064   3.283   3.272  0.0588  0.8013 -0.4756
   38MOL   C50524999   5.919   3.315   3.234 -0.0964  0.3024 -0.4756
   38MOL   C50625000   5.896   3.456   3.179  0.3159  0.0218  0.0371
   38MOL   C50725001   5.754   3.483   3.137 -0.0666  0.2364  0.1675
   38MOL   H50825002   6.798   2.958   2.852  0.6322 -1.4330  0.3294
   38MOL   H50925003   6.810   2.957   3.028 -0.7610 -1.1216  0.3627
   38MOL   H51025004   6.545   2.984   2.863 -0.9543  0.4651  1.1834
   38MOL   H51125005   6.546   3.124   3.080 -2.5684  0.5567  1.1901
   38MOL   H51225006   6.594   2.978   3.161  0.5096  2.5484  0.9316
   38MOL   H51325007   6.372   2.880   3.108 -1.1604 -0.0881 -0.2412
   38MOL   H51425008   6.338   2.982   2.986 -0.3656 -1.0374  0.4765
   38MOL   H51525009   6.345   3.053   3.293 -0.6990 -0.9550 -0.3424
   38MOL   H51625010   6.333   3.182   3.183 -0.2034  0.3965  0.6691
   38MOL   H51725011   6.114   3.088   3.093  0.6626 -2.1793 -1.2748
   38MOL   H51825012   6.138   2.953   3.212  1.7723 -0.2983  1.1307
   38MOL   H51925013   6.002   3.074   3.340  0.0961  1.6394  1.7802
   38MOL   H52025014   6.154   3.130   3.387  1.5378 -0.6481 -0.9695
   38MOL   H52125015   6.140   3.313   3.199  0.8188 -1.3799 -0.5971
   38MOL   H52225016   6.082   3.336   3.365 -0.0197 -1.0786  0.6283
   38MOL   H52325017   5.846   3.299   3.313  2.2203 -0.8696  1.5044
   38MOL   H52425018   5.894   3.237   3.163 -0.9998 -2.2585  2.5567
   38MOL   H52525019   5.968   3.476   3.100  1.3542  1.2158  1.2559
   38MOL   H52625020   5.919   3.532   3.253  0.3087  1.8949 -1.8253
   38MOL   H52725021   5.731   3.416   3.055  1.7508  0.1665 -0.2973
   38MOL   H52825022   5.741   3.584   3.097  0.4075  0.1704 -0.1569
   38MOL   H52925023   5.677   3.483   3.215  0.2434  1.8975  0.5102
   38MOL   C53025024   6.585   2.803   2.941  0.4097 -0.4144  0.7164
   38MOL   C53125025   6.648   2.726   2.814  0.4855 -0.2479 -0.0164
   38MOL   C53225026   6.599   2.783   2.680  0.1054  0.0012 -0.2364
   38MOL   C53325027   6.447   2.775   2.653  0.4904 -0.3757  0.2667
   38MOL   C53425028   6.412   2.802   2.509 -0.4484  0.0390  0.6500
   38MOL   C53525029   6.265   2.773   2.473 -0.4021 -0.1068  0.1781
   38MOL   C53625030   6.249   2.788   2.326  0.3696  0.0710 -0.8007
   38MOL   C53725031   6.103   2.750   2.294 -0.4834  0.5840  0.3217
   38MOL   C53825032   6.075   2.755   2.140 -0.5900 -0.2781  0.9407
   38MOL   C53925033   6.120   2.624   2.069 -0.5092  0.4435  0.4219
   38MOL   C54025034   6.103   2.632   1.913 -0.2273  0.5238 -0.3827
   38MOL   H54125035   6.606   2.755   3.037 -1.6575 -0.8099  0.9903
   38MOL   H54225036   6.478   2.787   2.925  0.2511  0.7576  0.5883
   38MOL   H54325037   6.756   2.738   2.809  0.1755  2.6794 -0.3429
   38MOL   H54425038   6.645   2.720   2.603 -1.7008 -1.3923 -0.2222
   38MOL   H54525039   6.645   2.881   2.676  1.2854 -0.5548 -0.5531
   38MOL   H54625040   6.401   2.847   2.720 -0.3845  1.1061 -1.8767
   38MOL   H54725041   6.408   2.675   2.668  1.0433 -0.8880 -1.5582
   38MOL   H54825042   6.468   2.732   2.445  2.2525  1.8582  0.9266
   38MOL   H54925043   6.433   2.907   2.488  0.1452  0.3055  2.4696
   38MOL   H55025044   6.206   2.844   2.531  2.7817  1.4879  1.6376
   38MOL   H55125045   6.239   2.671   2.500 -1.1972  0.3031  0.9718
   38MOL   H55225046   6.315   2.711   2.285 -0.6045 -0.2650 -1.7575
   38MOL   H55325047   6.280   2.880   2.277  0.5703  2.0394  2.8677
   38MOL   H55425048   6.026   2.799   2.353 -2.3742  0.0453 -1.6121
   38MOL   H55525049   6.097   2.647   2.330 -0.7814  0.6672  0.5093
   38MOL   H55625050   6.109   2.844   2.088 -0.8383 -0.1208  1.0419
   38MOL   H55725051   5.966   2.759   2.130 -0.4034 -0.7436 -1.5734
   38MOL   H55825052   6.074   2.536   2.115  0.2370  0.3291  0.9676
   38MOL   H55925053   6.229   2.616   2.073 -0.6151 -0.9110  1.2506
   38MOL   H56025054   6.141   2.538   1.873 -1.5768 -0.5918  0.8865
   38MOL   H56125055   5.999   2.637   1.880 -0.5691  4.0311  1.0446
   38MOL   H56225056   6.161   2.715   1.872  0.3023  1.2984  1.9096
   38MOL   C56325057   6.624   2.574   2.836  0.7445  0.6898  0.2979
   38MOL   C56425058   6.733   2.466   2.783 -0.7417  0.2890  0.4887
   38MOL   C56525059   6.662   2.344   2.703 -0.2537  0.4981 -0.0211
   38MOL   C56625060   6.608   2.394   2.563 -0.6218  0.3492 -0.1036
   38MOL   C56725061   6.731   2.411   2.471 -0.6273  0.8000 -0.1514
   38MOL   C56825062   6.669   2.446   2.333  0.0563  0.4407  0.2844
   38MOL   C56925063   6.611   2.318   2.263 -0.7346 -0.3101 -0.4199
   38MOL   C57025064   6.560   2.357   2.122  0.1433 -0.3128 -1.1593
   38MOL   C57125065   6.515   2.232   2.035 -0.0966 -0.3756 -0.4419
   38MOL   C57225066   6.465   2.254   1.893 -0.7036 -0.1040 -0.0167
   38MOL   C57325067   6.349   2.349   1.879 -0.7735 -0.1737 -0.1227
   38MOL   H57425068   6.530   2.543   2.791  1.2274 -1.2077  0.5556
   38MOL   H57525069   6.613   2.546   2.940 -0.6475 -1.7800 -0.4720
   38MOL   H57625070   6.795   2.506   2.703 -0.1814  0.1830  0.8632
   38MOL   H57725071   6.571   2.316   2.757 -1.5399  0.9979 -1.8665
   38MOL   H57825072   6.722   2.257   2.676  0.8680  0.5142  2.2820
   38MOL   H57925073   6.561   2.490   2.584 -0.2564 -0.0338  2.7400
   38MOL   H58025074   6.533   2.322   2.531 -1.2481 -0.4026  2.9236
   38MOL   H58125075   6.777   2.314   2.452 -2.1837 -0.3381  1.7584
   38MOL   H58225076   6.804   2.490   2.491 -0.9482  1.2080 -0.6031
   38MOL   H58325077   6.586   2.516   2.337 -0.9338 -0.7577  0.8600
   38MOL   H58425078   6.741   2.498   2.270  0.6029 -0.4205  0.1941
   38MOL   H58525079   6.691   2.247   2.246  2.3941  3.1752 -0.9527
   38MOL   H58625080   6.539   2.265   2.325 -2.3964  3.1516  0.7475
   38MOL   H58725081   6.631   2.420   2.068  1.9030 -0.8917  0.3844
   38MOL   H58825082   6.479   2.425   2.146  0.5273 -0.2391  0.0060
   38MOL   H58925083   6.439   2.185   2.097 -1.6195  2.1029 -0.3540
   38MOL   H59025084   6.598   2.161   2.036 -0.0661 -0.4168  3.6686
   38MOL   H59125085   6.443   2.157   1.849  1.1525 -1.0063  0.9609
   38MOL   H59225086   6.540   2.297   1.827 -0.6851  1.7428  1.1886
   38MOL   H59325087   6.380   2.453   1.891 -1.5269  0.0822 -0.3703
   38MOL   H59425088   6.294   2.355   1.785  1.0402  0.2582 -1.1879
   38MOL   H59525089   6.272   2.324   1.952 -0.1721  1.8153  1.2294
   38MOL   C59625090   6.828   2.421   2.897 -0.3429  0.0283 -0.5676
   38MOL   C59725091   6.892   2.534   2.984  0.2535 -0.3541  0.8901
   38MOL   C59825092   7.011   2.604   2.912 -0.5094  0.1501 -0.3171
   38MOL   C59925093   7.048   2.741   2.985 -0.1566 -0.5351 -0.0173
   38MOL   C60025094   7.161   2.819   2.913 -0.2600  0.3989 -1.1645
   38MOL   C60125095   7.299   2.739   2.925 -0.1116  0.3337  0.0486
   38MOL   C60225096   7.408   2.804   2.834  0.2046  0.3791  0.3492
   38MOL   C60325097   7.542   2.737   2.829 -0.1593  0.3494  0.0918
   38MOL   C60425098   7.546   2.596   2.754  0.0684  0.1343 -0.1510
   38MOL   C60525099   7.685   2.533   2.734 -0.8657 -0.4802  0.1420
   38MOL   C60625100   7.684   2.387   2.691  0.1196  0.1697  0.2375
   38MOL   H60725101   6.779   2.342   2.954 -0.6746  1.6236  1.3821
   38MOL   H60825102   6.903   2.357   2.850 -0.1817  1.5177 -2.4197
   38MOL   H60925103   6.823   2.611   3.018 -2.3413 -2.8988  1.5680
   38MOL   H61025104   7.001   2.615   2.804 -2.8197 -0.5082 -0.1831
   38MOL   H61125105   7.098   2.540   2.926  0.6214  2.3638  3.6224
   38MOL   H61225106   7.073   2.735   3.091 -0.8230 -1.0585  0.1148
   38MOL   H61325107   6.960   2.805   2.974  0.6963  1.1920  2.9197
   38MOL   H61425108   7.179   2.920   2.950 -0.2304  0.0315 -0.1377
   38MOL   H61525109   7.133   2.832   2.809  1.1780 -1.2468 -1.7970
   38MOL   H61625110   7.336   2.729   3.027  0.8004 -0.3978 -0.3459
   38MOL   H61725111   7.305   2.633   2.899  2.2753  0.7822 -1.3706
   38MOL   H61825112   7.420   2.909   2.859  0.9651  0.2955  0.3470
   38MOL   H61925113   7.365   2.810   2.734 -0.5061 -1.7286  0.4959
   38MOL   H62025114   7.582   2.731   2.930 -1.1307 -1.1646  0.4067
   38MOL   H62125115   7.612   2.810   2.789  1.6640 -0.9006  0.9349
   38MOL   H62225116   7.472   2.533   2.801  0.7816  0.1254  0.9849
   38MOL   H62325117   7.512   2.622   2.653 -0.1128  0.4107 -0.0203
   38MOL   H62425118   0.034   2.526   2.829 -0.8766  0.3973  0.2093
   38MOL   H62525119   0.051   2.587   2.669 -0.4877  0.1365  1.0487
   38MOL   H62625120   7.667   2.384   2.584  0.7590  2.8698  0.0233
   38MOL   H62725121   0.079   2.346   2.715  2.4519  4.4974 -1.3115
   38MOL   H62825122   7.617   2.322   2.747 -0.5352  1.0552  0.4896
   38MOL   C62925123   6.941   2.475   3.116 -0.4854  0.1106 -0.7026
   38MOL   C63025124   6.825   2.457   3.215 -0.6607  0.1701 -0.0585
   38MOL   C63125125   6.874   2.420   3.353  0.0193 -0.7721 -0.4320
   38MOL   C63225126   6.898   2.554   3.425  0.1081  0.3217  0.0197
   38MOL   C63325127   6.926   2.534   3.572  0.2579  0.6735 -0.3750
   38MOL   C63425128   6.897   2.662   3.657 -0.3990  0.4826 -1.0591
   38MOL   C63525129   6.753   2.654   3.711  0.1592 -0.4850 -0.6189
   38MOL   C63625130   6.709   2.774   3.795 -0.1466  0.3350  0.4236
   38MOL   C63725131   6.608   2.735   3.900  0.5728 -0.2840 -0.0557
   38MOL   C63825132   6.582   2.830   4.021 -0.5779  0.6306 -0.1872
   38MOL   C63925133   6.530   2.969   3.968  0.3780  0.1348 -0.1896
   38MOL   H64025134   6.990   2.379   3.104  1.8265  1.3450 -1.4946
   38MOL   H64125135   7.015   2.545   3.154 -1.2961  2.0108 -2.5094
   38MOL   H64225136   6.781   2.556   3.210  1.1761  1.1629  2.2134
   38MOL   H64325137   6.789   2.374   3.404  0.2546  0.6406  1.3040
   38MOL   H64425138   6.953   2.347   3.336 -0.4276 -1.4160  0.2171
   38MOL   H64525139   6.804   2.610   3.414 -1.3204 -1.1941  3.6491
   38MOL   H64625140   6.989   2.601   3.388  1.3282 -3.9384 -2.7664
   38MOL   H64725141   7.019   2.477   3.581 -1.0140 -1.7868 -2.0072
   38MOL   H64825142   6.846   2.467   3.603 -0.2757  1.3573 -0.2655
   38MOL   H64925143   6.916   2.756   3.604 -0.9917  0.9273 -0.4847
   38MOL   H65025144   6.970   2.675   3.738  1.1010  0.6368 -2.4047
   38MOL   H65125145   6.760   2.570   3.780  2.2480  0.1935  0.0238
   38MOL   H65225146   6.689   2.627   3.627 -0.2905  3.1177 -1.5354
   38MOL   H65325147   6.673   2.840   3.716  0.0659 -1.2744 -1.0397
   38MOL   H65425148   6.796   2.824   3.838  0.2860 -0.1206  0.0699
   38MOL   H65525149   6.639   2.641   3.946  1.0820 -0.3057 -0.4408
   38MOL   H65625150   6.510   2.715   3.856 -0.3471  1.8253  0.9973
   38MOL   H65725151   6.685   2.844   4.053 -0.1520  0.6501 -1.5447
   38MOL   H65825152   6.523   2.781   4.098 -1.4794 -0.8625 -1.7964
   38MOL   H65925153   6.423   2.958   3.949 -0.0999 -0.3324  2.6302
   38MOL   H66025154   6.596   2.986   3.883 -2.1321 -1.9000 -2.6849
   38MOL   H66125155   6.543   3.042   4.047 -0.7153 -1.9367  1.9702
   38MOL   H66225156   6.759   2.377   3.180  2.7998 -3.0457  0.3811
   39MOL     C125157   5.281   4.318   2.269  0.6431  0.1729  0.1828
   39MOL     C225158   5.340   4.247   2.147 -0.4227 -0.6406  0.1224
   39MOL     C325159   5.237   4.178   2.063 -0.0490 -0.4328 -0.0468
   39MOL     C425160   5.113   4.255   2.029 -0.5442  0.4829  0.6575
   39MOL     C525161   4.993   4.169   1.978  0.7614  0.7985 -0.6931
   39MOL     C625162   4.856   4.237   1.950 -0.5335 -0.4994 -0.3153
   39MOL     C725163   4.748   4.131   1.906 -0.3513  0.6006  0.0775
   39MOL     C825164   4.613   4.196   1.881 -0.2249  0.7826 -0.1541
   39MOL     C925165   4.502   4.096   1.837 -0.1905 -0.0532 -0.4142
   39MOL    C1025166   4.368   4.166   1.822  0.4115 -0.8327 -0.4929
   39MOL    C1125167   4.365   4.248   1.697  0.4393 -0.0963  0.0034
   39MOL    H1225168   5.360   4.321   2.344 -0.3770 -1.9975  1.3788
   39MOL    H1325169   5.198   4.254   2.299 -0.3454  0.5741 -1.6033
   39MOL    H1425170   5.403   4.169   2.191  0.1252  1.0103  2.3586
   39MOL    H1525171   5.197   4.099   2.128 -3.0985  1.3797  0.3808
   39MOL    H1625172   5.280   4.120   1.982 -2.1753 -0.6619 -1.0352
   39MOL    H1725173   5.126   4.347   1.972  0.7007  0.7449  1.3459
   39MOL    H1825174   5.086   4.304   2.122 -0.3177  2.8526 -0.4974
   39MOL    H1925175   5.022   4.142   1.877  0.2574  1.6178 -1.0594
   39MOL    H2025176   4.976   4.076   2.031 -1.5646  0.5394 -1.8401
   39MOL    H2125177   4.874   4.308   1.869 -2.0093  1.3987  0.9977
   39MOL    H2225178   4.823   4.302   2.031 -1.1900 -0.8881 -0.2695
   39MOL    H2325179   4.788   4.076   1.821  0.1989 -0.0974  0.7760
   39MOL    H2425180   4.733   4.057   1.984 -1.2170  0.4871 -0.1923
   39MOL    H2525181   4.623   4.279   1.812  0.4449  0.2036 -0.7596
   39MOL    H2625182   4.576   4.240   1.973  0.0198  0.2609  0.1954
   39MOL    H2725183   4.486   4.023   1.916 -1.9165  1.6269  0.8443
   39MOL    H2825184   4.534   4.035   1.753 -0.9522  0.7082 -1.2726
   39MOL    H2925185   4.363   4.237   1.904  1.0785  1.0038 -2.0164
   39MOL    H3025186   4.282   4.099   1.821  1.1626 -1.8068 -0.2472
   39MOL    H3125187   4.391   4.187   1.611  1.2042 -0.5016  0.5213
   39MOL    H3225188   4.266   4.292   1.683  0.5709  0.1774 -0.0663
   39MOL    H3325189   4.438   4.329   1.699  1.7935 -1.1882 -2.3008
   39MOL    H3425190   5.250   4.419   2.241  1.2122  0.5450  0.8878
   39MOL    C3525191   5.430   4.341   2.057  0.2382  0.1111  1.0503
   39MOL    C3625192   5.540   4.424   2.130 -0.0210 -0.2329  0.9079
   39MOL    C3725193   5.652   4.323   2.171  0.7107 -0.1158  0.5730
   39MOL    C3825194   5.741   4.383   2.286  0.1901 -0.4394 -0.5302
   39MOL    C3925195   5.688   4.358   2.430  0.3266  0.2332  0.4951
   39MOL    C4025196   5.793   4.369   2.542  0.4504 -0.8342 -0.6025
   39MOL    C4125197   5.850   4.507   2.555 -0.0554  0.2744  0.0823
   39MOL    C4225198   5.963   4.516   2.658  0.0951 -0.4323  0.1184
   39MOL    C4325199   5.906   4.532   2.801  0.2873  0.6015  0.1900
   39MOL    C4425200   6.003   4.591   2.906 -0.5515 -0.2723  0.5853
   39MOL    C4525201   5.968   4.591   3.054  0.2835  0.1763  1.2953
   39MOL    H4625202   5.364   4.416   2.014 -1.0565  0.0278  2.8408
   39MOL    H4725203   5.475   4.291   1.972  2.3606 -2.7535  3.7506
   39MOL    H4825204   5.500   4.474   2.219  3.3008  3.0071  0.6956
   39MOL    H4925205   5.608   4.226   2.192 -3.9009  1.3269 -1.8625
   39MOL    H5025206   5.705   4.308   2.077  1.2539  0.4591  0.7835
   39MOL    H5125207   5.764   4.488   2.267  1.1608 -0.8702 -1.7833
   39MOL    H5225208   5.842   4.345   2.278  0.2331 -1.0415  2.3325
   39MOL    H5325209   5.639   4.261   2.440  2.1317 -0.7672 -0.0085
   39MOL    H5425210   5.608   4.432   2.434  0.4883  0.4952 -0.9400
   39MOL    H5525211   5.873   4.297   2.520  1.4084 -0.6027  1.9911
   39MOL    H5625212   5.751   4.347   2.640 -0.2377  0.9279 -0.5000
   39MOL    H5725213   5.889   4.535   2.457  0.5036 -2.8464 -0.6409
   39MOL    H5825214   5.774   4.585   2.560  0.1181  0.3653  1.3031
   39MOL    H5925215   6.026   4.604   2.644 -0.3402 -0.0578  0.5040
   39MOL    H6025216   6.032   4.433   2.641 -2.5789 -2.3881 -1.7259
   39MOL    H6125217   5.868   4.435   2.830  0.5049  0.1813 -0.9091
   39MOL    H6225218   5.817   4.595   2.801 -0.8100 -0.8700 -3.3665
   39MOL    H6325219   6.087   4.523   2.897 -0.3385  0.0236  0.3366
   39MOL    H6425220   6.034   4.692   2.878 -0.5350 -0.0634  1.3525
   39MOL    H6525221   5.938   4.490   3.082 -1.3910  0.0614 -0.7967
   39MOL    H6625222   6.054   4.610   3.118  1.8412  0.8331 -0.9482
   39MOL    H6725223   5.889   4.662   3.079  0.6480  0.7476  0.8311
   39MOL    C6825224   5.592   4.550   2.046  0.5982  0.5084 -0.6958
   39MOL    C6925225   5.492   4.654   2.004 -0.0474  0.0575  0.2728
   39MOL    C7025226   5.384   4.696   2.104  0.3768  0.3758  0.5174
   39MOL    C7125227   5.447   4.765   2.232  0.0547  0.1466  0.3035
   39MOL    C7225228   5.334   4.830   2.320  0.2505  0.2463  0.4040
   39MOL    C7325229   5.260   4.731   2.411  0.2504  0.0647 -0.2788
   39MOL    C7425230   5.345   4.636   2.492  0.5162  0.3873  0.1001
   39MOL    C7525231   5.443   4.707   2.594  0.2560  0.7797 -0.5661
   39MOL    C7625232   5.379   4.779   2.710  0.0465 -0.2790  0.2931
   39MOL    C7725233   5.482   4.863   2.795 -0.1495  0.0068 -0.0831
   39MOL    C7825234   5.430   4.924   2.927  0.1761  0.2118  0.0389
   39MOL    H7925235   5.618   4.513   1.947  0.7688 -0.5475 -0.2549
   39MOL    H8025236   5.680   4.595   2.094  2.1635 -3.6221  0.5024
   39MOL    H8125237   5.434   4.617   1.919  0.7889 -1.1141  0.2005
   39MOL    H8225238   5.328   4.610   2.141 -0.6001  0.5797 -0.4393
   39MOL    H8325239   5.308   4.764   2.064  2.8109  2.2185 -1.1484
   39MOL    H8425240   5.523   4.702   2.276 -1.6409 -0.1043  2.9642
   39MOL    H8525241   5.513   4.844   2.196 -1.2282  1.0745 -0.0479
   39MOL    H8625242   5.265   4.878   2.251 -1.5847 -0.5684  1.6208
   39MOL    H8725243   5.393   4.898   2.381  1.4822  0.6275 -1.1868
   39MOL    H8825244   5.181   4.781   2.466  0.2153  0.3280 -0.5732
   39MOL    H8925245   5.200   4.671   2.342  0.1621  0.2764 -0.3849
   39MOL    H9025246   5.415   4.585   2.426 -0.6726 -0.3260 -0.6278
   39MOL    H9125247   5.287   4.562   2.548 -0.8363  0.6209 -0.9826
   39MOL    H9225248   5.527   4.643   2.622  1.2502  1.8526 -1.0336
   39MOL    H9325249   5.499   4.778   2.533 -0.3303  2.6299  1.0174
   39MOL    H9425250   5.297   4.844   2.679 -1.6137 -1.9736  1.0620
   39MOL    H9525251   5.341   4.695   2.767 -1.2544 -0.8417 -1.3677
   39MOL    H9625252   5.567   4.799   2.819  0.5251 -0.0942 -2.5409
   39MOL    H9725253   5.526   4.938   2.730 -0.9035 -0.6876 -1.4434
   39MOL    H9825254   5.501   4.975   2.992  0.7508 -0.4373 -0.0755
   39MOL    H9925255   5.387   4.844   2.987  0.6710  0.4853  0.7725
   39MOL   H10025256   5.344   4.988   2.907 -0.1850 -1.1157 -2.8986
   39MOL   C10125257   5.575   4.778   1.949 -0.1684 -0.0513 -0.5742
   39MOL   C10225258   5.597   4.791   1.794  0.0417 -0.1377  0.1086
   39MOL   C10325259   5.473   4.821   1.713  0.0882 -0.6624  0.7767
   39MOL   C10425260   5.491   4.876   1.570 -0.1399  0.6181 -0.6600
   39MOL   C10525261   5.356   4.897   1.508 -0.3002 -0.0162 -0.3953
   39MOL   C10625262   5.351   4.959   1.363  0.1858 -0.1212  0.3295
   39MOL   C10725263   5.217   4.948   1.297  0.6192 -0.0583  0.4886
   39MOL   C10825264   5.113   5.046   1.354  0.2016 -0.0010  0.6199
   39MOL   C10925265   4.990   5.043   1.270 -0.8258 -0.1579 -0.3944
   39MOL   C11025266   4.920   5.176   1.268 -0.4415 -0.7065 -0.4427
   39MOL   C11125267   4.788   5.178   1.181  0.2122  0.0007  0.5590
   39MOL   H11225268   5.536   4.875   1.981 -2.1068 -0.7441 -0.8225
   39MOL   H11325269   5.674   4.789   1.994 -0.7008 -0.8260  0.8099
   39MOL   H11425270   5.658   4.882   1.787  2.0063 -1.3827  0.6659
   39MOL   H11525271   5.426   4.724   1.694  1.7164 -1.8436  2.5464
   39MOL   H11625272   5.397   4.877   1.768 -0.3920  0.7152 -1.2364
   39MOL   H11725273   5.545   4.971   1.559  2.6210 -1.0096 -1.6998
   39MOL   H11825274   5.541   4.805   1.504  1.5799  0.3904  0.8412
   39MOL   H11925275   5.299   4.804   1.514  1.8743 -1.4044 -0.8738
   39MOL   H12025276   5.298   4.972   1.561  2.0417  0.5229  1.4810
   39MOL   H12125277   5.386   5.062   1.362 -0.0084 -0.0562  0.2017
   39MOL   H12225278   5.417   4.907   1.295  1.1940  0.3444  0.9454
   39MOL   H12325279   5.183   4.845   1.302 -0.0898  0.1519  0.0665
   39MOL   H12425280   5.221   4.967   1.190 -0.0230 -0.0117  0.4755
   39MOL   H12525281   5.089   5.022   1.457 -0.4142  2.2781  1.0485
   39MOL   H12625282   5.170   5.139   1.343  0.1443 -0.1109 -0.6684
   39MOL   H12725283   5.018   5.017   1.168 -1.3744 -0.4707 -0.4685
   39MOL   H12825284   4.908   4.977   1.298 -0.6594 -0.6550 -1.0550
   39MOL   H12925285   4.980   5.250   1.216 -1.1609 -0.7109 -1.2885
   39MOL   H13025286   4.905   5.214   1.369 -2.5569  1.9513 -1.7018
   39MOL   H13125287   4.736   5.266   1.216 -1.8618 -1.3663  0.9955
   39MOL   H13225288   4.796   5.178   1.072 -1.9614  0.4042  0.3866
   39MOL   H13325289   4.727   5.090   1.204  0.4303 -0.4969 -0.7357
   39MOL   C13425290   5.686   4.677   1.726 -0.2120  0.0884  0.2059
   39MOL   C13525291   5.830   4.683   1.781  0.2086  0.4786  0.1902
   39MOL   C13625292   5.912   4.801   1.727 -0.0284  0.4815  0.7624
   39MOL   C13725293   5.958   4.783   1.580 -0.0021 -0.0124 -1.0699
   39MOL   C13825294   6.034   4.911   1.533 -0.5748  0.0128  0.7697
   39MOL   C13925295   6.181   4.920   1.584  0.2719 -0.7335  0.6526
   39MOL   C14025296   6.255   5.051   1.540  0.0410  0.9101  0.3597
   39MOL   C14125297   6.282   5.069   1.383 -0.8428  0.6771 -0.3462
   39MOL   C14225298   6.352   5.187   1.340 -0.0966 -0.2158  0.5613
   39MOL   C14325299   6.394   5.184   1.187 -0.0571  0.4982  0.3180
   39MOL   C14425300   6.466   5.310   1.143  0.2817 -0.2969  0.2154
   39MOL   H14525301   5.642   4.580   1.749  1.1805 -1.2042 -2.3553
   39MOL   H14625302   5.685   4.690   1.618  2.0178  1.3213  0.3005
   39MOL   H14725303   5.824   4.690   1.889  1.1971  0.8271  0.2230
   39MOL   H14825304   5.995   4.817   1.795 -0.2013 -0.4187  1.1903
   39MOL   H14925305   5.856   4.893   1.740 -1.8384 -0.7062  1.6254
   39MOL   H15025306   6.022   4.696   1.563  0.6814  0.2892 -0.1160
   39MOL   H15125307   5.869   4.759   1.521  0.2159 -0.0854 -1.3703
   39MOL   H15225308   6.039   4.911   1.425  0.4557  0.8674  0.8103
   39MOL   H15325309   5.983   4.999   1.574 -1.0105  0.2809 -0.3386
   39MOL   H15425310   6.180   4.915   1.693 -0.9112  0.8771  0.7228
   39MOL   H15525311   6.238   4.835   1.547  2.7909  0.6377  1.2069
   39MOL   H15625312   6.190   5.129   1.580 -0.8846 -0.4103  1.4842
   39MOL   H15725313   6.350   5.056   1.593  0.1367 -0.4256  0.3391
   39MOL   H15825314   6.338   4.987   1.337  0.6949  0.9263  1.0222
   39MOL   H15925315   6.188   5.074   1.329 -0.4663  1.4943 -0.9345
   39MOL   H16025316   6.294   5.274   1.371 -1.0869 -0.8079  0.3980
   39MOL   H16125317   6.442   5.187   1.400 -0.3296  1.4836  0.9539
   39MOL   H16225318   6.466   5.104   1.172 -1.8922 -1.1899  0.4189
   39MOL   H16325319   6.306   5.158   1.128 -1.0539  2.4302  0.8978
   39MOL   H16425320   6.487   5.303   1.037 -1.8457  1.1619 -0.3180
   39MOL   H16525321   6.561   5.317   1.196 -0.5739 -1.1798  1.9203
   39MOL   H16625322   6.411   5.404   1.151 -0.5692 -0.5845 -1.9715
   39MOL   C16725323   5.900   4.548   1.751  0.5041  0.2327 -0.3828
   39MOL   C16825324   6.046   4.527   1.800 -0.0062  0.7273  0.2023
   39MOL   C16925325   6.099   4.406   1.713 -0.4583 -0.0487  0.3053
   39MOL   C17025326   6.257   4.396   1.724 -0.0601 -0.8606  0.3535
   39MOL   C17125327   6.286   4.239   1.711 -1.1599  0.5229  0.4248
   39MOL   C17225328   6.432   4.207   1.679 -0.5213 -0.5097  0.2065
   39MOL   C17325329   6.513   4.193   1.808 -0.1106  0.8509 -0.1036
   39MOL   C17425330   6.656   4.147   1.776  0.0465 -0.9636  0.4233
   39MOL   C17525331   6.752   4.178   1.884  0.1080  0.0170  0.5620
   39MOL   C17625332   6.892   4.127   1.853 -0.2960 -0.2165  0.4796
   39MOL   C17725333   6.978   4.151   1.968 -0.0747 -0.6795 -0.4827
   39MOL   H17825334   5.848   4.462   1.795 -0.1293  0.7414 -0.1279
   39MOL   H17925335   5.899   4.528   1.644 -0.4984 -2.4206  0.0659
   39MOL   H18025336   6.106   4.615   1.777 -1.4755  1.3189 -1.4952
   39MOL   H18125337   6.062   4.409   1.611  0.4526  1.1200 -0.0059
   39MOL   H18225338   6.053   4.322   1.764  0.1441 -1.8107 -1.9767
   39MOL   H18325339   6.302   4.460   1.649 -0.9903  1.5435  1.7698
   39MOL   H18425340   6.284   4.435   1.822 -0.9809  1.0668 -0.1232
   39MOL   H18525341   6.221   4.210   1.627  3.3184 -2.2735 -2.2716
   39MOL   H18625342   6.244   4.181   1.793 -2.6141  0.7803 -0.1128
   39MOL   H18725343   6.430   4.115   1.620  1.4964  0.4315 -1.3752
   39MOL   H18825344   6.462   4.295   1.622 -2.6096  0.6398  0.8248
   39MOL   H18925345   6.462   4.123   1.874 -1.2195  2.4031  0.7375
   39MOL   H19025346   6.517   4.288   1.863  1.2820  0.4789  0.4539
   39MOL   H19125347   6.666   4.046   1.736  1.9672 -0.7737  0.3930
   39MOL   H19225348   6.688   4.209   1.692 -1.2885 -0.3974  0.3147
   39MOL   H19325349   6.714   4.122   1.970 -2.5953 -0.3183 -0.7922
   39MOL   H19425350   6.753   4.285   1.903 -3.7762 -0.1220  1.8367
   39MOL   H19525351   6.940   4.170   1.765  0.9876 -0.7052  0.9244
   39MOL   H19625352   6.895   4.019   1.838  0.3849 -0.5343  2.7169
   39MOL   H19725353   7.074   4.100   1.963  0.5200  0.4717 -0.8558
   39MOL   H19825354   6.950   4.117   2.068  1.7976 -1.5067 -0.2128
   39MOL   H19925355   7.008   4.256   1.975  0.2182 -0.8792  1.8750
   39MOL   C20025356   6.049   4.506   1.954 -0.0643 -0.2156 -0.2149
   39MOL   C20125357   6.094   4.635   2.036  0.1430 -0.1788  0.5278
   39MOL   C20225358   6.242   4.680   2.031  0.4089  0.1480  0.5404
   39MOL   C20325359   6.331   4.594   2.120 -0.1221 -0.2767  0.9310
   39MOL   C20425360   6.475   4.613   2.084  0.0988 -0.6141 -0.7933
   39MOL   C20525361   6.556   4.542   2.194 -0.0480 -0.1287 -0.7871
   39MOL   C20625362   6.707   4.556   2.168 -0.3862 -0.7971 -0.3336
   39MOL   C20725363   6.785   4.525   2.298 -0.0460  0.1653 -0.6036
   39MOL   C20825364   6.760   4.392   2.360 -0.0895 -0.2936 -0.3752
   39MOL   C20925365   6.786   4.277   2.260 -0.1525 -0.0656 -0.3350
   39MOL   C21025366   6.781   4.134   2.313 -0.4648  0.4240 -0.0755
   39MOL   H21125367   5.954   4.469   1.992 -0.1352 -0.4365 -0.6028
   39MOL   H21225368   6.114   4.425   1.986  1.1838 -0.7343 -3.8417
   39MOL   H21325369   6.043   4.719   1.989 -1.9440 -0.9661  1.3305
   39MOL   H21425370   6.254   4.787   2.045  0.4421  0.1601  0.4189
   39MOL   H21525371   6.271   4.663   1.927  0.1479 -0.6920  0.5964
   39MOL   H21625372   6.319   4.485   2.119  0.5850 -0.3471 -0.6971
   39MOL   H21725373   6.310   4.622   2.223  2.0605  3.4976  0.4509
   39MOL   H21825374   6.486   4.721   2.094 -0.1639 -0.6978  0.5860
   39MOL   H21925375   6.505   4.586   1.983 -0.1501  1.5582 -1.4630
   39MOL   H22025376   6.530   4.588   2.290 -0.5362  0.5986 -1.2646
   39MOL   H22125377   6.525   4.438   2.207  2.6456 -0.8923 -0.1162
   39MOL   H22225378   6.734   4.655   2.133  2.0774 -1.1310  0.5770
   39MOL   H22325379   6.727   4.486   2.086 -0.2786 -0.6722 -0.4135
   39MOL   H22425380   6.758   4.600   2.373  0.3889 -0.2031 -0.0758
   39MOL   H22525381   6.888   4.559   2.286 -0.7220  2.0755 -1.2014
   39MOL   H22625382   6.663   4.379   2.408  0.0393 -0.1066 -0.0628
   39MOL   H22725383   6.839   4.381   2.433 -1.7542 -1.0180  1.3639
   39MOL   H22825384   6.715   4.287   2.177  1.0712 -0.4084 -1.4340
   39MOL   H22925385   6.879   4.285   2.203  1.0977  1.0931  1.8283
   39MOL   H23025386   6.683   4.105   2.353  0.2397 -0.1797  1.2322
   39MOL   H23125387   6.855   4.121   2.392 -2.5219 -1.9479  1.5591
   39MOL   H23225388   6.804   4.067   2.230  0.7252  1.1005 -0.2973
   39MOL   C23325389   6.030   4.637   2.178 -0.2007 -0.3211  0.5514
   39MOL   C23425390   6.032   4.778   2.242 -0.5028 -0.3962 -0.1412
   39MOL   C23525391   6.082   4.769   2.389  0.1200  0.3541 -0.9023
   39MOL   C23625392   6.125   4.908   2.446  0.4191 -0.2156 -0.4332
   39MOL   C23725393   6.157   4.911   2.599  0.9495 -0.1157  0.5946
   39MOL   C23825394   6.231   5.035   2.646  0.3256 -1.0354  0.5698
   39MOL   C23925395   6.262   5.056   2.793  0.0905  0.2312 -0.9808
   39MOL   C24025396   6.307   5.202   2.843 -0.0017  0.2841  0.0703
   39MOL   C24125397   6.436   5.250   2.778  0.0691  0.4606  0.1546
   39MOL   C24225398   6.476   5.382   2.837  0.0344  0.1294 -0.1783
   39MOL   C24325399   6.571   5.462   2.745  0.0699  0.6992  0.1636
   39MOL   H24425400   6.074   4.566   2.248  0.6971  0.6951  1.0394
   39MOL   H24525401   5.925   4.608   2.176 -0.5561  0.9538  0.1977
   39MOL   H24625402   6.103   4.836   2.184 -1.6399 -0.3929 -1.5742
   39MOL   H24725403   6.010   4.726   2.459 -0.3913  2.1917 -0.2749
   39MOL   H24825404   6.169   4.703   2.394  0.5314  0.7093 -2.8961
   39MOL   H24925405   6.054   4.991   2.444 -2.0379 -2.1951  1.3109
   39MOL   H25025406   6.212   4.934   2.387 -0.5721 -0.4107 -2.0186
   39MOL   H25125407   6.222   4.829   2.627  0.8627 -0.1010  0.8331
   39MOL   H25225408   6.061   4.896   2.648  0.1102 -0.1070 -1.0059
   39MOL   H25325409   6.161   5.116   2.623  1.4440  0.2835  1.7712
   39MOL   H25425410   6.325   5.050   2.593  1.3022 -1.6664  2.1065
   39MOL   H25525411   6.185   5.016   2.859  1.3879 -1.6465 -0.5892
   39MOL   H25625412   6.347   4.989   2.804 -0.8607 -0.8177  0.1619
   39MOL   H25725413   6.219   5.267   2.836  1.1816  2.0422  1.0666
   39MOL   H25825414   6.334   5.186   2.947 -0.2795 -0.0216  0.0948
   39MOL   H25925415   6.508   5.171   2.796  0.2784  0.4740 -0.6108
   39MOL   H26025416   6.408   5.262   2.673  0.9600  0.7196 -0.0526
   39MOL   H26125417   6.521   5.373   2.935 -0.0446  1.9090  0.0487
   39MOL   H26225418   6.395   5.452   2.859 -0.1342 -0.3415  0.7070
   39MOL   H26325419   6.612   5.551   2.795  1.5255 -0.1998  0.6203
   39MOL   H26425420   6.527   5.497   2.652  0.4689 -1.4925 -0.8817
   39MOL   H26525421   6.652   5.395   2.717 -1.6646 -1.2885 -0.1783
   39MOL   C26625422   5.893   4.852   2.236 -0.0940  0.5026  0.3464
   39MOL   C26725423   5.896   4.998   2.184 -0.5332  0.6670 -0.6397
   39MOL   C26825424   5.774   5.082   2.232  0.0990  0.6638 -0.2930
   39MOL   C26925425   5.780   5.127   2.378  0.2719  0.7203 -0.0023
   39MOL   C27025426   5.658   5.208   2.444  0.5050 -0.1432  0.3164
   39MOL   C27125427   5.525   5.131   2.449  0.3436  0.7019  0.1817
   39MOL   C27225428   5.433   5.195   2.545  0.4537  0.6496 -0.0408
   39MOL   C27325429   5.286   5.128   2.558  0.5436  0.5689  0.3819
   39MOL   C27425430   5.202   5.163   2.679 -0.6061 -0.7555  0.1366
   39MOL   C27525431   5.067   5.082   2.717 -0.0918  0.8564 -0.2184
   39MOL   C27625432   5.010   5.106   2.856 -0.3761  0.0036 -0.0233
   39MOL   H27725433   5.853   4.847   2.338 -1.6725  1.6329 -0.1964
   39MOL   H27825434   5.823   4.794   2.175  0.3486 -1.0786  1.3172
   39MOL   H27925435   5.983   5.047   2.229  0.0434 -0.3427 -0.6225
   39MOL   H28025436   5.783   5.173   2.172 -2.9883  2.1505  1.3687
   39MOL   H28125437   5.683   5.031   2.201  0.1489  1.0853 -1.1539
   39MOL   H28225438   5.867   5.194   2.383  0.5613  0.1938  3.1619
   39MOL   H28325439   5.794   5.042   2.445  0.7473  0.1140 -0.8659
   39MOL   H28425440   5.638   5.295   2.382  0.0306 -0.5797 -0.1580
   39MOL   H28525441   5.682   5.227   2.548 -0.7884 -0.4438  0.6881
   39MOL   H28625442   5.553   5.028   2.472  0.0547  0.8039  1.0377
   39MOL   H28725443   5.481   5.122   2.350 -0.7529  0.4685  0.6774
   39MOL   H28825444   5.466   5.204   2.648 -0.2906 -0.5249  0.3053
   39MOL   H28925445   5.400   5.291   2.505 -2.5400 -0.3786 -0.1029
   39MOL   H29025446   5.301   5.021   2.570 -0.4355  0.2421 -1.1676
   39MOL   H29125447   5.224   5.132   2.468 -0.3649  1.2530  1.0187
   39MOL   H29225448   5.267   5.178   2.765 -1.0087  1.0213  0.1468
   39MOL   H29325449   5.170   5.264   2.657  0.9861 -0.6009 -1.5886
   39MOL   H29425450   5.104   4.980   2.716 -0.4648  0.7262 -1.6563
   39MOL   H29525451   4.994   5.079   2.636 -0.0009  4.0232 -0.4911
   39MOL   H29625452   4.980   5.209   2.872  1.0185  0.3983  0.1250
   39MOL   H29725453   5.077   5.075   2.936 -1.1235  0.1599  0.6663
   39MOL   H29825454   4.913   5.059   2.872 -1.4467  1.3940 -2.2610
   39MOL   C29925455   5.906   5.017   2.024 -0.1529 -0.7079  0.0380
   39MOL   C30025456   5.978   5.142   1.978 -0.0467  0.1739  0.3253
   39MOL   C30125457   5.943   5.171   1.826 -0.4725  0.6562 -0.2742
   39MOL   C30225458   5.797   5.225   1.829  0.0512 -0.7145  0.7364
   39MOL   C30325459   5.731   5.239   1.690 -0.0184  1.0331 -0.6818
   39MOL   C30425460   5.578   5.257   1.688 -0.3544  0.0177  0.1576
   39MOL   C30525461   5.514   5.283   1.552 -0.6604 -0.2432  0.1087
   39MOL   C30625462   5.368   5.265   1.548  0.7969  0.9310  0.0145
   39MOL   C30725463   5.291   5.376   1.620  0.3951  0.2710  0.4383
   39MOL   C30825464   5.146   5.379   1.566  0.5767 -0.1849  0.2714
   39MOL   C30925465   5.121   5.436   1.422 -0.0135  0.1856 -0.3664
   39MOL   H31025466   5.808   5.002   1.979  0.0340 -1.2869 -0.1819
   39MOL   H31125467   5.961   4.928   1.993  0.2715 -0.9285  1.3560
   39MOL   H31225468   5.937   5.221   2.041 -0.9146 -0.8747  1.1049
   39MOL   H31325469   5.997   5.254   1.780 -0.5667  1.0002  0.2334
   39MOL   H31425470   5.947   5.074   1.776 -0.7350  1.8682 -2.6892
   39MOL   H31525471   5.731   5.154   1.878 -0.2551 -0.0421  1.3060
   39MOL   H31625472   5.789   5.319   1.884 -0.6386 -0.2300 -0.1919
   39MOL   H31725473   5.776   5.321   1.635 -1.5990  0.8078 -2.3505
   39MOL   H31825474   5.755   5.144   1.642  1.0053  0.5943  0.6413
   39MOL   H31925475   5.551   5.333   1.762 -1.0367 -0.1613  0.0947
   39MOL   H32025476   5.529   5.165   1.720 -0.1752  0.2377  1.1003
   39MOL   H32125477   5.545   5.383   1.522  0.6631  0.7395  4.4584
   39MOL   H32225478   5.558   5.219   1.475 -3.5065 -0.6599 -1.2160
   39MOL   H32325479   5.328   5.176   1.595  1.0587  0.0772 -1.3605
   39MOL   H32425480   5.342   5.268   1.443 -0.5083 -0.2166  0.3040
   39MOL   H32525481   5.340   5.472   1.604  1.5978  0.0694  2.7515
   39MOL   H32625482   5.291   5.354   1.726  3.4630  1.4678  0.7199
   39MOL   H32725483   5.099   5.448   1.636  1.2111  0.1904  0.3219
   39MOL   H32825484   5.086   5.288   1.575 -0.7874  0.5743 -0.7958
   39MOL   H32925485   5.153   5.354   1.357  0.0173 -0.3065  0.2623
   39MOL   H33025486   5.014   5.454   1.410 -0.3063 -1.3613 -0.1799
   39MOL   H33125487   5.171   5.529   1.396  1.0506  0.2553  1.8325
   39MOL   C33225488   6.128   5.140   2.010  0.3301  0.0463 -0.5270
   39MOL   C33325489   6.192   5.268   2.072  0.4773  0.0798  0.7104
   39MOL   C33425490   6.322   5.302   1.992  0.0655 -0.3415 -0.4623
   39MOL   C33525491   6.299   5.374   1.857 -0.7241 -0.3049 -0.7255
   39MOL   C33625492   6.428   5.415   1.784  0.1997 -0.3024 -0.3381
   39MOL   C33725493   6.379   5.481   1.658  0.1099 -0.3218  1.2033
   39MOL   C33825494   6.502   5.533   1.570 -0.8391 -0.0625 -0.1957
   39MOL   C33925495   6.591   5.633   1.648  0.4336 -0.1983 -0.3278
   39MOL   C34025496   6.682   5.707   1.549 -0.2942  0.1568 -0.0144
   39MOL   C34125497   6.763   5.809   1.629 -0.1394  0.9560  0.4706
   39MOL   C34225498   6.829   5.925   1.546 -0.6098 -0.8046 -0.1263
   39MOL   H34325499   6.135   5.061   2.084  1.7403 -1.1232 -1.8832
   39MOL   H34425500   6.173   5.098   1.920  0.2070  0.8489 -0.9677
   39MOL   H34525501   6.119   5.346   2.051 -1.2360 -1.4152  1.0785
   39MOL   H34625502   6.376   5.217   1.950  0.8989 -1.2311  2.2577
   39MOL   H34725503   6.397   5.353   2.052 -0.3999  0.8197 -0.8672
   39MOL   H34825504   6.232   5.310   1.800 -1.2950  0.8724 -1.3876
   39MOL   H34925505   6.241   5.463   1.878  1.6770  0.9961  0.6247
   39MOL   H35025506   6.487   5.478   1.851 -0.3310 -0.1560 -0.0038
   39MOL   H35125507   6.482   5.325   1.754  1.6319  0.4252  0.0046
   39MOL   H35225508   6.306   5.558   1.679  0.4696  0.4823 -0.3942
   39MOL   H35325509   6.321   5.416   1.592  2.0533 -1.1100  0.2253
   39MOL   H35425510   6.463   5.574   1.477  2.0744 -0.8908 -1.8516
   39MOL   H35525511   6.570   5.456   1.535  0.0971  0.5091  0.3452
   39MOL   H35625512   6.532   5.691   1.720 -1.3704 -0.8404 -1.2530
   39MOL   H35725513   6.655   5.571   1.709 -1.8029 -0.3277  1.9613
   39MOL   H35825514   6.625   5.746   1.465  0.7504  0.2019 -0.7063
   39MOL   H35925515   6.750   5.637   1.501  1.2940  2.8776 -1.8250
   39MOL   H36025516   6.841   5.766   1.693  0.2291  0.5471 -0.2563
   39MOL   H36125517   6.697   5.856   1.702  1.6494  0.2398  2.6373
   39MOL   H36225518   6.846   5.890   1.444  1.7722 -1.1619  0.3611
   39MOL   H36325519   6.756   6.006   1.538 -0.6570 -0.7575  0.7913
   39MOL   H36425520   6.930   5.939   1.583 -0.9622  1.8578 -0.0766
   39MOL   C36525521   6.219   5.266   2.228  0.8398 -0.5640 -0.2583
   39MOL   C36625522   6.264   5.396   2.293 -0.2174  0.1494  0.0049
   39MOL   C36725523   6.140   5.466   2.358  0.4284 -0.1637  0.2862
   39MOL   C36825524   6.007   5.477   2.270 -0.1788  0.3918  0.1054
   39MOL   C36925525   6.017   5.569   2.155 -0.4130 -0.3986 -0.0917
   39MOL   C37025526   5.893   5.585   2.065 -0.7661 -0.0505 -0.9443
   39MOL   C37125527   5.758   5.606   2.127  0.3998 -0.7179 -0.1324
   39MOL   C37225528   5.735   5.731   2.216 -0.2975 -0.2130 -0.2726
   39MOL   C37325529   5.598   5.746   2.287  0.3374 -0.2457  0.6141
   39MOL   C37425530   5.579   5.640   2.386 -0.2832  0.3928 -0.3008
   39MOL   C37525531   5.429   5.636   2.426 -0.8070  0.2764 -0.5896
   39MOL   H37625532   6.126   5.233   2.275  0.3915 -1.5094 -1.7829
   39MOL   H37725533   6.297   5.189   2.235  2.6942  1.4004  1.5043
   39MOL   H37825534   6.310   5.461   2.219 -0.8780 -1.8378 -2.2059
   39MOL   H37925535   6.171   5.569   2.371  0.0159 -0.1267  1.0402
   39MOL   H38025536   6.122   5.436   2.461  0.0948 -1.2294 -0.0757
   39MOL   H38125537   5.936   5.520   2.341  1.4067  0.2022  1.8436
   39MOL   H38225538   5.966   5.380   2.244  0.3280  0.5530 -1.3232
   39MOL   H38325539   6.094   5.534   2.086 -0.6528  0.5516 -0.8406
   39MOL   H38425540   6.053   5.665   2.190  0.5841 -0.1840 -1.6240
   39MOL   H38525541   5.892   5.488   2.016  2.0274 -1.9662  2.5984
   39MOL   H38625542   5.921   5.662   1.993  1.5715 -0.4080 -0.4516
   39MOL   H38725543   5.673   5.598   2.058  1.9865 -1.4534 -2.0384
   39MOL   H38825544   5.747   5.513   2.183  1.7657 -1.5787 -1.2486
   39MOL   H38925545   5.751   5.818   2.152  0.5946 -0.6167 -0.6028
   39MOL   H39025546   5.809   5.742   2.296  0.1316  0.2907 -0.7295
   39MOL   H39125547   5.589   5.848   2.324 -0.7104 -0.6919  1.5996
   39MOL   H39225548   5.517   5.740   2.215  2.7077 -2.0821 -2.0117
   39MOL   H39325549   5.598   5.541   2.344 -2.0390 -0.4044  0.7340
   39MOL   H39425550   5.648   5.653   2.468  0.5208  2.5146 -1.2698
   39MOL   H39525551   5.372   5.635   2.333  0.4820 -1.7227 -1.3862
   39MOL   H39625552   5.412   5.717   2.497  2.1161  0.1493  0.3472
   39MOL   H39725553   5.416   5.543   2.482 -0.9761  1.1535  0.8501
   39MOL   C39825554   6.374   5.367   2.406 -0.3723  0.7379  0.3254
   39MOL   C39925555   6.520   5.383   2.348 -0.1052  0.4097 -0.3596
   39MOL   C40025556   6.619   5.292   2.424 -0.1046  1.3164  0.4275
   39MOL   C40125557   6.585   5.136   2.416 -1.0795 -0.2005  0.1838
   39MOL   C40225558   6.693   5.051   2.473 -0.1849  0.6215 -0.2847
   39MOL   C40325559   6.662   4.901   2.464 -0.2061 -1.0618  0.1099
   39MOL   C40425560   6.565   4.844   2.567  0.4275 -0.7633  0.3013
   39MOL   C40525561   6.511   4.711   2.519 -0.1498  0.6363  0.2943
   39MOL   C40625562   6.425   4.640   2.622  0.8740 -0.0421  0.0743
   39MOL   C40725563   6.498   4.521   2.690 -0.2009 -0.0069  0.6267
   39MOL   C40825564   6.644   4.552   2.743  0.4561  0.6259 -0.2629
   39MOL   H40925565   6.346   5.267   2.441  0.0364  0.3607 -0.4144
   39MOL   H41025566   6.368   5.424   2.498 -1.1889  1.1345  0.0326
   39MOL   H41125567   6.523   5.349   2.245 -0.3562  0.5814 -0.4234
   39MOL   H41225568   6.643   5.319   2.527 -0.3726  1.2037  0.5215
   39MOL   H41325569   6.715   5.303   2.375 -0.2849  1.0834  0.0164
   39MOL   H41425570   6.490   5.105   2.460 -1.9391  0.7662 -0.9469
   39MOL   H41525571   6.586   5.098   2.314  1.0889 -1.1098  0.5335
   39MOL   H41625572   6.789   5.066   2.423 -0.2554 -1.8791 -1.2785
   39MOL   H41725573   6.701   5.063   2.581 -0.3100 -1.7336  0.0160
   39MOL   H41825574   6.758   4.852   2.482  0.2437 -0.5422 -0.8256
   39MOL   H41925575   6.632   4.892   2.360  1.1705 -0.8163 -0.3204
   39MOL   H42025576   6.605   4.841   2.668  0.2621 -1.0463  0.3586
   39MOL   H42125577   6.487   4.921   2.571  1.6165  0.4027  1.6226
   39MOL   H42225578   6.590   4.639   2.501 -0.3541  0.8485 -1.5440
   39MOL   H42325579   6.449   4.732   2.432 -0.7043  0.4177  0.6337
   39MOL   H42425580   6.388   4.708   2.699 -0.6278 -1.2004  0.4035
   39MOL   H42525581   6.330   4.604   2.582 -1.2643  2.8376  2.2588
   39MOL   H42625582   6.512   4.451   2.608  1.1686  2.0924 -0.9822
   39MOL   H42725583   6.433   4.469   2.761  0.9630 -3.2839 -0.6169
   39MOL   H42825584   6.645   4.634   2.814  2.8328 -0.1253  0.6357
   39MOL   H42925585   6.713   4.581   2.663 -0.2731 -0.4381 -1.3029
   39MOL   H43025586   6.674   4.463   2.798  0.3664 -0.4610 -1.9122
   39MOL   C43125587   6.574   5.530   2.362  0.2747  0.5928  0.3544
   39MOL   C43225588   6.606   5.592   2.228 -0.3462 -0.1405  0.4381
   39MOL   C43325589   6.733   5.541   2.167  0.3450  0.2907  0.0820
   39MOL   C43425590   6.745   5.575   2.015  0.3323  0.2193  0.3573
   39MOL   C43525591   6.867   5.505   1.947  0.1168  0.3910  0.7950
   39MOL   C43625592   6.848   5.372   1.874 -0.1491  0.5611  0.0393
   39MOL   C43725593   6.805   5.253   1.965 -0.6958 -0.0508  0.2440
   39MOL   C43825594   6.790   5.111   1.900  0.0487 -0.0714  0.0141
   39MOL   C43925595   6.733   5.000   1.991 -0.3932 -0.0835  0.0483
   39MOL   C44025596   6.584   5.004   1.993  0.3934  0.6120  0.3444
   39MOL   C44125597   6.514   4.959   1.859 -0.7757  0.4241  0.1058
   39MOL   H44225598   6.667   5.533   2.419  1.8340  0.8695 -2.1670
   39MOL   H44325599   6.502   5.588   2.421 -1.9502  0.5137 -2.2024
   39MOL   H44425600   6.534   5.547   2.160 -0.7759 -1.0199  1.4689
   39MOL   H44525601   6.818   5.593   2.210  1.1656  0.3619 -1.5642
   39MOL   H44625602   6.745   5.433   2.176  0.7009  0.0796 -2.3678
   39MOL   H44725603   6.762   5.681   1.997 -2.3167  0.5168 -0.7029
   39MOL   H44825604   6.656   5.549   1.956  0.3226  0.5924  0.2005
   39MOL   H44925605   6.941   5.489   2.026 -1.7662  1.2693  2.8088
   39MOL   H45025606   6.915   5.565   1.870  1.5278  0.3669  1.6345
   39MOL   H45125607   6.951   5.350   1.846  0.2991  1.3721  0.9801
   39MOL   H45225608   6.776   5.389   1.794 -0.4813 -1.2221 -0.0436
   39MOL   H45325609   6.702   5.270   1.998 -1.0741  0.6155 -1.2384
   39MOL   H45425610   6.856   5.250   2.061  1.5906  0.2475 -0.9283
   39MOL   H45525611   6.748   5.107   1.799 -1.1780 -1.4838  0.5613
   39MOL   H45625612   6.892   5.077   1.884  0.3087  1.2300 -1.2169
   39MOL   H45725613   6.774   5.003   2.092 -0.3136 -0.7459  0.0394
   39MOL   H45825614   6.771   4.905   1.953 -1.2489 -0.6787  0.6601
   39MOL   H45925615   6.549   5.096   2.039 -2.7449 -0.0096 -0.7213
   39MOL   H46025616   6.564   4.935   2.075 -0.3355  2.8706  2.1077
   39MOL   H46125617   6.495   5.048   1.799  2.4614  0.6114 -0.7589
   39MOL   H46225618   6.574   4.878   1.818 -3.0408 -1.8699  1.2183
   39MOL   H46325619   6.421   4.913   1.890 -1.2814  1.1642 -0.3005
   39MOL   C46425620   6.591   5.748   2.226  0.3549  0.2485  0.8036
   39MOL   C46525621   6.450   5.814   2.207 -0.3933 -0.6426 -0.5619
   39MOL   C46625622   6.375   5.766   2.080  0.9835 -0.8373 -0.0834
   39MOL   C46725623   6.252   5.839   2.020 -0.2980  0.4509  0.4994
   39MOL   C46825624   6.196   5.778   1.894 -0.2700 -0.5086  0.2623
   39MOL   C46925625   6.076   5.853   1.836  0.1363  0.0952  0.8349
   39MOL   C47025626   6.030   5.795   1.697  0.8620  0.0295  1.3745
   39MOL   C47125627   5.912   5.696   1.695  0.4789  0.5487 -0.2939
   39MOL   C47225628   5.778   5.756   1.743  0.0473  0.6853  0.0870
   39MOL   C47325629   5.668   5.655   1.759  0.2970  0.2579  0.4958
   39MOL   C47425630   5.530   5.710   1.801 -0.0997  0.0738 -0.7181
   39MOL   H47525631   6.652   5.790   2.145 -0.7368  2.8432  1.2881
   39MOL   H47625632   6.639   5.783   2.317  1.5296  0.8918 -0.0548
   39MOL   H47725633   6.473   5.920   2.199  0.5255 -0.5530  2.5233
   39MOL   H47825634   6.337   5.668   2.111  1.0570 -0.9259 -0.2661
   39MOL   H47925635   6.450   5.769   2.001  1.5091  2.6805  0.4733
   39MOL   H48025636   6.160   5.840   2.079 -0.6946 -3.8245  0.0941
   39MOL   H48125637   6.276   5.943   1.997 -0.2854  0.2089 -0.6189
   39MOL   H48225638   6.173   5.673   1.916  0.2117 -0.9289 -1.2084
   39MOL   H48325639   6.272   5.756   1.819 -1.2123 -0.7224 -0.6377
   39MOL   H48425640   5.998   5.870   1.911 -0.2789  0.1658  0.3874
   39MOL   H48525641   6.116   5.954   1.825 -1.5401  0.6943  0.1121
   39MOL   H48625642   5.988   5.882   1.646  1.2696 -0.0503  0.8909
   39MOL   H48725643   6.115   5.752   1.644 -0.1790 -1.9590  1.2625
   39MOL   H48825644   5.914   5.663   1.591  1.7219  2.3434 -0.8669
   39MOL   H48925645   5.943   5.608   1.750  2.0206  0.6106 -1.0127
   39MOL   H49025646   5.790   5.821   1.830 -1.5667 -0.0964  0.9103
   39MOL   H49125647   5.749   5.834   1.672  1.4524 -0.0365 -1.3093
   39MOL   H49225648   5.661   5.610   1.660  0.7719 -1.1336  1.0782
   39MOL   H49325649   5.697   5.573   1.826 -2.7079 -0.1957  1.3637
   39MOL   H49425650   5.539   5.766   1.894 -2.1219  2.1355 -1.7400
   39MOL   H49525651   5.454   5.636   1.825  2.5089 -2.1999  0.8971
   39MOL   H49625652   5.491   5.780   1.727 -0.6427 -0.7802 -1.2617
   39MOL   C49725653   6.352   5.815   2.331  0.4749 -0.2928 -0.0302
   39MOL   C49825654   6.389   5.916   2.442  0.5458 -0.2594 -0.6078
   39MOL   C49925655   6.309   5.875   2.573 -0.5260 -0.1309 -0.9095
   39MOL   C50025656   6.336   5.966   2.698  0.1825 -0.3512  0.3836
   39MOL   C50125657   6.242   5.934   2.811  0.3710 -0.2366 -0.3091
   39MOL   C50225658   6.147   6.045   2.841  0.9398 -0.1658 -0.1860
   39MOL   C50325659   6.041   6.001   2.946 -0.1510 -0.2364 -0.1286
   39MOL   C50425660   5.933   6.109   2.961  0.0859  0.5456 -0.3234
   39MOL   C50525661   5.855   6.076   3.092  0.2726  0.8430  0.0672
   39MOL   C50625662   5.797   6.209   3.143 -0.0814 -0.2194 -0.1961
   39MOL   C50725663   5.698   6.285   3.054  0.6205 -0.3411 -0.5122
   39MOL   H50825664   6.250   5.836   2.298  1.7072  4.1396 -1.2568
   39MOL   H50925665   6.351   5.715   2.375  0.7047 -0.8100 -1.1950
   39MOL   H51025666   6.496   5.895   2.450 -0.0018 -2.6334  0.8832
   39MOL   H51125667   6.334   5.771   2.597  1.2369  0.4423 -0.2135
   39MOL   H51225668   6.204   5.880   2.543 -0.7423  1.8382  0.1512
   39MOL   H51325669   6.345   6.070   2.668 -0.4883  0.0139  1.4306
   39MOL   H51425670   6.437   5.938   2.730  1.0488  0.0129 -1.9639
   39MOL   H51525671   6.195   5.839   2.782 -1.1974  0.3796  0.1762
   39MOL   H51625672   6.290   5.902   2.903  0.8377  0.8524 -0.1742
   39MOL   H51725673   6.190   6.143   2.862  0.8926  0.0699 -1.1384
   39MOL   H51825674   6.090   6.057   2.749  0.3409 -5.0557 -0.5866
   39MOL   H51925675   5.983   5.914   2.912 -0.4655  0.4303 -1.3173
   39MOL   H52025676   6.090   5.970   3.038 -1.0042 -1.3202 -0.0334
   39MOL   H52125677   5.867   6.084   2.878  0.3079  1.4124 -0.7618
   39MOL   H52225678   5.974   6.210   2.958 -1.0454  1.1037  1.9691
   39MOL   H52325679   5.915   6.045   3.178  1.1588 -1.1300 -1.2068
   39MOL   H52425680   5.782   5.996   3.079  1.7595 -0.7009  0.9446
   39MOL   H52525681   5.875   6.276   3.179 -1.5322  1.2101  0.3447
   39MOL   H52625682   5.737   6.187   3.231  0.7481  1.1924  0.7475
   39MOL   H52725683   5.653   6.372   3.103 -0.5847 -0.7204 -0.9366
   39MOL   H52825684   5.618   6.230   3.005 -0.2018  2.6322 -2.6507
   39MOL   H52925685   5.751   6.325   2.967  4.5538 -1.4964  1.2479
   39MOL   C53025686   6.350   6.064   2.397 -0.1080  0.4388 -0.3004
   39MOL   C53125687   6.471   6.166   2.387  0.3292  0.2060 -0.2190
   39MOL   C53225688   6.550   6.185   2.519  0.8143 -0.2689  0.9111
   39MOL   C53325689   6.686   6.261   2.505 -1.0153 -0.1205  0.5862
   39MOL   C53425690   6.790   6.178   2.424 -0.2302  0.0786  0.4150
   39MOL   C53525691   6.925   6.250   2.419 -0.6390 -0.0304 -0.2499
   39MOL   C53625692   6.927   6.378   2.346  0.7485 -0.6329  0.7004
   39MOL   C53725693   7.073   6.444   2.341  0.4169  0.7956  0.3562
   39MOL   C53825694   7.075   6.575   2.260 -0.6520  0.1605  0.5609
   39MOL   C53925695   7.212   6.653   2.281  0.2377  0.1860 -0.2352
   39MOL   C54025696   7.328   6.596   2.198  1.0932  0.2733  0.1306
   39MOL   H54125697   6.300   6.068   2.300 -0.8285  1.0455  0.0947
   39MOL   H54225698   6.270   6.100   2.461  0.0406 -0.9171  0.6613
   39MOL   H54325699   6.538   6.116   2.317 -0.3859  0.4147 -1.0539
   39MOL   H54425700   6.568   6.087   2.565  0.1173 -0.2501  1.2156
   39MOL   H54525701   6.492   6.241   2.592  2.0206  0.0482  1.6449
   39MOL   H54625702   6.724   6.261   2.608 -1.4635 -0.5681  0.7517
   39MOL   H54725703   6.682   6.363   2.468 -1.9664  0.0333  1.0923
   39MOL   H54825704   6.763   6.174   2.318 -1.3460 -2.8694  0.7794
   39MOL   H54925705   6.779   6.076   2.460  0.3802  0.5200  1.8972
   39MOL   H55025706   7.003   6.189   2.374 -0.6212 -0.3355  0.1866
   39MOL   H55125707   6.974   6.265   2.515 -0.2615 -0.6416 -0.3413
   39MOL   H55225708   6.862   6.454   2.391  1.8845  0.5025  0.4445
   39MOL   H55325709   6.892   6.358   2.245 -2.8219 -0.7919  1.8872
   39MOL   H55425710   7.138   6.380   2.282  0.2341  1.1636 -0.2616
   39MOL   H55525711   7.098   6.453   2.446  0.7998  0.3588  0.3033
   39MOL   H55625712   6.993   6.629   2.305 -2.6935 -0.5349 -2.1633
   39MOL   H55725713   7.052   6.568   2.153  0.8638  1.8204  0.1005
   39MOL   H55825714   7.249   6.656   2.384 -0.3488  2.6835 -0.0619
   39MOL   H55925715   7.205   6.758   2.252  2.2566  0.7809  1.3241
   39MOL   H56025716   7.420   6.654   2.188  0.6506  0.8960 -0.4033
   39MOL   H56125717   7.354   6.494   2.228 -0.5001  0.2472  1.4418
   39MOL   H56225718   7.301   6.598   2.092 -0.9959  0.5342  0.6583
   39MOL   C56325719   6.433   6.309   2.331  0.4936 -0.0219  0.7803
   39MOL   C56425720   6.520   6.359   2.210 -0.5521 -0.8373 -0.2953
   39MOL   C56525721   6.515   6.512   2.188 -0.2381 -0.2667  0.6547
   39MOL   C56625722   6.612   6.593   2.275 -1.0557 -0.0223  0.0533
   39MOL   C56725723   6.612   6.745   2.263  0.6388  0.3792 -0.3407
   39MOL   C56825724   6.674   6.804   2.392  0.6708  0.1368 -0.3231
   39MOL   C56925725   6.571   6.831   2.502  0.4625  0.4212 -0.4751
   39MOL   C57025726   6.620   6.911   2.618 -0.4083 -0.7970  0.0392
   39MOL   C57125727   6.517   6.922   2.732  0.9185 -0.2408 -0.2374
   39MOL   C57225728   6.558   7.005   2.849 -0.1515 -0.3708 -0.0332
   39MOL   C57325729   6.674   6.940   2.928 -0.8002  0.1485 -0.1229
   39MOL   H57425730   6.425   6.383   2.410  0.0088 -3.3820  4.0088
   39MOL   H57525731   6.330   6.306   2.296  0.6552  1.1924  0.1708
   39MOL   H57625732   6.623   6.329   2.231 -0.4960  0.7601  1.8556
   39MOL   H57725733   6.413   6.549   2.199 -1.2004 -2.7054  0.2469
   39MOL   H57825734   6.531   6.529   2.081 -1.3228 -1.3962  0.2995
   39MOL   H57925735   6.714   6.557   2.260 -0.8928 -0.3197  1.8354
   39MOL   H58025736   6.585   6.570   2.377  1.3461  1.4436  1.0874
   39MOL   H58125737   6.509   6.777   2.252  0.9194  0.5775 -2.6221
   39MOL   H58225738   6.668   6.777   2.175  2.2085 -0.4245  0.3540
   39MOL   H58325739   6.761   6.753   2.434  0.4493 -1.1937 -1.4593
   39MOL   H58425740   6.727   6.893   2.358  0.2693 -0.6344 -3.0799
   39MOL   H58525741   6.477   6.873   2.466 -0.0240  0.1284  0.4134
   39MOL   H58625742   6.542   6.736   2.548  0.1938  1.1777  0.9513
   39MOL   H58725743   6.647   7.012   2.588  1.7628 -1.5731 -0.7390
   39MOL   H58825744   6.710   6.868   2.660 -0.9611 -0.8591  1.1683
   39MOL   H58925745   6.475   6.824   2.755 -0.4803  0.4909  0.4205
   39MOL   H59025746   6.425   6.969   2.697  0.8475  1.0764  1.6200
   39MOL   H59125747   6.482   7.031   2.922  0.8868  2.1020  0.1977
   39MOL   H59225748   6.576   7.109   2.823 -0.2998  0.0205  1.3940
   39MOL   H59325749   6.760   6.917   2.865 -1.0017 -0.3136 -0.2254
   39MOL   H59425750   6.711   6.998   3.013 -0.2980  1.2941 -1.1051
   39MOL   H59525751   6.642   6.847   2.975  0.8772 -0.3694  0.0104
   39MOL   C59625752   6.485   6.276   2.083 -0.5620  0.1812 -0.3658
   39MOL   C59725753   6.602   6.195   2.027  0.3782 -0.5834 -0.0035
   39MOL   C59825754   6.707   6.283   1.963 -0.1729  1.0698  0.2009
   39MOL   C59925755   6.841   6.216   1.929 -0.1167 -0.4254  0.1076
   39MOL   C60025756   6.968   6.298   1.938 -0.1454  0.9598 -0.3360
   39MOL   C60125757   7.094   6.214   1.931 -0.6978  0.4130 -0.1190
   39MOL   C60225758   7.218   6.292   1.955 -0.5532 -0.3894  0.8610
   39MOL   C60325759   7.344   6.225   1.890  0.8489  0.2518  0.1657
   39MOL   C60425760   7.455   6.321   1.831 -0.2114  0.7138 -0.0570
   39MOL   C60525761   7.509   6.428   1.925 -0.8065  0.0718 -0.4024
   39MOL   C60625762   7.630   6.508   1.864  0.0648 -0.0279 -0.0786
   39MOL   H60725763   6.399   6.212   2.102  0.5533 -1.2687 -0.1096
   39MOL   H60825764   6.445   6.351   2.014  0.0978  0.9759  0.0973
   39MOL   H60925765   6.649   6.138   2.108 -2.0057 -1.4241  0.8290
   39MOL   H61025766   6.738   6.357   2.038  0.1780  1.1583 -0.0310
   39MOL   H61125767   6.672   6.340   1.877 -2.2928 -0.5317 -0.0293
   39MOL   H61225768   6.823   6.173   1.830  0.1809  1.4144 -0.7726
   39MOL   H61325769   6.856   6.126   1.988  1.6990 -0.8490 -0.9574
   39MOL   H61425770   6.965   6.351   2.034  3.2409 -2.9050  2.0914
   39MOL   H61525771   6.974   6.366   1.853 -1.8682 -0.3024 -1.4969
   39MOL   H61625772   7.076   6.136   2.004  0.3807  1.4601  1.2813
   39MOL   H61725773   7.098   6.162   1.835 -0.2808  2.4977 -1.2723
   39MOL   H61825774   7.221   6.308   2.063 -0.9909  1.6309  0.6016
   39MOL   H61925775   7.205   6.387   1.903 -1.9125  0.1209  2.0924
   39MOL   H62025776   7.313   6.154   1.813 -0.5670 -1.9417  2.6772
   39MOL   H62125777   7.389   6.173   1.975  3.0473  0.1095 -1.0534
   39MOL   H62225778   7.532   6.252   1.797 -1.0938 -0.2774 -0.0821
   39MOL   H62325779   7.416   6.369   1.741  1.2277 -0.7519 -1.4871
   39MOL   H62425780   7.536   6.377   2.018  0.9818  0.8292 -0.4945
   39MOL   H62525781   7.426   6.495   1.949  0.5039  0.7269  2.4999
   39MOL   H62625782   7.608   6.571   1.777  0.8919  1.2293  0.6014
   39MOL   H62725783   7.671   6.572   1.942  0.6572 -0.5618  0.0481
   39MOL   H62825784   0.006   6.443   1.830 -0.5095 -1.1646  0.7233
   39MOL   C62925785   6.554   6.085   1.933 -0.3282 -0.4587  0.2183
   39MOL   C63025786   6.460   6.123   1.818  0.1015  0.9022 -0.2927
   39MOL   C63125787   6.460   6.007   1.703 -0.4032 -0.4982 -0.3802
   39MOL   C63225788   6.349   6.009   1.607 -0.8036 -0.7332 -0.3292
   39MOL   C63325789   6.361   5.904   1.493  0.4305 -0.1552 -0.3812
   39MOL   C63425790   6.255   5.928   1.386  0.0017 -0.2834 -0.1879
   39MOL   C63525791   6.239   5.818   1.272  0.1511 -1.1270 -0.3981
   39MOL   C63625792   6.182   5.853   1.135 -0.2444  0.0074  0.1060
   39MOL   C63725793   6.181   5.741   1.033  0.2494  0.1149 -0.0276
   39MOL   C63825794   6.108   5.608   1.066 -0.5357 -0.2979 -0.0721
   39MOL   C63925795   6.124   5.500   0.950 -0.2309  0.1428 -0.0001
   39MOL   H64025796   6.641   6.048   1.880 -1.7492 -2.5162 -0.7572
   39MOL   H64125797   6.518   5.996   1.984  1.7284 -0.5969  1.4508
   39MOL   H64225798   6.357   6.135   1.850  1.1290  0.4486  3.3715
   39MOL   H64325799   6.547   6.023   1.639 -1.3501 -0.4193 -1.6601
   39MOL   H64425800   6.467   5.907   1.747  2.1606 -0.3127 -0.2431
   39MOL   H64525801   6.332   6.114   1.580 -0.3201  0.4772  3.6935
   39MOL   H64625802   6.253   5.998   1.659  0.0031  0.3889  1.4561
   39MOL   H64725803   6.356   5.805   1.538 -0.4408  1.2938  2.9082
   39MOL   H64825804   6.457   5.904   1.441 -0.5047  1.2237 -2.1800
   39MOL   H64925805   6.304   6.014   1.341 -0.0534  0.9669  2.0627
   39MOL   H65025806   6.156   5.956   1.423  0.9453  0.2421  1.9889
   39MOL   H65125807   6.195   5.726   1.313 -0.0005 -0.8580  0.0573
   39MOL   H65225808   6.342   5.785   1.259  1.2352  2.1346 -0.3075
   39MOL   H65325809   6.235   5.938   1.090  2.4118 -1.8194 -0.3457
   39MOL   H65425810   6.079   5.875   1.160 -0.4576 -1.5843  0.6706
   39MOL   H65525811   6.284   5.728   0.999  1.5469  1.3566  3.1626
   39MOL   H65625812   6.133   5.793   0.951  0.0143  1.5216  0.9882
   39MOL   H65725813   6.008   5.636   1.096 -0.7802 -1.9219  0.6605
   39MOL   H65825814   6.154   5.558   1.151  0.6597  0.8041 -0.0508
   39MOL   H65925815   6.049   5.422   0.963 -1.0118  0.8488 -0.1750
   39MOL   H66025816   6.220   5.448   0.952  0.3249  1.1347 -0.7044
   39MOL   H66125817   6.107   5.556   0.858  0.5050  1.2304  0.5101
   39MOL   H66225818   6.488   6.221   1.777  3.8898 -0.4735 -1.1611
   40MOL     C125819   0.816   3.689   2.941  1.1693 -0.0486 -0.3814
   40MOL     C225820   0.801   3.838   2.920  0.7506 -0.2352  0.0034
   40MOL     C325821   0.710   3.899   3.027 -0.0004  0.1394  0.0203
   40MOL     C425822   0.570   3.837   3.021  0.2219  0.1630 -0.2444
   40MOL     C525823   0.476   3.876   3.134  0.2589  0.3488 -0.2326
   40MOL     C625824   0.518   3.832   3.283 -0.3731 -0.4123 -0.5174
   40MOL     C725825   0.427   3.882   3.393 -0.4722  0.0969  0.0741
   40MOL     C825826   0.316   3.772   3.421  0.5215 -0.2439  0.2485
   40MOL     C925827   0.208   3.837   3.513  0.0796 -1.0348 -0.4440
   40MOL    C1025828   0.086   3.745   3.542  0.0082 -0.6789 -0.1223
   40MOL    C1125829   7.701   3.797   3.656 -0.3747  0.0961 -0.0888
   40MOL    H1225830   0.895   3.640   2.884  0.3470 -2.7013  0.6681
   40MOL    H1325831   0.724   3.638   2.910  0.9975 -1.0477  1.6742
   40MOL    H1425832   0.742   3.858   2.830  0.9397  2.3579  0.3946
   40MOL    H1525833   0.697   4.007   3.019  0.5033  0.0657 -1.9940
   40MOL    H1625834   0.744   3.880   3.129 -3.4839 -0.1878  1.1928
   40MOL    H1725835   0.569   3.728   3.012  0.0612  0.3190 -2.2204
   40MOL    H1825836   0.517   3.878   2.935  0.6891 -0.7700 -0.9817
   40MOL    H1925837   0.469   3.985   3.141 -0.7617  0.1002  3.0804
   40MOL    H2025838   0.377   3.831   3.129 -0.6487  1.9899  2.1736
   40MOL    H2125839   0.621   3.856   3.308 -0.7660  0.4983  0.2292
   40MOL    H2225840   0.529   3.723   3.282  0.3934 -0.3496 -3.3607
   40MOL    H2325841   0.485   3.906   3.482  1.9933 -0.4937 -1.3247
   40MOL    H2425842   0.381   3.978   3.373 -0.0541  0.4767  0.9267
   40MOL    H2525843   0.359   3.685   3.471 -0.1470 -0.9035 -0.3146
   40MOL    H2625844   0.275   3.735   3.327 -1.7080  1.5255  0.4658
   40MOL    H2725845   0.174   3.921   3.453  1.3195  0.2041  0.5620
   40MOL    H2825846   0.261   3.880   3.598  0.3146 -0.3239 -0.9444
   40MOL    H2925847   0.128   3.646   3.561 -0.8952 -1.2860 -1.2622
   40MOL    H3025848   0.038   3.726   3.446 -1.1688  1.5702 -0.0030
   40MOL    H3125849   0.057   3.791   3.747  0.0469 -0.2872 -0.3840
   40MOL    H3225850   7.658   3.897   3.652  0.2674  0.4502  1.4871
   40MOL    H3325851   7.631   3.715   3.672  1.8261 -1.4468  1.9829
   40MOL    H3425852   0.826   3.653   3.043  0.0863  0.1161 -0.2119
   40MOL    C3525853   0.929   3.911   2.901 -0.0998 -1.1270  0.4213
   40MOL    C3625854   1.028   3.904   3.018  0.4287  0.2523  0.6813
   40MOL    C3725855   1.174   3.896   2.973 -0.6293 -0.6987  0.0286
   40MOL    C3825856   1.223   3.754   2.947  0.2440  0.0458  0.3110
   40MOL    C3925857   1.368   3.758   2.897  0.8374 -0.0261  0.4838
   40MOL    C4025858   1.414   3.622   2.855 -0.4069  0.4297  0.7304
   40MOL    C4125859   1.369   3.574   2.719 -0.3073  0.0778  0.1463
   40MOL    C4225860   1.441   3.448   2.678 -0.2753 -0.1937  0.2493
   40MOL    C4325861   1.394   3.405   2.532 -0.3953  0.6386  0.2532
   40MOL    C4425862   1.458   3.271   2.489  0.5683  0.1988  0.4470
   40MOL    C4525863   1.440   3.246   2.340 -0.3603 -0.6313  0.5982
   40MOL    H4625864   0.913   4.017   2.880  1.2325 -0.5852  1.9506
   40MOL    H4725865   0.976   3.882   2.807 -2.0255 -0.3171 -0.8120
   40MOL    H4825866   0.995   3.810   3.061 -1.7133  0.1055 -1.1916
   40MOL    H4925867   1.192   3.968   2.893  0.1417 -0.5007  0.3739
   40MOL    H5025868   1.237   3.926   3.057  1.7499 -1.3256 -1.5009
   40MOL    H5125869   1.162   3.709   2.869  1.0664  0.7351 -0.7411
   40MOL    H5225870   1.214   3.688   3.034 -0.1286 -0.6712 -0.2675
   40MOL    H5325871   1.429   3.800   2.976  1.7007 -0.4908  0.0785
   40MOL    H5425872   1.375   3.826   2.812  0.1614 -0.6710 -0.0970
   40MOL    H5525873   1.396   3.552   2.936 -1.8004 -0.0927 -0.0088
   40MOL    H5625874   1.523   3.624   2.849 -0.3694 -2.4358 -0.8820
   40MOL    H5725875   1.264   3.547   2.707 -0.0503 -1.2731  0.8491
   40MOL    H5825876   1.391   3.649   2.643 -0.3155 -1.3092 -1.2464
   40MOL    H5925877   1.428   3.378   2.760  0.1518  1.3922  1.7137
   40MOL    H6025878   1.546   3.480   2.676 -0.5585  0.7622  0.1885
   40MOL    H6125879   1.419   3.489   2.467 -0.9320  0.1582 -0.5812
   40MOL    H6225880   1.286   3.389   2.529 -0.2645 -1.3238  3.5708
   40MOL    H6325881   1.560   3.266   2.526  0.3103  0.2133  1.1698
   40MOL    H6425882   1.399   3.193   2.537 -2.7339  2.5803  0.5005
   40MOL    H6525883   1.485   3.327   2.283  1.9307 -1.9237  0.5194
   40MOL    H6625884   1.505   3.162   2.318  0.4683  0.6730 -2.1860
   40MOL    H6725885   1.336   3.237   2.307 -0.4981  0.8475  0.5716
   40MOL    C6825886   1.020   4.037   3.105  0.2002  0.3265  0.6259
   40MOL    C6925887   1.050   4.017   3.253  0.4051  0.1448  0.0673
   40MOL    C7025888   1.097   4.152   3.321  0.9500 -0.4970  0.0633
   40MOL    C7125889   1.228   4.211   3.273  0.4046 -0.3292 -0.3697
   40MOL    C7225890   1.261   4.345   3.332  0.4458 -0.7024 -0.4745
   40MOL    C7325891   1.405   4.402   3.317 -0.1020  0.5178 -0.1568
   40MOL    C7425892   1.513   4.351   3.423  0.0017  0.4813 -0.3982
   40MOL    C7525893   1.506   4.421   3.557 -0.4692 -0.2140 -0.1902
   40MOL    C7625894   1.614   4.372   3.654 -1.0777  0.3546  0.0286
   40MOL    C7725895   1.608   4.420   3.807  0.7251  0.2347 -0.3009
   40MOL    C7825896   1.706   4.337   3.887 -0.4379 -0.2933 -0.1006
   40MOL    H7925897   0.915   4.063   3.093 -0.2073 -1.6839 -0.4761
   40MOL    H8025898   1.082   4.118   3.067  0.7035  0.0712  0.8945
   40MOL    H8125899   1.132   3.947   3.268 -1.4441 -1.5315  2.8333
   40MOL    H8225900   1.105   4.132   3.428 -0.6269  1.5030  0.5986
   40MOL    H8325901   1.016   4.226   3.316 -1.0042 -2.6658 -1.6828
   40MOL    H8425902   1.306   4.143   3.306  0.7175 -0.4615 -1.3694
   40MOL    H8525903   1.238   4.216   3.165  2.8005  0.0686 -0.1471
   40MOL    H8625904   1.232   4.355   3.437 -0.5245  0.5879 -0.8534
   40MOL    H8725905   1.200   4.416   3.276  2.5513  0.6642 -1.1111
   40MOL    H8825906   1.448   4.381   3.219  1.6121 -2.2011  1.1275
   40MOL    H8925907   1.379   4.507   3.326 -3.0623 -0.0333 -1.6787
   40MOL    H9025908   1.609   4.365   3.373  0.9529 -1.1890  0.9161
   40MOL    H9125909   1.505   4.243   3.434 -0.0841  0.4625 -0.6436
   40MOL    H9225910   1.521   4.527   3.535 -2.3707  0.2927  0.8391
   40MOL    H9325911   1.406   4.404   3.596 -0.2126  2.0836  1.6128
   40MOL    H9425912   1.618   4.263   3.649  0.4309  0.4217 -0.4058
   40MOL    H9525913   1.704   4.413   3.608 -0.8949  1.3723  1.2670
   40MOL    H9625914   1.639   4.525   3.805 -0.7425  0.7362  1.8058
   40MOL    H9725915   1.506   4.413   3.844  0.2399 -0.3320 -1.7288
   40MOL    H9825916   1.813   4.349   3.870 -0.2260 -0.9508  0.7202
   40MOL    H9925917   1.673   4.235   3.871 -2.3442  0.4310 -1.0153
   40MOL   H10025918   1.696   4.372   3.990  0.9152 -0.4207  0.0836
   40MOL   C10125919   0.923   3.962   3.326 -0.4842  0.0878 -0.4766
   40MOL   C10225920   0.955   3.880   3.450  0.7867 -0.3541  0.7793
   40MOL   C10325921   1.036   3.754   3.420 -0.4260 -0.1055  0.1364
   40MOL   C10425922   1.181   3.767   3.467  0.5531  0.1019  0.4533
   40MOL   C10525923   1.282   3.678   3.390  0.1392  0.5314  0.3017
   40MOL   C10625924   1.420   3.692   3.461 -0.1125 -0.4072  0.8865
   40MOL   C10725925   1.525   3.590   3.416 -0.0374  0.1561 -0.1960
   40MOL   C10825926   1.665   3.593   3.487  0.8443  0.1252 -0.1872
   40MOL   C10925927   1.758   3.491   3.443 -0.0108  0.1825 -0.3541
   40MOL   C11025928   1.898   3.498   3.503 -1.0726  0.4998 -0.4651
   40MOL   C11125929   2.011   3.432   3.418  0.2950 -0.0916 -1.0388
   40MOL   H11225930   0.857   4.045   3.353  0.1601  0.3935  0.1902
   40MOL   H11325931   0.883   3.884   3.262 -0.5173 -1.5911  1.5150
   40MOL   H11425932   0.993   3.960   3.514 -2.0294  0.8538  1.0263
   40MOL   H11525933   1.004   3.659   3.463  1.7395 -0.5397  0.8187
   40MOL   H11625934   1.024   3.710   3.321  1.1191  3.5814 -1.7764
   40MOL   H11725935   1.214   3.870   3.458  2.3811 -0.4765  0.2923
   40MOL   H11825936   1.182   3.752   3.575 -1.3932 -2.9695  0.1193
   40MOL   H11925937   1.239   3.579   3.406  3.0145 -1.2835 -2.5493
   40MOL   H12025938   1.302   3.704   3.286  2.6568  2.7844  1.2849
   40MOL   H12125939   1.458   3.794   3.456  0.9206 -0.8161  0.1867
   40MOL   H12225940   1.409   3.657   3.564  1.6804 -4.7840 -0.2846
   40MOL   H12325941   1.541   3.602   3.309 -0.8896  2.4524 -0.0911
   40MOL   H12425942   1.481   3.493   3.440 -0.6481  0.5049  0.0971
   40MOL   H12525943   1.704   3.692   3.464  0.0976  0.2723 -0.8718
   40MOL   H12625944   1.650   3.591   3.595 -0.8708 -0.3637 -0.4046
   40MOL   H12725945   1.718   3.390   3.456  1.7251 -0.5334 -0.4981
   40MOL   H12825946   1.752   3.492   3.334  0.0196  0.7877 -0.3524
   40MOL   H12925947   1.905   3.454   3.602 -1.2480  0.5175 -0.4444
   40MOL   H13025948   1.940   3.599   3.511  1.7203 -0.7300  1.0376
   40MOL   H13125949   2.110   3.470   3.446  0.2543 -1.0031  0.4175
   40MOL   H13225950   2.010   3.328   3.452  1.5950  1.3486  3.8694
   40MOL   H13325951   2.001   3.443   3.310 -0.1846  0.4425 -0.9427
   40MOL   C13425952   0.821   3.839   3.517  0.5518 -0.4433 -0.0367
   40MOL   C13525953   0.825   3.776   3.662 -0.2493  0.1774  0.7451
   40MOL   C13625954   0.691   3.724   3.710  0.2429  0.3317  0.2264
   40MOL   C13725955   0.646   3.599   3.631  0.3762  0.1981 -0.1139
   40MOL   C13825956   0.657   3.461   3.688  0.0574  0.5620  0.1645
   40MOL   C13925957   0.627   3.351   3.583 -0.1143 -0.3764 -0.3848
   40MOL   C14025958   0.610   3.207   3.631  0.0857  0.1746 -0.2688
   40MOL   C14125959   0.538   3.107   3.549 -0.2453  0.1927 -0.5258
   40MOL   C14225960   0.507   2.977   3.621  0.0951  0.2350 -0.3988
   40MOL   C14325961   0.625   2.887   3.651 -0.1488 -0.1679 -0.7810
   40MOL   C14425962   0.584   2.743   3.676  0.0133 -0.2461 -0.0365
   40MOL   H14525963   0.764   3.930   3.530 -1.8408 -1.9697  0.4616
   40MOL   H14625964   0.772   3.768   3.449  1.0255  0.5529 -1.4389
   40MOL   H14725965   0.896   3.693   3.657 -0.9399 -0.3874  0.1588
   40MOL   H14825966   0.612   3.795   3.686  0.2058  0.5206  0.8979
   40MOL   H14925967   0.694   3.709   3.818 -0.6711  0.7718  0.3184
   40MOL   H15025968   0.538   3.611   3.627  0.2712 -0.4078  0.6531
   40MOL   H15125969   0.686   3.594   3.530  0.4471 -2.7978 -0.0046
   40MOL   H15225970   0.751   3.440   3.739 -1.2543  0.3742  2.6312
   40MOL   H15325971   0.591   3.447   3.774 -0.8381  0.8188 -0.4734
   40MOL   H15425972   0.532   3.377   3.537  0.0877 -1.2446 -1.2954
   40MOL   H15525973   0.701   3.348   3.504 -0.0023 -1.7374 -0.2501
   40MOL   H15625974   0.709   3.164   3.645 -0.5157 -1.3137 -0.5547
   40MOL   H15725975   0.574   3.209   3.734  2.1820  1.1417  0.4903
   40MOL   H15825976   0.444   3.143   3.509  0.1272  2.1348  0.3006
   40MOL   H15925977   0.594   3.081   3.458  0.8052 -1.0150  0.4432
   40MOL   H16025978   0.458   2.979   3.718 -2.4048  1.5915 -1.6292
   40MOL   H16125979   0.440   2.920   3.556  3.8029 -5.2123  0.2683
   40MOL   H16225980   0.699   2.887   3.571  0.5958 -1.9187 -0.1168
   40MOL   H16325981   0.676   2.931   3.737  0.1669 -0.9665 -0.5607
   40MOL   H16425982   0.522   2.704   3.595  0.1194  1.7297 -1.1114
   40MOL   H16525983   0.517   2.741   3.762 -0.1699 -1.7490 -0.2013
   40MOL   H16625984   0.675   2.685   3.693 -0.0725 -0.1045  0.8836
   40MOL   C16725985   0.878   3.879   3.759  1.2082  0.5162  0.5775
   40MOL   C16825986   0.915   3.836   3.901  0.1107  0.4929  0.3766
   40MOL   C16925987   0.939   3.954   3.999 -0.0600 -0.3725 -0.2778
   40MOL   C17025988   0.813   4.033   4.029 -0.1592  0.0386 -0.4872
   40MOL   C17125989   0.853   4.161   4.094 -0.3782 -0.0874 -0.3459
   40MOL   C17225990   0.891   4.270   3.991  0.2016  0.4826  0.3218
   40MOL   C17325991   1.010   4.357   4.018 -0.0045 -0.7531  0.7384
   40MOL   C17425992   1.019   4.475   3.919 -0.2093 -0.0819  0.5828
   40MOL   C17525993   1.161   4.525   3.901  0.1685 -0.9989  1.0025
   40MOL   C17625994   1.172   4.656   3.811 -0.1343  0.4747  0.4026
   40MOL   C17725995   1.318   4.686   3.787 -0.0687 -0.3122 -0.1602
   40MOL   H17825996   0.957   3.943   3.718  1.5625  0.4565  1.1611
   40MOL   H17925997   0.791   3.944   3.766  2.5452  2.4743 -0.3308
   40MOL   H18025998   0.837   3.784   3.957  0.7141 -0.9079 -0.0586
   40MOL   H18125999   1.000   4.029   3.949  0.6152  0.4691  1.7592
   40MOL   H18226000   0.990   3.911   4.086  1.1535  0.4915 -0.5470
   40MOL   H18326001   0.758   4.057   3.938 -1.6977 -0.1742  0.3677
   40MOL   H18426002   0.743   3.974   4.088  0.1895 -1.0766 -1.1699
   40MOL   H18526003   0.942   4.153   4.157  1.2025  1.6641 -2.3253
   40MOL   H18626004   0.774   4.196   4.161  0.4406 -1.7002  1.5316
   40MOL   H18726005   0.924   4.226   3.897  0.0568 -0.0665  0.5274
   40MOL   H18826006   0.800   4.324   3.962 -0.5260 -0.8359  0.1193
   40MOL   H18926007   1.101   4.297   4.026 -1.5403 -3.1130  0.9107
   40MOL   H19026008   0.994   4.403   4.115 -4.0714 -1.8523  0.6808
   40MOL   H19126009   0.996   4.446   3.817 -3.6911 -1.8599  1.8021
   40MOL   H19226010   0.951   4.554   3.952  0.4964  0.8227 -0.0855
   40MOL   H19326011   1.220   4.445   3.858 -0.8539 -0.3850 -1.6250
   40MOL   H19426012   1.214   4.551   3.993  0.8722 -0.0057  0.3270
   40MOL   H19526013   1.123   4.742   3.856 -0.9899  0.5927 -0.7128
   40MOL   H19626014   1.126   4.648   3.712 -1.6825  0.5128  1.0937
   40MOL   H19726015   1.357   4.731   3.878 -1.3056 -3.2171  1.8616
   40MOL   H19826016   1.334   4.760   3.708  1.4785 -0.9187 -0.4278
   40MOL   H19926017   1.388   4.604   3.775 -1.0259 -1.0012 -1.2284
   40MOL   C20026018   1.046   3.745   3.907 -0.4585  0.1844  0.0494
   40MOL   C20126019   1.033   3.633   4.011  0.1888 -0.3268  1.3393
   40MOL   C20226020   1.171   3.579   4.047 -0.1719  0.2451 -0.3563
   40MOL   C20326021   1.255   3.659   4.152  0.3625  0.1303  0.2707
   40MOL   C20426022   1.383   3.578   4.200  0.5087  0.7292  0.4785
   40MOL   C20526023   1.469   3.640   4.311  0.4229  0.3698 -0.5145
   40MOL   C20626024   1.612   3.577   4.329  0.4664 -0.7304 -0.4047
   40MOL   C20726025   1.679   3.620   4.466 -0.0244 -0.9004 -0.3957
   40MOL   C20826026   1.827   3.610   4.455 -0.9534 -0.4687 -0.1521
   40MOL   C20926027   1.896   3.655   4.591 -0.6090  0.0627 -0.1952
   40MOL   C21026028   2.050   3.630   4.587  0.8467 -0.1608 -0.4042
   40MOL   H21126029   1.075   3.711   3.807 -1.5091 -1.8807  0.4142
   40MOL   H21226030   1.134   3.807   3.926 -0.4274  0.4774 -1.0059
   40MOL   H21326031   0.992   3.684   4.097 -2.2328  1.2949 -0.6962
   40MOL   H21426032   1.233   3.553   3.961 -0.7307 -3.8092  0.3585
   40MOL   H21526033   1.156   3.477   4.084  0.4552  0.6916  1.1752
   40MOL   H21626034   1.196   3.690   4.238 -1.5341  0.4995 -1.1438
   40MOL   H21726035   1.309   3.747   4.115 -0.6768  0.9062  0.5757
   40MOL   H21826036   1.449   3.553   4.117 -2.4664  3.6498 -2.8749
   40MOL   H21926037   1.347   3.485   4.243  0.4403  0.8232  0.6235
   40MOL   H22026038   1.471   3.746   4.289 -1.2829  1.2408  3.0628
   40MOL   H22126039   1.411   3.618   4.401 -0.0935 -1.0313 -1.1635
   40MOL   H22226040   1.679   3.613   4.251  0.8511  0.2393  0.3566
   40MOL   H22326041   1.604   3.469   4.316 -1.5776 -0.5056 -1.1670
   40MOL   H22426042   1.644   3.554   4.546 -0.2817 -0.7102 -0.3503
   40MOL   H22526043   1.658   3.724   4.490 -1.4497 -1.1635 -0.4495
   40MOL   H22626044   1.864   3.673   4.374 -2.8651  0.5699 -0.2358
   40MOL   H22726045   1.851   3.507   4.429 -1.1873 -0.2906 -1.1051
   40MOL   H22826046   1.872   3.761   4.603  1.9326  0.4376  1.9780
   40MOL   H22926047   1.856   3.604   4.678 -0.7295  0.1588 -0.1951
   40MOL   H23026048   2.105   3.702   4.526  1.9195  1.5832  2.5045
   40MOL   H23126049   2.069   3.531   4.547 -0.5924 -0.1251 -1.2089
   40MOL   H23226050   2.088   3.624   4.689  0.6510 -0.0570 -0.3232
   40MOL   C23326051   0.933   3.527   3.959 -0.1088 -0.4856 -0.2368
   40MOL   C23426052   0.874   3.439   4.068  0.6574  0.2857 -0.0702
   40MOL   C23526053   0.821   3.301   4.011  0.7283  0.3805 -0.1791
   40MOL   C23626054   0.928   3.196   3.963 -0.4707  0.5101  0.2097
   40MOL   C23726055   0.884   3.055   3.913  0.4479 -0.2829  0.4131
   40MOL   C23826056   1.007   2.966   3.888  0.0102  0.4998  0.5224
   40MOL   C23926057   0.978   2.823   3.836 -0.2744  0.0384 -0.0553
   40MOL   C24026058   1.108   2.742   3.811  0.2550 -0.2988  0.4382
   40MOL   C24126059   1.090   2.587   3.786  0.5170  0.8864  0.1422
   40MOL   C24226060   1.219   2.501   3.774  0.0315 -0.0333  0.0851
   40MOL   C24326061   1.184   2.350   3.790 -0.1353 -0.1103 -0.6666
   40MOL   H24426062   0.970   3.456   3.885 -2.4675 -0.2532 -1.7045
   40MOL   H24526063   0.852   3.587   3.916 -0.5632 -1.7831 -1.2295
   40MOL   H24626064   0.952   3.420   4.142 -0.5490 -1.7780  0.7387
   40MOL   H24726065   0.756   3.257   4.087  1.2230  1.1873  0.7141
   40MOL   H24826066   0.753   3.316   3.927  1.7712  0.9599 -0.9322
   40MOL   H24926067   0.995   3.175   4.047 -0.8020  0.7637  0.5376
   40MOL   H25026068   0.989   3.241   3.885 -0.5772  2.0241  0.9778
   40MOL   H25126069   0.822   3.071   3.824  0.6066  0.9155  0.5025
   40MOL   H25226070   0.823   3.016   3.994  0.3739  2.3271  1.6637
   40MOL   H25326071   1.070   2.962   3.977  0.4912 -1.5190  0.1290
   40MOL   H25426072   1.078   3.007   3.817 -0.3572 -1.8007 -1.2435
   40MOL   H25526073   0.919   2.779   3.916 -0.8036  1.0721  0.1281
   40MOL   H25626074   0.924   2.818   3.742  0.9298 -3.0037 -0.6402
   40MOL   H25726075   1.157   2.783   3.722 -0.6848  1.5903  0.7548
   40MOL   H25826076   1.161   2.762   3.904 -1.8913 -0.3568  1.7113
   40MOL   H25926077   1.030   2.539   3.863 -1.5022  1.1812 -1.2113
   40MOL   H26026078   1.030   2.589   3.695  1.3462  0.7643 -0.4140
   40MOL   H26126079   1.288   2.532   3.853  0.3870 -0.4252 -0.0681
   40MOL   H26226080   1.278   2.524   3.685 -0.4126 -0.6890 -0.3768
   40MOL   H26326081   1.121   2.330   3.877 -1.0389 -0.2903 -1.3530
   40MOL   H26426082   1.274   2.288   3.788 -1.0972 -1.5822  0.7109
   40MOL   H26526083   1.115   2.325   3.709 -1.6405  2.8765 -0.3720
   40MOL   C26626084   0.760   3.532   4.134  0.7289  0.8541  0.1661
   40MOL   C26726085   0.691   3.468   4.254  0.3351  0.1366  0.0192
   40MOL   C26826086   0.542   3.536   4.278 -0.5153  0.4258  0.2212
   40MOL   C26926087   0.464   3.464   4.385 -0.1357 -1.0310 -0.0647
   40MOL   C27026088   0.317   3.499   4.401  0.0016  0.7019  0.3058
   40MOL   C27126089   0.252   3.399   4.497 -0.0028 -0.4238 -0.1839
   40MOL   C27226090   0.100   3.394   4.497 -0.0763  0.5130  0.4807
   40MOL   C27326091   0.028   3.290   4.579  0.0809  0.9252  0.4659
   40MOL   C27426092   7.574   3.285   4.555  0.0067  1.0108 -1.0279
   40MOL   C27526093   7.507   3.152   4.611 -0.7203  0.5876 -0.3026
   40MOL   C27626094   7.363   3.181   4.656 -0.0511  0.0819 -0.0884
   40MOL   H27726095   0.693   3.564   4.054 -1.2488 -2.7724  0.2368
   40MOL   H27826096   0.812   3.622   4.167  0.3078  1.3439 -0.4996
   40MOL   H27926097   0.673   3.363   4.230  1.4427  0.0620 -0.5208
   40MOL   H28026098   0.541   3.644   4.291  2.0553  0.4547  0.4580
   40MOL   H28126099   0.481   3.510   4.191 -0.3309 -0.7449  0.4406
   40MOL   H28226100   0.515   3.472   4.481  0.0751 -2.1944 -0.0704
   40MOL   H28326101   0.466   3.357   4.364 -0.6221 -0.7857 -1.4268
   40MOL   H28426102   0.266   3.493   4.304  0.3527 -0.2145  0.1742
   40MOL   H28526103   0.310   3.594   4.453  1.2826  0.0022  1.7847
   40MOL   H28626104   0.291   3.405   4.599  0.7516  0.9629 -0.5424
   40MOL   H28726105   0.282   3.301   4.460 -0.9366 -0.1477 -1.7173
   40MOL   H28826106   0.055   3.492   4.512 -0.9119  0.2642 -0.3429
   40MOL   H28926107   0.071   3.376   4.393  0.2277  0.2664  0.4377
   40MOL   H29026108   0.051   3.309   4.684 -0.0365 -1.6252  0.9818
   40MOL   H29126109   0.074   3.192   4.570 -0.1461  0.8700 -0.0947
   40MOL   H29226110   7.534   3.372   4.606 -1.1636 -1.0511  1.7026
   40MOL   H29326111   7.551   3.302   4.450  0.4845 -0.2604 -1.3465
   40MOL   H29426112   7.551   3.102   4.697  0.3721  0.6689 -0.8132
   40MOL   H29526113   7.510   3.074   4.536 -0.4954  0.9483 -0.6743
   40MOL   H29626114   7.294   3.218   4.580  0.2623  1.0458  0.0896
   40MOL   H29726115   7.360   3.249   4.742  2.5247 -0.0316  0.1201
   40MOL   H29826116   7.319   3.088   4.689 -0.6593 -0.1761 -1.5970
   40MOL   C29926117   0.784   3.474   4.373  0.5818  0.3046  0.1233
   40MOL   C30026118   0.778   3.356   4.473  0.6160 -0.6116  0.3800
   40MOL   C30126119   0.838   3.389   4.612 -0.0647 -0.4355 -0.6274
   40MOL   C30226120   0.766   3.492   4.697  0.4058 -0.2878 -0.0068
   40MOL   C30326121   0.812   3.480   4.839 -0.3719 -0.2865 -0.9838
   40MOL   C30426122   0.775   3.596   4.921 -0.2452  0.2435 -0.2000
   40MOL   C30526123   0.857   3.599   5.051 -0.4326  0.6238 -0.3935
   40MOL   C30626124   0.832   3.733   5.129 -0.4319  0.0299 -0.7008
   40MOL   C30726125   0.706   3.734   5.226 -0.6928  0.3507 -0.3603
   40MOL   C30826126   0.731   3.669   5.361  0.3038 -0.0202 -0.6312
   40MOL   C30926127   0.836   3.735   5.447 -0.4463 -0.5807  0.3221
   40MOL   H31026128   0.759   3.570   4.417 -0.6810  0.2635 -0.4813
   40MOL   H31126129   0.887   3.501   4.349  0.3948  2.3235  1.4377
   40MOL   H31226130   0.675   3.330   4.500  0.1099 -0.7708 -1.6072
   40MOL   H31326131   0.832   3.301   4.677 -0.3726  0.9386  1.2567
   40MOL   H31426132   0.943   3.415   4.603  0.2557 -0.9952  1.3066
   40MOL   H31526133   0.782   3.591   4.656  2.4608 -0.7860 -0.4573
   40MOL   H31626134   0.659   3.472   4.697 -0.1535  2.4150 -1.5172
   40MOL   H31726135   0.787   3.385   4.885  0.6562 -0.6153 -1.0964
   40MOL   H31826136   0.920   3.467   4.834 -0.7787 -3.3926 -2.5899
   40MOL   H31926137   0.672   3.591   4.957 -0.1302 -0.1084  0.0837
   40MOL   H32026138   0.788   3.684   4.859  2.6961 -1.2077 -1.7527
   40MOL   H32126139   0.836   3.515   5.117 -1.4743  0.4925 -0.8851
   40MOL   H32226140   0.961   3.601   5.020 -0.6247  0.5345 -1.0381
   40MOL   H32326141   0.806   3.799   5.046  1.9119  2.5223  0.4862
   40MOL   H32426142   0.918   3.766   5.186 -0.4212 -0.7166 -0.2714
   40MOL   H32526143   0.616   3.690   5.185 -1.3565  1.6665 -0.3143
   40MOL   H32626144   0.684   3.840   5.236 -1.9052  0.2147 -1.4993
   40MOL   H32726145   0.744   3.564   5.334 -3.6980 -0.8945  0.5639
   40MOL   H32826146   0.644   3.690   5.422  0.7247  1.5614 -0.5385
   40MOL   H32926147   0.817   3.739   5.554  2.0841  0.4445  0.7814
   40MOL   H33026148   0.929   3.681   5.430 -1.0121 -0.7374 -2.5553
   40MOL   H33126149   0.853   3.837   5.412  0.9498  0.0032  2.5974
   40MOL   C33226150   0.845   3.233   4.404 -0.4014 -0.0770 -0.2122
   40MOL   C33326151   0.792   3.101   4.462 -0.2595  0.0556  0.1514
   40MOL   C33426152   0.898   2.987   4.436 -0.2501  0.0832  0.3897
   40MOL   C33526153   0.926   2.952   4.290 -0.3810 -0.5953  0.1525
   40MOL   C33626154   1.041   2.849   4.279 -0.0244  0.2363  0.2445
   40MOL   C33726155   0.996   2.711   4.318  0.2766  0.2339  0.0188
   40MOL   C33826156   1.111   2.612   4.312 -0.1197  0.5448  0.0084
   40MOL   C33926157   1.084   2.464   4.344 -0.2119 -0.0170 -0.7523
   40MOL   C34026158   1.083   2.369   4.223  0.0297 -0.6806 -0.5979
   40MOL   C34126159   1.059   2.221   4.256 -0.2074 -0.3437  0.3662
   40MOL   C34226160   0.908   2.197   4.258  0.1092  0.0635 -0.6754
   40MOL   H34326161   0.836   3.238   4.296 -1.6006  1.0452 -0.0720
   40MOL   H34426162   0.952   3.238   4.424 -0.4032  3.8779 -0.8519
   40MOL   H34526163   0.789   3.119   4.569  0.8346  2.7619 -0.2292
   40MOL   H34626164   0.868   2.897   4.489  3.0635 -0.3297  1.6856
   40MOL   H34726165   0.990   3.024   4.481  0.7603 -2.1609  0.2425
   40MOL   H34826166   0.841   2.914   4.233  0.6313  0.7206 -2.2490
   40MOL   H34926167   0.941   3.031   4.217 -1.5486 -0.3512  0.1527
   40MOL   H35026168   1.061   2.849   4.171 -0.9406 -0.1386  0.0709
   40MOL   H35126169   1.126   2.887   4.336  0.0895  0.0449  0.2021
   40MOL   H35226170   0.920   2.675   4.249  0.4315 -3.4001  1.5827
   40MOL   H35326171   0.954   2.702   4.418  0.1839  1.5149  0.0988
   40MOL   H35426172   1.190   2.648   4.378 -1.0354  2.1142  0.2670
   40MOL   H35526173   1.171   2.623   4.221 -0.5770  0.5567 -0.2912
   40MOL   H35626174   1.170   2.420   4.394 -0.8383 -2.3991 -1.7101
   40MOL   H35726175   0.989   2.455   4.396 -1.4754  1.1440 -2.7714
   40MOL   H35826176   1.184   2.361   4.182  1.4341 -1.1048  2.7263
   40MOL   H35926177   1.009   2.394   4.147 -1.3109 -0.8732  0.6178
   40MOL   H36026178   1.097   2.199   4.356 -0.0476  1.2955  0.6726
   40MOL   H36126179   1.098   2.158   4.176  0.3868  1.8196 -1.0800
   40MOL   H36226180   0.867   2.260   4.336  2.9569 -0.6988  1.5482
   40MOL   H36326181   0.851   2.214   4.167  0.6006 -0.2271 -1.0409
   40MOL   H36426182   0.896   2.098   4.302  1.7117 -1.0264 -2.5559
   40MOL   C36526183   0.643   3.072   4.416  0.5600  0.3432 -0.0776
   40MOL   C36626184   0.578   2.940   4.470  0.2206  0.6430 -0.1184
   40MOL   C36726185   0.573   2.931   4.623 -0.0808  0.3505  0.1245
   40MOL   C36826186   0.481   3.030   4.694  0.1666 -0.2694 -0.1887
   40MOL   C36926187   0.486   3.018   4.848 -0.1706  0.3855  0.0365
   40MOL   C37026188   0.383   3.107   4.920 -1.4072  0.1108  0.1637
   40MOL   C37126189   0.237   3.086   4.889 -0.5509 -0.2503  0.3392
   40MOL   C37226190   0.150   3.161   4.996  0.4600  0.1296 -0.1274
   40MOL   C37326191   7.701   3.169   4.965 -0.5211 -1.0059  0.0393
   40MOL   C37426192   7.630   3.215   5.089 -0.3596  0.1782  0.0155
   40MOL   C37526193   7.479   3.241   5.060  0.2197  0.3435 -0.6482
   40MOL   H37626194   0.572   3.144   4.458  0.0949  0.2614 -0.7161
   40MOL   H37726195   0.641   3.081   4.307  0.4864 -1.2764 -0.2265
   40MOL   H37826196   0.639   2.856   4.438  1.2626  0.8098  1.3889
   40MOL   H37926197   0.674   2.940   4.662  0.1744  2.2217 -0.8983
   40MOL   H38026198   0.564   2.826   4.653  0.8311 -0.3886 -2.0084
   40MOL   H38126199   0.378   3.007   4.667 -1.0423  1.9836  2.3020
   40MOL   H38226200   0.509   3.130   4.660  0.2981  0.0584  0.8817
   40MOL   H38326201   0.590   3.014   4.881 -0.6130 -0.3297  1.3696
   40MOL   H38426202   0.455   2.915   4.867 -0.6034  0.5505  0.2324
   40MOL   H38526203   0.402   3.209   4.885 -1.6947 -0.3725 -1.4217
   40MOL   H38626204   0.403   3.091   5.026 -1.0172 -1.9575 -0.2136
   40MOL   H38726205   0.222   3.120   4.786  1.2121  1.7789  0.7005
   40MOL   H38826206   0.210   2.981   4.891  0.8167 -0.6090  0.4208
   40MOL   H38926207   0.180   3.266   4.993 -0.8093  0.5522  1.4238
   40MOL   H39026208   0.168   3.134   5.100 -0.4523  3.8541  1.1026
   40MOL   H39126209   7.677   3.247   4.894  1.8155  0.3181  0.6467
   40MOL   H39226210   7.656   3.074   4.934  2.9191 -2.0629 -2.0114
   40MOL   H39326211   7.650   3.134   5.159  0.1091  0.8523  0.6551
   40MOL   H39426212   7.664   3.312   5.124 -1.7564  0.0325  1.8531
   40MOL   H39526213   7.436   3.157   5.006 -2.3740  0.3430  1.3299
   40MOL   H39626214   7.466   3.333   5.003  0.1460  0.7801  0.0631
   40MOL   H39726215   7.428   3.256   5.155  1.9413  1.8422  0.0910
   40MOL   C39826216   0.435   2.918   4.404 -0.2505  0.6298 -0.3312
   40MOL   C39926217   0.444   2.861   4.264 -0.2857 -0.0389  0.2714
   40MOL   C40026218   0.357   2.928   4.155 -0.5350 -0.3879  0.2355
   40MOL   C40126219   0.394   3.075   4.134  0.1688  0.7229 -0.2156
   40MOL   C40226220   0.318   3.137   4.011 -0.9167 -0.1652  0.6451
   40MOL   C40326221   0.316   3.291   4.000  0.0357 -0.6018  0.2564
   40MOL   C40426222   0.310   3.334   3.847  0.3794 -0.0105  0.3413
   40MOL   C40526223   0.275   3.482   3.822 -0.2780 -0.0995 -0.3299
   40MOL   C40626224   0.355   3.582   3.916 -0.3376  0.1001 -0.3562
   40MOL   C40726225   0.332   3.729   3.891 -0.2711  0.1636  0.2681
   40MOL   C40826226   0.390   3.829   3.997 -0.1291 -0.1015 -0.8364
   40MOL   H40926227   0.369   3.005   4.406 -0.7489  0.2422  0.5725
   40MOL   H41026228   0.377   2.848   4.465  2.9597 -0.5369  1.5185
   40MOL   H41126229   0.542   2.874   4.220 -0.1605  1.8853  1.0726
   40MOL   H41226230   0.253   2.921   4.185 -0.8937  1.6552 -0.4625
   40MOL   H41326231   0.371   2.879   4.058 -2.4292 -0.8048  0.1600
   40MOL   H41426232   0.353   3.128   4.220 -0.5622  1.3518 -0.9494
   40MOL   H41526233   0.499   3.104   4.129  0.3286  0.2189  0.1059
   40MOL   H41626234   0.367   3.098   3.921 -1.1026  2.5090 -0.6941
   40MOL   H41726235   0.215   3.102   4.011 -1.2593  0.8170 -0.3596
   40MOL   H41826236   0.404   3.332   4.051 -0.2984  2.2467 -1.3496
   40MOL   H41926237   0.224   3.323   4.049  0.6609 -1.1556  1.8323
   40MOL   H42026238   0.412   3.325   3.810  1.3091  0.5155  2.6413
   40MOL   H42126239   0.243   3.267   3.793  0.1972  0.8851 -0.5400
   40MOL   H42226240   0.168   3.493   3.841 -0.4539 -1.4630 -0.4379
   40MOL   H42326241   0.286   3.499   3.715  0.6977  0.5234 -0.1309
   40MOL   H42426242   0.325   3.565   4.020 -0.7682  0.1970 -0.4628
   40MOL   H42526243   0.458   3.551   3.904 -0.5153 -1.3646  1.5930
   40MOL   H42626244   0.224   3.749   3.888 -0.3346 -0.1817  0.2910
   40MOL   H42726245   0.357   3.750   3.787 -0.3850 -0.7552  0.0584
   40MOL   H42826246   0.492   3.796   4.015  0.1564  1.4462  0.5181
   40MOL   H42926247   0.339   3.819   4.093  1.0461  3.6011  0.2373
   40MOL   H43026248   0.381   3.936   3.977 -1.4848 -0.2850 -1.2797
   40MOL   C43126249   0.413   2.709   4.265 -0.8451  0.1685  0.2913
   40MOL   C43226250   0.481   2.611   4.360 -0.6458 -0.4095  0.5046
   40MOL   C43326251   0.623   2.572   4.312 -0.4297 -0.4001  0.2781
   40MOL   C43426252   0.633   2.485   4.187  0.8141 -0.1089  0.3263
   40MOL   C43526253   0.736   2.535   4.081 -0.3996 -0.0463  0.0857
   40MOL   C43626254   0.705   2.470   3.945 -0.1497 -0.4294  0.4115
   40MOL   C43726255   0.708   2.318   3.928  0.0810  0.8248  0.3599
   40MOL   C43826256   0.650   2.276   3.789  0.0044 -0.1166 -0.1198
   40MOL   C43926257   0.671   2.123   3.767 -0.0464  0.0852  0.3506
   40MOL   C44026258   0.561   2.057   3.683  0.4522  0.7293 -0.2731
   40MOL   C44126259   0.557   1.908   3.703 -0.6242 -0.3775  0.1658
   40MOL   H44226260   0.435   2.679   4.163  1.4021 -2.3629  1.4497
   40MOL   H44326261   0.304   2.709   4.275 -0.6059 -0.8882  3.6253
   40MOL   H44426262   0.492   2.657   4.459  1.0507 -2.7287  1.4222
   40MOL   H44526263   0.678   2.663   4.289  0.9636 -1.4282 -0.5570
   40MOL   H44626264   0.667   2.523   4.398  0.8150  0.6400  0.2487
   40MOL   H44726265   0.535   2.482   4.139  1.1296 -2.1071 -0.2703
   40MOL   H44826266   0.649   2.379   4.210 -0.1366 -0.6681 -1.4845
   40MOL   H44926267   0.839   2.508   4.106 -0.5233 -1.6234 -1.0078
   40MOL   H45026268   0.734   2.643   4.064  0.1201  0.0773  0.7545
   40MOL   H45126269   0.767   2.516   3.868 -1.4428 -1.3882 -1.2460
   40MOL   H45226270   0.608   2.501   3.905  0.0184  0.4756  0.6984
   40MOL   H45326271   0.648   2.273   4.007 -1.0166 -0.9338 -1.4450
   40MOL   H45426272   0.814   2.292   3.937 -0.8466 -2.8568  1.4720
   40MOL   H45526273   0.546   2.307   3.777  0.1569 -0.5539 -2.8683
   40MOL   H45626274   0.707   2.328   3.712 -1.9278  1.5243 -0.4685
   40MOL   H45726275   0.676   2.072   3.864  3.1900 -0.1310  0.1280
   40MOL   H45826276   0.769   2.107   3.722 -1.3648  0.6330 -2.8143
   40MOL   H45926277   0.591   2.065   3.579  0.5226 -0.5401 -0.3682
   40MOL   H46026278   0.464   2.106   3.693  0.1490 -0.2862  2.1161
   40MOL   H46126279   0.657   1.865   3.705 -0.5178 -0.3208 -2.0476
   40MOL   H46226280   0.514   1.883   3.800 -0.7492  0.6925  0.3934
   40MOL   H46326281   0.510   1.857   3.619  0.3719 -1.1384  0.0647
   40MOL   C46426282   0.381   2.494   4.385  0.0459 -0.1209 -0.3415
   40MOL   C46526283   0.428   2.391   4.495 -0.0796 -0.2908 -0.6223
   40MOL   C46626284   0.471   2.452   4.628  0.4827  0.0488  0.0006
   40MOL   C46726285   0.360   2.540   4.688  0.6873  0.2786  0.0181
   40MOL   C46826286   0.398   2.597   4.828  0.4828  0.2262  0.5393
   40MOL   C46926287   0.282   2.652   4.900  0.8525  0.1305  0.0939
   40MOL   C47026288   0.294   2.719   5.037  0.6487 -0.1114 -0.6003
   40MOL   C47126289   0.152   2.726   5.099  0.2337 -0.0586 -0.3365
   40MOL   C47226290   0.149   2.812   5.227  0.1578  0.1140  0.0291
   40MOL   C47326291   0.193   2.732   5.346 -0.0133  0.0837  0.8547
   40MOL   C47426292   0.199   2.803   5.480 -0.2680  0.3573  0.3680
   40MOL   H47526293   0.354   2.440   4.295 -0.5229 -0.2558 -0.0940
   40MOL   H47626294   0.286   2.536   4.419  0.4941  0.4176  0.2574
   40MOL   H47726295   0.517   2.348   4.449 -0.1341 -1.1196  0.0439
   40MOL   H47826296   0.566   2.504   4.620  0.9676 -0.7055  0.7040
   40MOL   H47926297   0.485   2.370   4.699 -0.7224  0.2767  0.5172
   40MOL   H48026298   0.354   2.626   4.622  0.5976 -0.5668 -1.0883
   40MOL   H48126299   0.263   2.490   4.690  0.0610  1.2832 -2.8807
   40MOL   H48226300   0.475   2.675   4.826 -2.0737  2.9583  3.4287
   40MOL   H48326301   0.449   2.520   4.886  0.6236  0.8888  1.3028
   40MOL   H48426302   0.236   2.726   4.834  1.1719 -0.3603 -0.6838
   40MOL   H48526303   0.203   2.578   4.911  1.2015 -0.2764 -0.1230
   40MOL   H48626304   0.357   2.654   5.097  0.3281 -0.3123 -0.4798
   40MOL   H48726305   0.352   2.811   5.037  1.6204 -0.6911  1.2630
   40MOL   H48826306   0.080   2.765   5.027 -2.3849 -0.6914  1.8809
   40MOL   H48926307   0.095   2.634   5.112 -0.8114  0.7545  0.9904
   40MOL   H49026308   0.204   2.906   5.222 -1.8044  1.4226  1.9142
   40MOL   H49126309   0.042   2.832   5.240 -0.0908  0.3819 -2.2172
   40MOL   H49226310   0.135   2.642   5.360 -0.8304  0.5429  0.4651
   40MOL   H49326311   0.296   2.698   5.329  0.1674  0.3401  1.4248
   40MOL   H49426312   0.099   2.833   5.510 -0.3351  1.9735 -1.3503
   40MOL   H49526313   0.261   2.893   5.482  0.9774 -0.4744 -0.0352
   40MOL   H49626314   0.248   2.739   5.554  0.1922 -0.1217 -0.3446
   40MOL   C49726315   0.334   2.275   4.512  0.0897  0.3246 -0.6164
   40MOL   C49826316   0.322   2.164   4.398 -0.9323 -0.0975 -0.8795
   40MOL   C49926317   0.205   2.073   4.437  0.1656 -0.1371  0.1573
   40MOL   C50026318   0.065   2.135   4.429  0.2065 -0.0205  0.2428
   40MOL   C50126319   7.661   2.033   4.461  1.0137 -0.7186  0.2155
   40MOL   C50226320   7.516   2.066   4.413 -0.1116  0.0272  0.0795
   40MOL   C50326321   7.504   2.047   4.263 -0.1394 -0.1384 -0.9780
   40MOL   C50426322   7.470   1.906   4.217  0.3547 -1.1988 -0.4165
   40MOL   C50526323   7.451   1.892   4.064  0.8010  0.2476  0.2066
   40MOL   C50626324   7.426   1.746   4.019  0.4968 -0.0617 -0.4021
   40MOL   C50726325   7.417   1.743   3.865  0.4146  0.3233 -0.0275
   40MOL   H50826326   0.356   2.218   4.603 -1.8196 -0.4027 -0.5863
   40MOL   H50926327   0.235   2.320   4.522 -0.6340 -1.4312  0.4219
   40MOL   H51026328   0.305   2.227   4.310  1.6661  0.1950 -1.2048
   40MOL   H51126329   0.216   2.044   4.542 -0.2062 -0.0044  0.2366
   40MOL   H51226330   0.208   1.977   4.385  0.9535 -2.1014  3.6145
   40MOL   H51326331   0.058   2.174   4.328  0.6327 -0.9568 -0.1534
   40MOL   H51426332   0.047   2.225   4.487 -2.0126  0.6598 -1.4209
   40MOL   H51526333   7.681   1.929   4.433  0.8475 -1.0678  1.3672
   40MOL   H51626334   7.653   2.032   4.570  2.9155  1.6761  0.4028
   40MOL   H51726335   7.455   2.000   4.475 -0.8060  1.4497  0.9479
   40MOL   H51826336   7.502   2.168   4.450  1.2551 -0.0025  0.7146
   40MOL   H51926337   7.416   2.106   4.238 -1.1861 -1.2135  0.1121
   40MOL   H52026338   7.589   2.084   4.205  0.8609  0.3258  0.7676
   40MOL   H52126339   7.388   1.852   4.265 -2.7377  3.7529  0.2896
   40MOL   H52226340   7.558   1.852   4.250  1.1164  0.6646  0.6628
   40MOL   H52326341   7.532   1.944   4.014  1.5009  0.8009  1.8795
   40MOL   H52426342   7.360   1.941   4.027  0.3585 -0.6662  0.0672
   40MOL   H52526343   7.347   1.707   4.083 -0.8875  0.7747 -1.5888
   40MOL   H52626344   7.517   1.691   4.046 -0.7119 -1.8810  0.0231
   40MOL   H52726345   7.410   1.640   3.830 -2.0094 -0.4894  2.6180
   40MOL   H52826346   7.508   1.794   3.833  0.4468 -0.5155 -1.3010
   40MOL   H52926347   7.329   1.789   3.821  0.6641 -0.8780 -1.8231
   40MOL   C53026348   0.449   2.085   4.376  0.1315 -0.4355  0.4043
   40MOL   C53126349   0.446   1.999   4.242  0.1714  0.6132  0.2992
   40MOL   C53226350   0.567   1.906   4.246  0.3244  0.4996 -0.2975
   40MOL   C53326351   0.556   1.790   4.345  0.0221  0.7179  0.1836
   40MOL   C53426352   0.646   1.670   4.314 -0.1546  0.3317 -0.4080
   40MOL   C53526353   0.685   1.588   4.442 -0.4125  0.2780  0.5733
   40MOL   C53626354   0.568   1.525   4.510 -0.5435 -0.0358 -0.1836
   40MOL   C53726355   0.598   1.399   4.593 -0.1319  0.5314  0.1985
   40MOL   C53826356   0.472   1.345   4.665 -0.6809 -0.0250 -0.3723
   40MOL   C53926357   0.373   1.274   4.576 -0.7014 -0.0881  0.4362
   40MOL   C54026358   0.418   1.164   4.477 -0.3390  0.0697 -0.5035
   40MOL   H54126359   0.536   2.149   4.362  0.0116 -0.8099 -2.3098
   40MOL   H54226360   0.464   2.034   4.471 -1.3418 -1.3882  0.1367
   40MOL   H54326361   0.360   1.931   4.235  0.6997 -0.0328  0.0456
   40MOL   H54426362   0.655   1.969   4.257  1.0203 -0.4679 -0.2558
   40MOL   H54526363   0.582   1.865   4.147 -2.0668 -1.2435  0.0200
   40MOL   H54626364   0.453   1.755   4.355  0.2377 -0.6208 -2.1510
   40MOL   H54726365   0.594   1.838   4.436  1.3018  0.4073 -0.1803
   40MOL   H54826366   0.736   1.714   4.270 -0.8634  2.5937  0.3636
   40MOL   H54926367   0.596   1.609   4.239  2.0413 -2.9837  0.7033
   40MOL   H55026368   0.738   1.654   4.511  0.7781  1.0360 -1.0286
   40MOL   H55126369   0.770   1.523   4.421 -0.7971  0.5303 -1.8784
   40MOL   H55226370   0.497   1.497   4.432  1.7927 -0.4041 -2.2369
   40MOL   H55326371   0.513   1.597   4.571  0.0982 -0.3995  0.8484
   40MOL   H55426372   0.680   1.427   4.659 -0.4387  0.7406  0.4904
   40MOL   H55526373   0.643   1.321   4.531  1.1303 -0.8314  2.7597
   40MOL   H55626374   0.420   1.419   4.725 -0.5584 -0.9642  0.9070
   40MOL   H55726375   0.513   1.268   4.731 -0.8163 -0.9692 -1.3700
   40MOL   H55826376   0.344   1.363   4.521  0.0335  0.1394  0.4205
   40MOL   H55926377   0.283   1.234   4.625 -0.8149  0.2857  0.5346
   40MOL   H56026378   0.327   1.127   4.430  1.0105 -1.6905 -1.7689
   40MOL   H56126379   0.476   1.212   4.399 -0.6026  1.9686  0.4254
   40MOL   H56226380   0.479   1.085   4.520  1.6264  0.2653 -2.8391
   40MOL   C56326381   0.446   2.075   4.107 -0.5012  0.2236  0.2887
   40MOL   C56426382   0.300   2.093   4.052  0.1669  0.4035  0.0372
   40MOL   C56526383   0.249   1.977   3.966  0.4432  0.0292  0.1889
   40MOL   C56626384   0.255   1.830   4.028 -0.2607 -0.4556  0.6981
   40MOL   C56726385   0.205   1.729   3.923 -0.4002  0.0731  0.2834
   40MOL   C56826386   0.248   1.584   3.965  0.2610  0.2755 -0.2978
   40MOL   C56926387   0.198   1.513   4.091  0.5850  0.7416  0.1460
   40MOL   C57026388   0.207   1.362   4.077 -0.0281 -0.0437 -0.7709
   40MOL   C57126389   0.128   1.277   4.178  0.5622 -0.6534 -0.4002
   40MOL   C57226390   0.129   1.123   4.167  0.0230 -0.5888 -0.3971
   40MOL   C57326391   0.050   1.044   4.280  0.3528 -0.0652 -0.3706
   40MOL   H57426392   0.498   2.022   4.028  0.0207  0.0371  0.7567
   40MOL   H57526393   0.492   2.173   4.118  0.7782 -0.2957 -0.3749
   40MOL   H57626394   0.233   2.097   4.138 -3.5723 -3.6336 -2.4920
   40MOL   H57726395   0.305   1.969   3.874 -1.6433 -0.9329 -1.0283
   40MOL   H57826396   0.150   2.008   3.933  0.3324  1.8678  2.0700
   40MOL   H57926397   0.191   1.824   4.116 -0.6236  0.5144  0.5023
   40MOL   H58026398   0.358   1.800   4.046 -0.0740  0.5115  1.2628
   40MOL   H58126399   0.249   1.742   3.824  2.2901  0.5651  1.4793
   40MOL   H58226400   0.097   1.735   3.920 -0.3069  1.0114 -2.3023
   40MOL   H58326401   0.259   1.522   3.875 -1.9030  1.8654 -1.7055
   40MOL   H58426402   0.354   1.589   3.990  0.4714 -0.9762 -0.8879
   40MOL   H58526403   0.251   1.538   4.183  0.2796  0.4739  0.3940
   40MOL   H58626404   0.094   1.547   4.090  0.9089  1.7892 -3.0087
   40MOL   H58726405   0.309   1.330   4.097  0.0690  0.7785  0.0997
   40MOL   H58826406   0.173   1.343   3.975  0.9884  4.7349 -2.1127
   40MOL   H58926407   0.028   1.320   4.177 -0.0910 -1.9840  2.2688
   40MOL   H59026408   0.158   1.295   4.281  1.1620  0.5524 -0.7787
   40MOL   H59126409   0.234   1.098   4.183  0.1609 -0.1461 -0.6246
   40MOL   H59226410   0.097   1.092   4.067 -0.8982  0.0745 -0.3158
   40MOL   H59326411   0.071   0.938   4.288 -0.1775 -0.2307 -1.1241
   40MOL   H59426412   0.083   1.080   4.377 -0.5192 -1.9848  0.6571
   40MOL   H59526413   7.646   1.057   4.288  0.5140  1.0576  0.0362
   40MOL   C59626414   0.282   2.227   3.969 -0.2573 -0.3950  0.3313
   40MOL   C59726415   0.178   2.322   4.036  0.2997  0.2834 -0.3474
   40MOL   C59826416   0.030   2.275   4.011  0.7903  0.2037 -0.0699
   40MOL   C59926417   7.675   2.280   3.863  0.0465 -0.3476  0.5807
   40MOL   C60026418   7.551   2.188   3.838 -0.4470 -0.1560 -0.0003
   40MOL   C60126419   7.497   2.195   3.696 -0.5832  0.3064  0.2495
   40MOL   C60226420   7.386   2.089   3.669  0.3572  0.4333 -0.0677
   40MOL   C60326421   7.326   2.093   3.531 -0.3070 -0.4868  0.7839
   40MOL   C60426422   7.232   1.973   3.502 -0.4178  0.0675  0.0373
   40MOL   C60526423   7.301   1.835   3.492  0.2002  0.0656 -0.0952
   40MOL   C60626424   7.197   1.721   3.503 -0.9382  0.0478  0.4875
   40MOL   H60726425   0.377   2.282   3.972 -0.9368  0.8422 -0.1875
   40MOL   H60826426   0.252   2.214   3.865 -1.1370 -2.1572  0.7838
   40MOL   H60926427   0.200   2.328   4.143 -2.5616  0.3828  0.2986
   40MOL   H61026428   7.665   2.327   4.078  2.6167  1.7502  0.6286
   40MOL   H61126429   0.009   2.174   4.047 -0.1695 -0.2622 -1.8532
   40MOL   H61226430   0.054   2.280   3.792 -0.0608  0.7097  0.4394
   40MOL   H61326431   7.636   2.381   3.853  0.1545 -0.3533  0.0923
   40MOL   H61426432   7.471   2.213   3.908  0.4105 -2.3974  1.8450
   40MOL   H61526433   7.588   2.086   3.849 -1.0482 -0.5358 -1.4353
   40MOL   H61626434   7.447   2.289   3.674  0.1201  0.3713 -1.1814
   40MOL   H61726435   7.581   2.195   3.626 -1.2473 -1.0365 -0.5795
   40MOL   H61826436   7.312   2.071   3.747  0.5746 -1.2235 -0.2285
   40MOL   H61926437   7.435   1.994   3.691  0.5652  0.9012  1.5801
   40MOL   H62026438   7.412   2.100   3.464 -1.3288  0.0935 -0.4801
   40MOL   H62126439   7.269   2.184   3.516 -0.6875 -0.6419  1.2509
   40MOL   H62226440   7.152   1.968   3.576  2.3741 -0.1699  3.1325
   40MOL   H62326441   7.184   1.985   3.405 -0.0149 -0.9194 -0.2956
   40MOL   H62426442   7.377   1.816   3.568  1.4499 -1.4033 -1.6762
   40MOL   H62526443   7.336   1.839   3.389  0.2855 -1.4530 -0.1282
   40MOL   H62626444   7.161   1.711   3.605 -0.4058 -1.8374  0.5059
   40MOL   H62726445   7.109   1.737   3.440 -0.0203  0.4453 -0.7211
   40MOL   H62826446   7.238   1.622   3.488 -0.3787  0.4455 -0.6856
   40MOL   C62926447   0.190   2.465   3.972 -1.3587 -0.1517  0.1860
   40MOL   C63026448   0.070   2.563   4.011 -0.5029  0.3077 -0.2422
   40MOL   C63126449   0.093   2.706   3.964  0.2005  0.4019 -0.3144
   40MOL   C63226450   0.091   2.733   3.817  0.2463 -0.1082 -0.1405
   40MOL   C63326451   0.090   2.882   3.789 -0.6002 -0.2250  0.2204
   40MOL   C63426452   0.095   2.924   3.641 -0.3254  0.0840  0.4670
   40MOL   C63526453   0.148   3.064   3.615 -0.2461 -0.3144  0.0086
   40MOL   C63626454   0.138   3.106   3.475  0.3394 -0.1783  0.4586
   40MOL   C63726455   0.183   3.248   3.450 -0.2413 -0.6004  0.1396
   40MOL   C63826456   0.178   3.301   3.309 -0.0884  0.1176  0.5169
   40MOL   C63926457   0.257   3.433   3.297 -0.5283  0.6382 -1.2900
   40MOL   H64026458   0.280   2.509   4.016 -0.8449 -2.5094  1.5639
   40MOL   H64126459   0.205   2.452   3.865  3.1367  0.3506  0.6761
   40MOL   H64226460   7.680   2.516   3.980  0.7729 -1.9040 -0.9313
   40MOL   H64326461   0.018   2.770   4.012  0.7244  0.5247  0.3499
   40MOL   H64426462   0.191   2.736   4.001  0.5201  0.1313 -0.9393
   40MOL   H64526463   0.004   2.685   3.773 -1.6325  2.1447  1.0438
   40MOL   H64626464   0.182   2.692   3.773  0.6508 -1.7699  2.1309
   40MOL   H64726465   0.177   2.924   3.840 -0.6349 -1.8028  1.6092
   40MOL   H64826466   0.005   2.920   3.844 -1.0641  1.3143 -1.5321
   40MOL   H64926467   7.702   2.908   3.592  1.3398  0.5598 -3.0442
   40MOL   H65026468   0.160   2.853   3.590 -1.4715 -1.1032  0.6168
   40MOL   H65126469   0.250   3.069   3.654 -0.0406  0.1315 -0.5777
   40MOL   H65226470   0.097   3.128   3.687  1.2970 -0.3219  1.1490
   40MOL   H65326471   0.032   3.097   3.453  0.4246 -0.7209  0.2447
   40MOL   H65426472   0.187   3.033   3.409 -0.6256  0.4500 -0.9794
   40MOL   H65526473   0.286   3.259   3.484 -0.4543 -1.2970  1.0410
   40MOL   H65626474   0.126   3.313   3.517 -0.5839 -0.9820  0.2176
   40MOL   H65726475   0.072   3.311   3.288 -0.2658 -2.5715 -0.1158
   40MOL   H65826476   0.221   3.230   3.238  0.2255 -0.0875  0.9021
   40MOL   H65926477   0.362   3.418   3.320 -0.1259  2.5286 -1.8312
   40MOL   H66026478   0.215   3.512   3.359 -1.0835 -0.8420  0.2539
   40MOL   H66126479   0.272   3.481   3.201 -2.1963  0.7749 -1.4982
   40MOL   H66226480   0.053   2.558   4.119 -1.0899  1.0150 -0.3063
   41MOL     C126481   0.841   2.663   1.769 -0.6878  0.6896  0.5214
   41MOL     C226482   0.936   2.647   1.888 -0.0807 -0.0175 -0.6234
   41MOL     C326483   0.955   2.788   1.948 -0.4669 -0.2059 -1.2796
   41MOL     C426484   1.084   2.857   1.906 -0.1897 -0.0215  0.2712
   41MOL     C526485   1.113   2.990   1.976  0.4165  0.1602 -0.2686
   41MOL     C626486   1.209   3.088   1.903  0.4394  0.0055 -1.0966
   41MOL     C726487   1.255   3.212   1.978 -0.1995 -0.3430  0.4091
   41MOL     C826488   1.321   3.329   1.889 -0.5075 -0.0568 -0.6757
   41MOL     C926489   1.376   3.446   1.974 -0.4886 -0.2870 -0.2963
   41MOL    C1026490   1.270   3.506   2.065  0.1296  0.6862  0.3596
   41MOL    C1126491   1.321   3.630   2.137 -0.2434 -0.4335 -0.3292
   41MOL    H1226492   0.745   2.689   1.813  0.4271  1.9162  2.2779
   41MOL    H1326493   0.815   2.567   1.724  1.7654 -0.3733  1.3239
   41MOL    H1426494   1.035   2.615   1.855 -0.0693  0.6401 -1.2320
   41MOL    H1526495   0.942   2.788   2.056  0.2086 -1.3922 -1.1929
   41MOL    H1626496   0.873   2.857   1.929 -0.6350  0.3580  1.2675
   41MOL    H1726497   1.070   2.877   1.800 -1.2670 -0.2953  0.3610
   41MOL    H1826498   1.170   2.789   1.906  1.4542  2.0152  0.0544
   41MOL    H1926499   1.018   3.042   1.993  1.4248  1.8229  0.3709
   41MOL    H2026500   1.135   2.959   2.078  0.0128  1.7056  0.3112
   41MOL    H2126501   1.162   3.130   1.813 -2.6630  0.5832  0.7125
   41MOL    H2226502   1.297   3.029   1.877  0.1840 -1.1091  0.5412
   41MOL    H2326503   1.170   3.250   2.033  0.5336 -0.0435  1.3529
   41MOL    H2426504   1.321   3.194   2.063  1.7595  0.6968 -0.8510
   41MOL    H2526505   1.239   3.371   1.831  0.2253  1.8183 -0.3950
   41MOL    H2626506   1.392   3.292   1.815 -0.8729 -0.3044 -0.9096
   41MOL    H2726507   1.413   3.526   1.909  0.8007  0.2297  1.0547
   41MOL    H2826508   1.465   3.409   2.024 -1.5294 -0.3256  1.5415
   41MOL    H2926509   1.221   3.436   2.132 -0.1513  0.0315 -0.5282
   41MOL    H3026510   1.191   3.539   1.998  0.6873  0.7425 -0.2751
   41MOL    H3126511   1.249   3.675   2.205  1.8172  1.8594  0.4317
   41MOL    H3226512   1.411   3.600   2.190 -1.1384 -1.6525  0.5128
   41MOL    H3326513   1.348   3.714   2.072 -0.1463  0.4375  0.8284
   41MOL    H3426514   0.883   2.738   1.702  0.9374 -1.0404 -0.4724
   41MOL    C3526515   0.878   2.533   1.987 -0.1012 -0.5058 -0.0607
   41MOL    C3626516   0.858   2.396   1.924  0.0356  0.5259  0.4615
   41MOL    C3726517   0.993   2.351   1.853  0.0265 -0.2011 -0.1344
   41MOL    C3826518   0.992   2.215   1.772  0.0685  0.2029 -0.7765
   41MOL    C3926519   0.902   2.218   1.646 -0.0843  0.0658 -0.1555
   41MOL    C4026520   0.868   2.074   1.594 -0.1926  0.2974  0.5177
   41MOL    C4126521   0.982   2.007   1.519  0.5133  0.6849 -0.1519
   41MOL    C4226522   0.956   1.877   1.453 -0.2488 -0.2879  0.1272
   41MOL    C4326523   1.064   1.834   1.356 -0.0589 -0.8352 -0.2448
   41MOL    C4426524   1.015   1.729   1.252 -0.0904 -0.8770  0.7226
   41MOL    C4526525   0.967   1.602   1.322  0.0111 -0.0562  0.3497
   41MOL    H4626526   0.780   2.571   2.017 -0.4995  1.2658 -3.4378
   41MOL    H4726527   0.942   2.533   2.076 -3.1806  1.3033  2.2551
   41MOL    H4826528   0.783   2.397   1.845  1.7235  0.1131 -1.1922
   41MOL    H4926529   1.026   2.424   1.779 -0.8775 -0.6958 -1.0465
   41MOL    H5026530   1.071   2.336   1.928  0.5974 -2.2498 -1.0935
   41MOL    H5126531   0.951   2.134   1.832  1.8355 -1.2617 -1.4913
   41MOL    H5226532   1.093   2.184   1.744 -0.0795  0.9761 -2.1778
   41MOL    H5326533   0.935   2.288   1.569 -2.1444  0.4545 -0.7009
   41MOL    H5426534   0.804   2.254   1.675 -1.5077 -3.1688 -0.7631
   41MOL    H5526535   0.775   2.075   1.537  0.1042  1.2314  0.0310
   41MOL    H5626536   0.835   2.010   1.675 -1.4468  0.1278 -0.1146
   41MOL    H5726537   1.019   2.075   1.444 -2.2875  1.7827 -0.6168
   41MOL    H5826538   1.049   1.990   1.603 -0.6592 -0.2699  0.6220
   41MOL    H5926539   0.870   1.877   1.387  0.3306 -1.3035 -0.6519
   41MOL    H6026540   0.934   1.800   1.527 -3.5709 -0.7970 -1.3055
   41MOL    H6126541   1.157   1.802   1.402  0.0412 -2.0562 -1.2855
   41MOL    H6226542   1.083   1.918   1.289  2.2615  0.0311  1.4306
   41MOL    H6326543   0.943   1.767   1.180  0.7025 -1.0200 -0.1577
   41MOL    H6426544   1.101   1.706   1.188  0.9808  0.5297  1.6377
   41MOL    H6526545   1.059   1.561   1.365 -0.6721  1.3412  3.2111
   41MOL    H6626546   0.882   1.624   1.386  0.6255  2.8203  0.2135
   41MOL    H6726547   0.930   1.537   1.242 -0.1477  1.2916 -0.6756
   41MOL    C6826548   0.839   2.293   2.037  0.3088 -0.8476 -0.0986
   41MOL    C6926549   0.711   2.321   2.137  0.2177 -0.3808  0.0225
   41MOL    C7026550   0.575   2.327   2.066 -0.1011 -0.3634  0.4385
   41MOL    C7126551   0.535   2.206   1.969  0.0017 -0.6961 -0.2106
   41MOL    C7226552   0.399   2.238   1.903  0.5315  0.0994 -0.0736
   41MOL    C7326553   0.371   2.159   1.776  0.6279  0.3614  0.4728
   41MOL    C7426554   0.342   2.013   1.804  0.5818 -0.0720  0.1435
   41MOL    C7526555   0.310   1.923   1.687  0.0598 -0.2176 -0.3724
   41MOL    C7626556   0.246   1.785   1.715 -0.1654 -0.3043  0.4342
   41MOL    C7726557   0.249   1.698   1.589  0.1596 -1.2414 -0.2989
   41MOL    C7826558   0.231   1.547   1.616  0.0228  0.1195 -0.1336
   41MOL    H7926559   0.926   2.293   2.102 -0.7427  2.8342  1.4231
   41MOL    H8026560   0.831   2.197   1.986  3.2903 -1.0366 -0.2617
   41MOL    H8126561   0.723   2.422   2.176 -0.0882 -0.4627  0.3457
   41MOL    H8226562   0.567   2.424   2.015  1.4133 -0.3526  0.1964
   41MOL    H8326563   0.491   2.326   2.134 -0.4809 -0.8454 -0.0293
   41MOL    H8426564   0.613   2.183   1.896 -1.5757 -1.2647 -1.7409
   41MOL    H8526565   0.535   2.119   2.035  1.4247 -1.6281 -1.4166
   41MOL    H8626566   0.401   2.343   1.876 -0.1407 -0.3836 -2.1152
   41MOL    H8726567   0.309   2.217   1.961  0.0183  0.6701 -0.6560
   41MOL    H8826568   0.292   2.207   1.719  1.6379  1.9449  0.3629
   41MOL    H8926569   0.460   2.162   1.712  0.4131 -1.9620  0.0034
   41MOL    H9026570   0.246   2.010   1.855  0.1931 -0.1363 -0.5797
   41MOL    H9126571   0.425   1.962   1.852  0.5945 -0.1742  0.0135
   41MOL    H9226572   0.245   1.985   1.624  1.6117  1.7080 -0.1162
   41MOL    H9326573   0.398   1.894   1.629  0.1830  1.1625 -0.8939
   41MOL    H9426574   0.292   1.728   1.796 -1.2169 -0.8052  0.6813
   41MOL    H9526575   0.142   1.796   1.746  0.1953  1.0375  1.2028
   41MOL    H9626576   0.183   1.737   1.511 -0.6704 -0.7967  0.6286
   41MOL    H9726577   0.355   1.708   1.563 -0.0451  2.1381 -0.0195
   41MOL    H9826578   0.283   1.498   1.533  1.7077  3.9716 -1.4772
   41MOL    H9926579   0.125   1.523   1.622 -0.3890  2.3819  1.9458
   41MOL   H10026580   0.273   1.508   1.709  0.5295 -1.0263 -0.8144
   41MOL   C10126581   0.706   2.227   2.266 -0.3345  0.2794  0.2400
   41MOL   C10226582   0.760   2.292   2.395  0.2088  0.4549 -0.6416
   41MOL   C10326583   0.903   2.347   2.383 -0.3976 -0.3833  0.5221
   41MOL   C10426584   0.959   2.441   2.493 -0.3701  0.3685  0.1564
   41MOL   C10526585   1.106   2.484   2.466 -0.1416 -0.0604 -0.3837
   41MOL   C10626586   1.203   2.371   2.471 -0.2257 -0.5393 -0.3140
   41MOL   C10726587   1.352   2.424   2.469  0.3427  0.3126 -0.2944
   41MOL   C10826588   1.440   2.303   2.473 -0.3268  0.8220 -0.8082
   41MOL   C10926589   1.591   2.328   2.467 -0.1290 -0.1048  0.0793
   41MOL   C11026590   1.668   2.194   2.486  0.5670 -0.6774 -0.1101
   41MOL   C11126591   1.814   2.218   2.478  0.4416 -0.2487  0.1016
   41MOL   H11226592   0.600   2.203   2.277 -0.1518 -0.9640 -0.6457
   41MOL   H11326593   0.758   2.133   2.247 -0.1783  0.7299 -1.6270
   41MOL   H11426594   0.701   2.383   2.400 -0.1717  0.1946 -0.3496
   41MOL   H11526595   0.979   2.271   2.368  1.0742  1.2389 -0.4731
   41MOL   H11626596   0.924   2.405   2.293  1.8088 -1.5142  0.2641
   41MOL   H11726597   0.901   2.533   2.503  1.7312  1.8865 -1.1853
   41MOL   H11826598   0.966   2.393   2.590  1.3300 -0.2609 -0.2714
   41MOL   H11926599   1.104   2.538   2.372  0.3337 -0.1950 -0.4727
   41MOL   H12026600   1.119   2.564   2.539 -0.4955  0.6915 -1.1425
   41MOL   H12126601   1.176   2.311   2.557 -2.6698  0.1791 -0.5454
   41MOL   H12226602   1.178   2.306   2.387  0.2797 -2.2743  0.8480
   41MOL   H12326603   1.361   2.486   2.558 -1.7587 -0.2578  0.3482
   41MOL   H12426604   1.382   2.483   2.382  1.2287  0.5129  0.1429
   41MOL   H12526605   1.415   2.239   2.558 -1.7673 -1.0256 -2.5774
   41MOL   H12626606   1.415   2.245   2.385 -0.8764 -0.9729  0.4825
   41MOL   H12726607   1.619   2.369   2.370 -1.8299 -0.1561 -0.4473
   41MOL   H12826608   1.623   2.401   2.542  0.9931  0.8323 -1.2860
   41MOL   H12926609   1.656   2.134   2.396  0.7612 -1.7016  0.5340
   41MOL   H13026610   1.643   2.135   2.575  0.7723 -1.1590 -0.3717
   41MOL   H13126611   1.847   2.270   2.568  0.9747  1.0809 -0.8473
   41MOL   H13226612   1.874   2.127   2.476  1.0250  0.1389 -0.2248
   41MOL   H13326613   1.847   2.268   2.387  2.2418 -0.8041  0.4124
   41MOL   C13426614   0.731   2.197   2.517 -1.3263  0.2267 -0.3653
   41MOL   C13526615   0.591   2.222   2.577 -0.1859 -0.3231 -0.1469
   41MOL   C13626616   0.583   2.347   2.667  0.1506  0.3023 -0.0595
   41MOL   C13726617   0.438   2.390   2.704 -0.4129 -0.0888 -0.2132
   41MOL   C13826618   0.428   2.499   2.808 -0.6704  0.0919 -0.0720
   41MOL   C13926619   0.525   2.489   2.931  0.5293  0.1641 -0.1623
   41MOL   C14026620   0.489   2.376   3.031  0.3098 -0.7792 -0.0527
   41MOL   C14126621   0.537   2.397   3.175 -0.6218  0.6117  0.7837
   41MOL   C14226622   0.678   2.345   3.189  0.3392  0.3718 -0.0376
   41MOL   C14326623   0.718   2.352   3.334 -0.4846 -0.3213  0.0561
   41MOL   C14426624   0.850   2.294   3.371 -0.3333  0.3853  0.0441
   41MOL   H14526625   0.753   2.094   2.489 -1.6608 -0.5131  1.9995
   41MOL   H14626626   0.800   2.220   2.598 -0.6464 -1.5129 -0.4356
   41MOL   H14726627   0.521   2.231   2.494 -0.2400 -1.5368 -0.2530
   41MOL   H14826628   0.642   2.426   2.621 -0.6931 -0.0168 -1.7204
   41MOL   H14926629   0.640   2.319   2.756 -0.7471  1.4536  0.8944
   41MOL   H15026630   0.385   2.424   2.615  0.2613  2.6115  0.3606
   41MOL   H15126631   0.380   2.313   2.753 -1.1130  1.7926  2.0390
   41MOL   H15226632   0.451   2.591   2.755  3.2451 -0.2711  0.7796
   41MOL   H15326633   0.323   2.500   2.835 -0.8553 -1.5897 -0.6204
   41MOL   H15426634   0.624   2.482   2.884  1.0971  0.1088  1.0152
   41MOL   H15526635   0.525   2.583   2.987 -0.7035  0.1254 -0.0873
   41MOL   H15626636   0.381   2.388   3.042  0.2650 -0.3282 -0.9259
   41MOL   H15726637   0.496   2.273   2.996 -1.7625 -1.0037  0.1159
   41MOL   H15826638   0.525   2.502   3.203  0.2060  0.4902  1.6393
   41MOL   H15926639   0.471   2.329   3.229 -1.6138  0.8432 -0.1232
   41MOL   H16026640   0.702   2.246   3.152  0.4145  1.7972 -4.1051
   41MOL   H16126641   0.749   2.413   3.140 -1.3495  2.1636 -0.0303
   41MOL   H16226642   0.723   2.459   3.356 -1.1682 -0.4715  0.9786
   41MOL   H16326643   0.637   2.322   3.401  0.1872  2.6177  2.2920
   41MOL   H16426644   0.925   2.322   3.296 -0.7107  0.5231 -0.2869
   41MOL   H16526645   0.837   2.185   3.369 -3.8178  0.7497 -0.8162
   41MOL   H16626646   0.886   2.318   3.470 -1.1039  0.6103  0.2725
   41MOL   C16726647   0.552   2.095   2.659  0.0018 -0.0075 -0.0659
   41MOL   C16826648   0.439   2.004   2.597  0.2629  0.1997 -0.1095
   41MOL   C16926649   0.298   2.045   2.657 -0.1136 -0.3079 -0.6035
   41MOL   C17026650   0.294   2.017   2.813  0.4026  1.0299 -0.4000
   41MOL   C17126651   0.162   2.054   2.898  0.4585  0.6451  0.2297
   41MOL   C17226652   0.160   2.191   2.972 -0.4739 -0.0820 -0.1075
   41MOL   C17326653   0.039   2.205   3.061  0.2580 -0.6479 -1.0476
   41MOL   C17426654   0.018   2.346   3.129 -0.3524  0.2956  0.3674
   41MOL   C17526655   7.583   2.360   3.191  0.5430  0.5532 -0.8039
   41MOL   C17626656   7.479   2.419   3.095  0.3660 -0.0867 -0.1131
   41MOL   C17726657   7.352   2.455   3.174 -0.4593 -0.2445 -0.2168
   41MOL   H17826658   0.642   2.035   2.677  0.0007 -0.8347 -2.5222
   41MOL   H17926659   0.523   2.126   2.759 -0.5187  1.3377 -0.6269
   41MOL   H18026660   0.441   2.031   2.492  0.4896 -2.0824 -0.7046
   41MOL   H18126661   0.222   1.994   2.597 -1.4434  0.3280  0.5221
   41MOL   H18226662   0.269   2.148   2.633 -1.6767 -0.5120  0.3734
   41MOL   H18326663   0.315   1.913   2.841  0.2252  1.1280  0.0896
   41MOL   H18426664   0.370   2.062   2.877  0.2812 -0.7325  1.0370
   41MOL   H18526665   0.147   1.977   2.973 -1.3415  1.1861  0.4638
   41MOL   H18626666   0.073   2.040   2.835 -1.1211 -0.9310  2.7490
   41MOL   H18726667   0.258   2.204   3.018 -0.2416 -1.3227 -0.2274
   41MOL   H18826668   0.181   2.268   2.898 -1.1511 -0.5890 -0.8371
   41MOL   H18926669   0.037   2.130   3.141  3.1576  0.7923  0.4422
   41MOL   H19026670   7.660   2.175   2.995 -1.1877 -0.7187  0.7362
   41MOL   H19126671   0.092   2.370   3.206 -1.7640 -0.0405  1.8537
   41MOL   H19226672   0.031   2.422   3.052 -1.1592  0.2569  0.1928
   41MOL   H19326673   7.583   2.424   3.280 -3.1604 -0.4565  0.0247
   41MOL   H19426674   7.551   2.264   3.231 -3.1935  1.4530 -1.3766
   41MOL   H19526675   7.446   2.365   3.006 -0.9129 -0.8661  0.8074
   41MOL   H19626676   7.510   2.514   3.052  0.8747  0.2187  0.9154
   41MOL   H19726677   7.374   2.543   3.234  1.3419  0.4980 -1.9227
   41MOL   H19826678   7.326   2.371   3.239  0.1075 -1.2866 -1.3150
   41MOL   H19926679   7.258   2.460   3.120  0.2396  1.5239 -1.2941
   41MOL   C20026680   0.471   1.855   2.605 -0.7784  0.1098 -0.1636
   41MOL   C20126681   0.578   1.789   2.514 -0.6314 -0.5671  0.0259
   41MOL   C20226682   0.728   1.777   2.544  0.0423  0.1359  0.0531
   41MOL   C20326683   0.766   1.746   2.690  0.4137  0.3706 -0.9558
   41MOL   C20426684   0.919   1.702   2.689 -0.6464  0.0612  0.3660
   41MOL   C20526685   1.010   1.822   2.653 -0.2429 -0.5562  0.0158
   41MOL   C20626686   1.157   1.782   2.636  0.3520  0.7674 -0.4715
   41MOL   C20726687   1.237   1.908   2.607  0.3060  0.4214  0.4399
   41MOL   C20826688   1.390   1.896   2.615 -0.3971  0.6967 -0.3561
   41MOL   C20926689   1.454   1.883   2.479 -0.0030 -0.5837 -0.1385
   41MOL   C21026690   1.596   1.823   2.488  0.5015  0.6976 -0.0628
   41MOL   H21126691   0.474   1.828   2.710  1.8349 -3.1899 -1.0304
   41MOL   H21226692   0.376   1.806   2.583 -0.5211  0.2326 -1.6048
   41MOL   H21326693   0.556   1.683   2.511 -0.2965 -0.6108 -1.1737
   41MOL   H21426694   0.776   1.870   2.513  0.4076  0.0177  0.2589
   41MOL   H21526695   0.776   1.701   2.481  0.0133 -0.7738  1.0980
   41MOL   H21626696   0.714   1.653   2.713  0.1238  0.5526 -0.8779
   41MOL   H21726697   0.735   1.823   2.761 -0.2654 -0.6224 -0.1575
   41MOL   H21826698   0.938   1.626   2.613  1.0292 -0.3062  1.1510
   41MOL   H21926699   0.942   1.661   2.787  0.8510 -1.1794 -0.4794
   41MOL   H22026700   0.989   1.874   2.559 -0.7429  0.6570  0.7937
   41MOL   H22126701   1.002   1.895   2.733  0.9595 -0.4556  0.0589
   41MOL   H22226702   1.175   1.707   2.560  1.5640 -0.9660  1.4641
   41MOL   H22326703   1.208   1.739   2.722  1.4892  0.2638 -1.3914
   41MOL   H22426704   1.207   1.990   2.672 -2.4921 -0.6924  0.6223
   41MOL   H22526705   1.206   1.945   2.509  0.6867  0.3078  0.2735
   41MOL   H22626706   1.421   1.810   2.675  0.9527  0.8721 -0.7883
   41MOL   H22726707   1.430   1.987   2.659 -0.6170  0.8669 -0.5045
   41MOL   H22826708   1.399   1.820   2.409 -1.2240 -1.2265  1.3811
   41MOL   H22926709   1.462   1.982   2.434 -1.0175  0.0165  0.9959
   41MOL   H23026710   1.660   1.874   2.560  0.0413 -2.3877  2.6559
   41MOL   H23126711   1.652   1.820   2.395 -0.3714  0.2436 -0.5876
   41MOL   H23226712   1.587   1.719   2.520 -1.0004  0.7883 -0.1217
   41MOL   C23326713   0.555   1.834   2.368  0.8288  0.1247  0.8730
   41MOL   C23426714   0.586   1.740   2.249  0.2155 -0.1632 -0.6334
   41MOL   C23526715   0.698   1.805   2.158  0.4330  0.3460  0.7291
   41MOL   C23626716   0.838   1.826   2.221  0.1724 -0.4719  0.1345
   41MOL   C23726717   0.925   1.892   2.113  0.4155  0.1774 -0.6413
   41MOL   C23826718   1.059   1.926   2.171 -0.6031 -0.4241 -0.1776
   41MOL   C23926719   1.138   2.016   2.083 -0.9270  0.0958 -0.1336
   41MOL   C24026720   1.280   2.051   2.140 -0.3547 -0.4333  0.2683
   41MOL   C24126721   1.367   2.132   2.046  0.2366  0.1039 -0.4255
   41MOL   C24226722   1.488   2.195   2.118 -0.5844  0.6294  0.6302
   41MOL   C24326723   1.604   2.248   2.028  0.7544  0.4377  0.0104
   41MOL   H24426724   0.604   1.930   2.348 -0.7538  0.6731 -0.5199
   41MOL   H24526725   0.452   1.867   2.354  0.4052 -1.1492  0.9291
   41MOL   H24626726   0.641   1.660   2.298  0.7284  0.2357 -0.5529
   41MOL   H24726727   0.721   1.740   2.074 -1.6502 -0.4358  0.7295
   41MOL   H24826728   0.648   1.890   2.112 -1.8145 -1.2751  0.0675
   41MOL   H24926729   0.884   1.736   2.261 -2.5893 -2.3055 -0.6311
   41MOL   H25026730   0.814   1.889   2.307 -0.6117 -0.7676  0.1422
   41MOL   H25126731   0.883   1.984   2.074  0.2823 -0.0085 -0.9315
   41MOL   H25226732   0.936   1.827   2.026 -1.8456  0.0969 -0.8733
   41MOL   H25326733   1.110   1.831   2.192 -0.5829 -0.3107  0.2817
   41MOL   H25426734   1.046   1.967   2.271  3.2055  2.0986 -0.6069
   41MOL   H25526735   1.138   1.976   1.982 -0.6939  0.0557 -0.1192
   41MOL   H25626736   1.087   2.112   2.084 -1.3038 -0.1000  1.0513
   41MOL   H25726737   1.275   2.095   2.239 -2.1845  2.1816 -0.9356
   41MOL   H25826738   1.340   1.961   2.154 -0.0206 -0.2692 -0.0768
   41MOL   H25926739   1.402   2.082   1.956  1.0495  1.5374 -0.9202
   41MOL   H26026740   1.304   2.214   2.010  0.0325 -0.6717 -1.8606
   41MOL   H26126741   1.529   2.122   2.188 -0.0830 -0.3657 -0.6670
   41MOL   H26226742   1.455   2.282   2.175 -1.0727  0.3625  0.7626
   41MOL   H26326743   1.637   2.162   1.970 -1.3371  0.8068 -1.8011
   41MOL   H26426744   1.688   2.302   2.070  0.1406  1.4784 -0.0804
   41MOL   H26526745   1.568   2.307   1.944  0.0580 -0.1357 -0.1004
   41MOL   C26626746   0.459   1.687   2.172 -0.4578  0.1450 -0.7567
   41MOL   C26726747   0.384   1.577   2.244  0.0152 -0.1871  0.4116
   41MOL   C26826748   0.454   1.439   2.214  0.7078  0.0243  0.7693
   41MOL   C26926749   0.469   1.346   2.336 -0.0964  0.2007  0.3148
   41MOL   C27026750   0.553   1.394   2.458 -0.3422 -0.1045 -0.3985
   41MOL   C27126751   0.561   1.303   2.576  0.1771  0.3179 -0.8732
   41MOL   C27226752   0.652   1.350   2.686 -0.1674 -0.8214  0.4558
   41MOL   C27326753   0.636   1.274   2.816 -0.8777 -0.3775 -0.2323
   41MOL   C27426754   0.759   1.287   2.906 -0.1289 -0.4353  0.4470
   41MOL   C27526755   0.789   1.424   2.953  0.2174  0.7706  0.0188
   41MOL   C27626756   0.883   1.425   3.076  0.1327 -0.4896 -0.3601
   41MOL   H27726757   0.497   1.650   2.077  0.5254 -0.1976 -0.2367
   41MOL   H27826758   0.400   1.777   2.155  0.3959  0.6963 -0.8239
   41MOL   H27926759   0.400   1.604   2.348  0.1886 -0.1498  0.3754
   41MOL   H28026760   0.392   1.388   2.140  0.7200 -3.0595  2.7920
   41MOL   H28126761   0.551   1.462   2.171  0.8435  1.8982  2.0199
   41MOL   H28226762   0.508   1.251   2.298  0.9397  0.4331  0.7627
   41MOL   H28326763   0.366   1.329   2.365  0.0270  2.9873  2.6292
   41MOL   H28426764   0.513   1.486   2.500  0.4319 -0.6782  1.6629
   41MOL   H28526765   0.657   1.415   2.434 -0.0645 -0.7626  0.2091
   41MOL   H28626766   0.592   1.207   2.536  2.3617  1.0567 -1.0009
   41MOL   H28726767   0.470   1.296   2.636 -0.6683 -1.6192 -2.3198
   41MOL   H28826768   0.753   1.345   2.645  0.3068 -1.8178  1.7138
   41MOL   H28926769   0.641   1.458   2.690  1.7972 -0.4838 -1.9844
   41MOL   H29026770   0.609   1.170   2.797 -0.3105 -0.5006 -0.3606
   41MOL   H29126771   0.540   1.296   2.862 -1.6053  0.2725 -2.0153
   41MOL   H29226772   0.744   1.222   2.992 -2.5398 -0.5591 -0.0226
   41MOL   H29326773   0.839   1.236   2.852 -0.4136 -2.1156  1.5619
   41MOL   H29426774   0.700   1.475   2.990 -0.6627  0.4623 -1.6750
   41MOL   H29526775   0.823   1.490   2.873  0.6446 -0.0440 -0.4719
   41MOL   H29626776   0.920   1.526   3.092  0.8797 -1.0964  1.9784
   41MOL   H29726777   0.970   1.364   3.051  0.8138  0.6930 -0.9153
   41MOL   H29826778   0.836   1.375   3.161 -1.0093 -1.5166 -1.5671
   41MOL   C29926779   0.231   1.570   2.210  0.2156 -0.4272 -0.2618
   41MOL   C30026780   0.143   1.638   2.321  0.5251 -0.1981  0.1571
   41MOL   C30126781   0.142   1.788   2.339 -0.0949  0.4437  0.0484
   41MOL   C30226782   0.115   1.867   2.217 -0.1160 -0.0033 -0.6157
   41MOL   C30326783   0.124   2.019   2.243  0.8799 -0.3950 -0.0916
   41MOL   C30426784   7.689   2.076   2.284  0.1568 -0.2844 -0.4975
   41MOL   C30526785   7.695   2.221   2.337 -0.2122 -0.0726  0.6331
   41MOL   C30626786   0.039   2.323   2.235  0.0363 -0.3048  0.0702
   41MOL   C30726787   0.043   2.472   2.280  0.7019  0.8371  0.6354
   41MOL   C30826788   0.153   2.521   2.383 -0.3122  0.1585 -0.4943
   41MOL   C30926789   0.291   2.510   2.318  0.3767 -1.0639 -0.4939
   41MOL   H31026790   0.191   1.468   2.210  0.0940 -0.3904  1.0774
   41MOL   H31126791   0.203   1.594   2.108  0.4594 -0.0466 -0.2396
   41MOL   H31226792   0.040   1.614   2.295  0.6215  1.0156 -1.4346
   41MOL   H31326793   0.056   1.805   2.404  0.2630 -1.1427  0.9812
   41MOL   H31426794   0.235   1.829   2.378 -0.2455  1.1020 -0.2771
   41MOL   H31526795   0.189   1.840   2.142  2.0601  2.4355  0.5913
   41MOL   H31626796   0.026   1.831   2.164 -0.5405  1.0441 -0.6234
   41MOL   H31726797   0.206   2.036   2.312  0.6313 -0.3109  0.1846
   41MOL   H31826798   0.146   2.072   2.150  1.6472 -0.2612  0.1697
   41MOL   H31926799   7.653   2.008   2.361  0.8801  0.0937  0.1830
   41MOL   H32026800   7.612   2.068   2.208 -0.6337  0.6993  0.1715
   41MOL   H32126801   7.598   2.260   2.369  0.0765  1.4834 -0.3860
   41MOL   H32226802   0.042   2.227   2.434  0.8264 -0.5555  0.1283
   41MOL   H32326803   7.684   2.313   2.144  0.4175  0.4412 -0.2609
   41MOL   H32426804   0.141   2.298   2.203  0.7285 -0.0385  2.0035
   41MOL   H32526805   7.648   2.496   2.319 -1.1480  0.2638 -3.4710
   41MOL   H32626806   0.036   2.531   2.189  0.6675  0.5094  0.4253
   41MOL   H32726807   0.158   2.465   2.477 -0.9126 -1.9150 -1.6586
   41MOL   H32826808   0.137   2.625   2.411  1.7832  0.2995  0.2438
   41MOL   H32926809   0.329   2.408   2.312  0.9325 -0.8826 -0.1132
   41MOL   H33026810   0.299   2.549   2.216  0.8393 -2.8029 -1.1365
   41MOL   H33126811   0.354   2.575   2.379 -1.0701  0.3176 -0.4672
   41MOL   C33226812   0.169   1.562   2.456 -0.3620 -0.9180 -0.6003
   41MOL   C33326813   0.071   1.587   2.576 -0.2658  1.0150 -0.4914
   41MOL   C33426814   0.126   1.530   2.703 -0.6288  0.5022  0.4451
   41MOL   C33526815   0.246   1.606   2.762 -0.4760  0.7131 -0.1258
   41MOL   C33626816   0.285   1.546   2.898  0.6632 -0.0329 -0.3680
   41MOL   C33726817   0.418   1.604   2.968  0.6262 -0.4250  0.3899
   41MOL   C33826818   0.452   1.540   3.102 -0.3782  0.1483 -0.4597
   41MOL   C33926819   0.556   1.627   3.170 -0.7024 -0.2568 -0.5013
   41MOL   C34026820   0.600   1.546   3.296 -0.6303 -0.0634 -1.2086
   41MOL   C34126821   0.656   1.638   3.401  1.3729  0.5952 -0.1019
   41MOL   C34226822   0.808   1.663   3.377 -0.3852  0.2061  0.0470
   41MOL   H34326823   0.177   1.454   2.442  0.5462 -1.1063  1.1515
   41MOL   H34426824   0.271   1.577   2.492 -0.4160  0.5880 -1.0491
   41MOL   H34526825   0.059   1.695   2.585 -1.3183  1.1240 -2.8571
   41MOL   H34626826   0.148   1.423   2.698  0.9045  0.6838  2.6070
   41MOL   H34726827   0.052   1.544   2.781 -1.9515  1.1007 -0.9047
   41MOL   H34826828   0.336   1.587   2.704 -0.3556 -0.4831  0.4397
   41MOL   H34926829   0.227   1.712   2.746 -1.9908  0.3261 -1.0528
   41MOL   H35026830   0.204   1.555   2.971 -1.9406 -1.5975 -2.9458
   41MOL   H35126831   0.293   1.438   2.891 -3.2038 -0.4127 -0.3460
   41MOL   H35226832   0.401   1.710   2.984  0.7563 -0.7516  2.8808
   41MOL   H35326833   0.499   1.600   2.895  0.7852  2.3723  0.3856
   41MOL   H35426834   0.500   1.443   3.089  1.9460  1.3140 -0.9462
   41MOL   H35526835   0.360   1.533   3.160  0.2292  0.9504  0.6190
   41MOL   H35626836   0.632   1.646   3.094  0.8566 -0.5741  0.9473
   41MOL   H35726837   0.508   1.721   3.199 -0.9615 -0.8731  1.1109
   41MOL   H35826838   0.670   1.469   3.266  1.2516  0.4340  1.7031
   41MOL   H35926839   0.512   1.505   3.346  0.1727 -1.5964 -1.0222
   41MOL   H36026840   0.638   1.612   3.505 -2.3970 -1.6280 -1.2055
   41MOL   H36126841   0.604   1.733   3.390 -0.2006 -0.1577  0.7038
   41MOL   H36226842   0.864   1.570   3.390 -0.6166 -0.1998 -1.7464
   41MOL   H36326843   0.832   1.712   3.283 -0.7513 -2.0063 -1.2417
   41MOL   H36426844   0.829   1.733   3.458 -3.1220  2.0081 -0.7294
   41MOL   C36526845   7.627   1.541   2.558 -0.0623 -0.7055 -0.6077
   41MOL   C36626846   7.526   1.575   2.673 -0.2774  0.2927  0.2453
   41MOL   C36726847   7.518   1.721   2.711  0.0123 -0.1715 -0.1255
   41MOL   C36826848   7.463   1.820   2.607 -0.2890  0.2847  0.2551
   41MOL   C36926849   7.420   1.959   2.659 -1.5630 -1.1332 -0.3453
   41MOL   C37026850   7.354   2.042   2.549 -0.1058  0.0260  0.0836
   41MOL   C37126851   7.310   2.177   2.612 -0.3734 -0.2946 -0.2277
   41MOL   C37226852   7.249   2.269   2.511 -0.4703  0.9878 -1.2470
   41MOL   C37326853   7.178   2.379   2.591  1.1119 -0.2425  0.0567
   41MOL   C37426854   7.142   2.504   2.500 -0.4848 -0.1667  0.3019
   41MOL   C37526855   7.263   2.602   2.495 -0.5849 -0.1983  0.7467
   41MOL   H37626856   7.582   1.591   2.472 -0.6677 -0.0768  0.0791
   41MOL   H37726857   7.633   1.434   2.536 -1.5587 -0.3211 -3.0726
   41MOL   H37826858   7.560   1.531   2.766  0.2710  0.6470  0.2111
   41MOL   H37926859   7.616   1.752   2.748  0.3710 -1.1934 -0.1969
   41MOL   H38026860   7.451   1.720   2.797 -0.7290  3.3825 -0.5764
   41MOL   H38126861   7.366   1.787   2.569 -1.4811  4.0579 -0.1684
   41MOL   H38226862   7.525   1.826   2.518  0.6643  3.8728  1.0923
   41MOL   H38326863   7.507   2.019   2.687 -0.1073 -2.8769 -1.0181
   41MOL   H38426864   7.357   1.954   2.748 -0.3087 -0.1412  0.6161
   41MOL   H38526865   7.266   1.985   2.519  1.5407 -2.7406  0.3217
   41MOL   H38626866   7.416   2.061   2.461  1.6869  2.5768  1.8251
   41MOL   H38726867   7.242   2.159   2.695 -0.8975 -1.6735 -0.9511
   41MOL   H38826868   7.391   2.239   2.652 -0.0943 -0.2461 -0.8599
   41MOL   H38926869   7.181   2.223   2.438  1.4567 -2.8187 -0.7450
   41MOL   H39026870   7.328   2.314   2.451  1.7428  0.7956  1.4871
   41MOL   H39126871   7.080   2.347   2.626  1.8427 -0.0502  2.4023
   41MOL   H39226872   7.235   2.419   2.676  0.9188 -0.0980  0.1190
   41MOL   H39326873   7.109   2.481   2.398  0.4212  0.6914 -0.2007
   41MOL   H39426874   7.059   2.557   2.547  1.4915  1.7756  1.6853
   41MOL   H39526875   7.288   2.620   2.599  1.1740  0.7534  0.1737
   41MOL   H39626876   7.240   2.698   2.448 -2.3824 -1.0145 -0.0861
   41MOL   H39726877   7.351   2.557   2.449 -1.0019  0.5882 -0.8775
   41MOL   C39826878   7.388   1.517   2.645 -0.0900 -0.1438 -0.0084
   41MOL   C39926879   7.374   1.370   2.666  0.5925  0.1064  0.6129
   41MOL   C40026880   7.255   1.313   2.575 -0.1944 -0.3213  0.2744
   41MOL   C40126881   7.274   1.325   2.421  0.2545 -0.5695 -0.5675
   41MOL   C40226882   7.180   1.220   2.362 -0.2382 -0.1047 -0.8359
   41MOL   C40326883   7.200   1.188   2.214  0.7545 -0.4928 -0.1482
   41MOL   C40426884   7.129   1.058   2.176 -0.4388  0.3980  0.2038
   41MOL   C40526885   7.148   1.023   2.028  0.0925 -0.1094 -0.6277
   41MOL   C40626886   7.139   0.867   2.013  0.6591  0.1804 -0.0276
   41MOL   C40726887   7.122   0.818   1.868  1.0904 -0.3795  0.0880
   41MOL   C40826888   7.120   0.668   1.844  0.4153 -0.1218  0.1184
   41MOL   H40926889   7.362   1.556   2.546  0.4851 -0.4862 -0.2892
   41MOL   H41026890   7.316   1.566   2.711  0.0734 -1.3002  1.0283
   41MOL   H41126891   7.463   1.314   2.635  0.0416 -1.1416  1.2694
   41MOL   H41226892   7.163   1.364   2.605 -0.2808  0.4931 -1.3292
   41MOL   H41326893   7.244   1.209   2.607 -1.2198 -1.1286 -2.5721
   41MOL   H41426894   7.271   1.429   2.388  0.0604  0.2257  1.8378
   41MOL   H41526895   7.377   1.294   2.405  0.6814  0.5233 -0.0201
   41MOL   H41626896   7.185   1.121   2.409 -2.9672 -0.5101 -1.2816
   41MOL   H41726897   7.080   1.256   2.387 -0.1218 -0.5507  0.3366
   41MOL   H41826898   7.304   1.180   2.184  0.5769 -1.5762 -0.4798
   41MOL   H41926899   7.168   1.274   2.154 -1.0735 -1.7665 -1.0474
   41MOL   H42026900   7.172   0.972   2.226 -1.5695 -0.4836 -0.3053
   41MOL   H42126901   7.020   1.056   2.189 -0.4276  0.4663  0.3085
   41MOL   H42226902   7.241   1.061   1.985  0.4789  0.2491  0.5039
   41MOL   H42326903   7.083   1.084   1.964 -0.5389 -2.2824 -2.1124
   41MOL   H42426904   7.226   0.817   2.055 -0.3090 -2.7564 -1.3959
   41MOL   H42526905   7.049   0.841   2.068  1.7995 -1.8044  0.9109
   41MOL   H42626906   7.194   0.864   1.801 -0.8969  1.1105 -1.0848
   41MOL   H42726907   7.027   0.857   1.831  2.0155  2.1835  0.2968
   41MOL   H42826908   7.208   0.611   1.870  0.2283 -0.3558  0.2378
   41MOL   H42926909   7.109   0.650   1.737 -1.3510  0.4837  0.1670
   41MOL   H43026910   7.030   0.624   1.887  0.5060 -0.0879  0.3428
   41MOL   C43126911   7.344   1.339   2.813 -0.0295  0.0029  0.6025
   41MOL   C43226912   7.373   1.190   2.860  0.2168 -0.4672  0.4231
   41MOL   C43326913   7.263   1.132   2.946  0.7543  0.0156  0.0082
   41MOL   C43426914   7.132   1.097   2.862  0.7516  0.1992 -0.0510
   41MOL   C43526915   7.031   1.022   2.942 -0.1303  0.4124  0.1316
   41MOL   C43626916   7.049   0.866   2.939  0.1385  0.6144 -0.2279
   41MOL   C43726917   6.938   0.793   3.008  0.2655  0.5256 -0.0674
   41MOL   C43826918   6.960   0.638   3.025 -0.3555  0.1722 -0.0311
   41MOL   C43926919   7.052   0.605   3.140 -0.1439  0.1479  0.3968
   41MOL   C44026920   7.053   0.456   3.184  0.0798 -0.2902 -0.3759
   41MOL   C44126921   6.926   0.406   3.263 -0.4359 -0.1694 -0.0460
   41MOL   H44226922   7.249   1.377   2.850  0.5604  2.2470 -0.1191
   41MOL   H44326923   7.414   1.404   2.864  0.5552 -1.5533  1.8281
   41MOL   H44426924   7.382   1.126   2.772  0.3680  0.6750 -0.4035
   41MOL   H44526925   7.303   1.056   3.013 -1.4488  0.5812  2.0346
   41MOL   H44626926   7.222   1.202   3.018  0.5233  0.3811 -0.4747
   41MOL   H44726927   7.169   1.042   2.776  0.4229  0.6894 -0.5120
   41MOL   H44826928   7.097   1.194   2.827 -0.7322 -0.0105  0.7907
   41MOL   H44926929   6.935   1.042   2.895  0.4488 -0.5952 -1.5007
   41MOL   H45026930   7.022   1.057   3.045  0.6810 -1.6689  0.9487
   41MOL   H45126931   7.146   0.840   2.982  0.2114 -1.4001 -1.5138
   41MOL   H45226932   7.057   0.833   2.835 -2.4671  1.1805 -0.6478
   41MOL   H45326933   6.843   0.798   2.954 -0.1050 -2.9602  0.1259
   41MOL   H45426934   6.921   0.846   3.101 -2.3452 -1.0632  0.4001
   41MOL   H45526935   6.862   0.597   3.047  0.0230 -1.2679 -0.9861
   41MOL   H45626936   6.987   0.595   2.929  0.0438 -2.4151  1.1905
   41MOL   H45726937   7.022   0.658   3.230  0.6375  0.5596  0.4122
   41MOL   H45826938   7.154   0.641   3.128  0.4644 -1.8475 -0.7025
   41MOL   H45926939   7.144   0.437   3.239  1.0829  0.6408 -1.6808
   41MOL   H46026940   7.068   0.399   3.092  1.6949  0.0548 -0.3350
   41MOL   H46126941   6.958   0.308   3.299  1.4428 -1.3243 -4.5090
   41MOL   H46226942   6.916   0.479   3.344 -0.2810 -1.2363  0.9459
   41MOL   H46326943   6.836   0.403   3.202 -1.3358 -0.8738  1.2979
   41MOL   C46426944   7.498   1.175   2.938  0.9024  0.4310 -0.2741
   41MOL   C46526945   7.632   1.165   2.854 -0.2334  0.0665 -0.4283
   41MOL   C46626946   0.043   1.232   2.926 -0.2988 -0.1836 -0.5173
   41MOL   C46726947   0.085   1.172   3.057  0.4761  0.2057  0.6010
   41MOL   C46826948   0.188   1.252   3.135 -0.1433 -0.5090  0.0629
   41MOL   C46926949   0.201   1.193   3.271 -0.2993  0.2682  0.2599
   41MOL   C47026950   0.294   1.283   3.355 -0.0835 -0.4989 -0.6378
   41MOL   C47126951   0.285   1.236   3.497 -0.7204  0.0127 -0.1599
   41MOL   C47226952   0.374   1.312   3.594 -0.2092  0.7633  0.6498
   41MOL   C47326953   0.510   1.247   3.638  0.1917  0.5154  0.0038
   41MOL   C47426954   0.502   1.152   3.762 -0.1092  0.5904  0.1533
   41MOL   H47526955   7.499   1.100   3.017 -2.6455 -0.3995 -0.9596
   41MOL   H47626956   7.516   1.266   2.995  1.0537 -0.2750  0.8363
   41MOL   H47726957   7.610   1.221   2.764  0.7230  0.5307 -0.3801
   41MOL   H47826958   0.020   1.338   2.929  1.7976  0.3277 -0.9922
   41MOL   H47926959   0.126   1.238   2.855 -1.1043  0.2812 -1.4388
   41MOL   H48026960   7.700   1.157   3.119  1.2728 -2.6850  1.1128
   41MOL   H48126961   0.132   1.074   3.045  1.8489  0.9018  0.0825
   41MOL   H48226962   0.149   1.354   3.137 -1.2876 -0.9019 -0.9278
   41MOL   H48326963   0.278   1.255   3.073 -0.5078 -1.7677 -0.5532
   41MOL   H48426964   0.102   1.178   3.315 -0.1690 -0.4157  0.3243
   41MOL   H48526965   0.240   1.092   3.265 -0.2461  0.3316 -0.5412
   41MOL   H48626966   0.395   1.292   3.315  0.4628 -0.0611  0.8299
   41MOL   H48726967   0.253   1.384   3.352  0.2617 -0.3732 -1.1103
   41MOL   H48826968   0.182   1.236   3.531 -0.4559 -0.5516  0.6645
   41MOL   H48926969   0.308   1.132   3.520  0.7729  0.7643  1.9028
   41MOL   H49026970   0.379   1.415   3.558  1.2222  0.0351 -1.2913
   41MOL   H49126971   0.325   1.333   3.689  2.5501  0.7244  2.1394
   41MOL   H49226972   0.558   1.198   3.553 -1.2702 -2.8040  1.0256
   41MOL   H49326973   0.567   1.333   3.674  1.9203 -0.0907 -1.2252
   41MOL   H49426974   0.596   1.096   3.763 -0.3158  0.2459  0.1774
   41MOL   H49526975   0.417   1.084   3.751  0.2787  0.3482 -1.6129
   41MOL   H49626976   0.501   1.200   3.859 -0.2010  0.9392 -0.0193
   41MOL   C49726977   7.662   1.015   2.818  0.1152 -0.3452  0.2008
   41MOL   C49826978   0.081   0.990   2.724  0.3414  0.6996  0.3099
   41MOL   C49926979   0.045   1.025   2.580  0.7759 -0.5864 -0.1374
   41MOL   C50026980   0.176   1.049   2.507 -0.4496 -0.1951  0.7167
   41MOL   C50126981   0.164   1.098   2.360 -0.1335 -0.1441 -0.5199
   41MOL   C50226982   0.129   0.981   2.253 -0.0884 -0.2063 -0.4772
   41MOL   C50326983   0.126   1.049   2.115  0.1472 -0.3630  0.4774
   41MOL   C50426984   0.083   0.964   1.998  0.4970  0.1852  0.7845
   41MOL   C50526985   7.639   0.919   1.991  0.0465 -0.8527  0.1671
   41MOL   C50626986   7.616   0.820   1.866  0.3525 -0.0906  0.0255
   41MOL   C50726987   7.475   0.751   1.882 -0.2660 -0.3058 -0.6099
   41MOL   H50826988   7.690   0.972   2.914  0.3679 -1.3581 -0.3218
   41MOL   H50926989   7.574   0.956   2.795 -1.6546  1.8339  1.2432
   41MOL   H51026990   0.167   1.053   2.746 -0.1795  2.8061 -3.2245
   41MOL   H51126991   7.696   1.120   2.573  1.3971 -0.2702 -0.5139
   41MOL   H51226992   7.688   0.954   2.524  2.3477 -0.7640 -1.6506
   41MOL   H51326993   0.235   0.957   2.500  1.3460  1.1476 -3.7363
   41MOL   H51426994   0.241   1.124   2.552  0.3303 -0.3590 -0.1189
   41MOL   H51526995   0.104   1.189   2.363  0.2095  0.1267 -1.5733
   41MOL   H51626996   0.257   1.142   2.323 -0.3654  1.6097  0.9379
   41MOL   H51726997   0.209   0.906   2.251 -1.0705 -1.2681 -0.2563
   41MOL   H51826998   0.043   0.920   2.282 -1.5353  1.8719 -0.3205
   41MOL   H51926999   0.065   1.139   2.123  0.7311 -0.0370  1.4416
   41MOL   H52027000   0.226   1.085   2.093 -0.2029 -0.1959 -0.8675
   41MOL   H52127001   0.146   0.875   1.991 -1.0560 -0.7556 -1.7412
   41MOL   H52227002   0.116   1.014   1.907 -0.0201 -1.6232 -0.4322
   41MOL   H52327003   7.571   1.005   1.986  1.7347  0.4632 -0.8846
   41MOL   H52427004   7.617   0.868   2.085  0.0464  0.2201  0.7629
   41MOL   H52527005   7.697   0.754   1.833  1.1611  0.5272  0.7356
   41MOL   H52627006   7.611   0.883   1.778 -1.4465  0.9268  0.8321
   41MOL   H52727007   7.399   0.804   1.940 -2.1374 -1.1668 -2.2208
   41MOL   H52827008   7.486   0.656   1.936 -1.8670 -1.8869 -2.9795
   41MOL   H52927009   7.429   0.727   1.786 -2.0896  0.2590  0.0920
   41MOL   C53027010   0.132   0.843   2.742  0.0157  0.2801 -0.7973
   41MOL   C53127011   0.187   0.806   2.881  0.2225 -0.1850  0.9896
   41MOL   C53227012   0.309   0.891   2.921 -0.1102 -0.1510 -0.6882
   41MOL   C53327013   0.368   0.871   3.057 -0.2405 -0.5669 -0.4320
   41MOL   C53427014   0.473   0.983   3.091 -0.3419 -0.1111 -0.5156
   41MOL   C53527015   0.531   0.964   3.230  0.3247  0.1495  0.5364
   41MOL   C53627016   0.625   1.073   3.274  0.6112  0.2151  0.8608
   41MOL   C53727017   0.716   1.029   3.388 -0.1464  0.1161 -0.4028
   41MOL   C53827018   0.816   1.139   3.420 -0.5914 -0.5308  0.1588
   41MOL   C53927019   0.924   1.117   3.523 -0.3999  0.4665 -0.2030
   41MOL   C54027020   0.863   1.122   3.665  0.3018  0.0576 -0.0209
   41MOL   H54127021   0.045   0.780   2.725  1.6156 -1.8233 -1.3623
   41MOL   H54227022   0.212   0.823   2.670  0.6005  0.3603 -0.1688
   41MOL   H54327023   0.114   0.830   2.958  0.1156  0.7133  0.6206
   41MOL   H54427024   0.271   0.993   2.916  1.2835  0.3746 -0.9188
   41MOL   H54527025   0.388   0.886   2.846  1.5724 -0.0918  1.0254
   41MOL   H54627026   0.419   0.775   3.057 -1.5074 -1.2632  1.2340
   41MOL   H54727027   0.294   0.861   3.136 -0.4937 -1.3913 -0.7715
   41MOL   H54827028   0.423   1.080   3.085 -0.5387 -0.2003 -0.3353
   41MOL   H54927029   0.545   0.981   3.010  1.2700  2.6582  0.7764
   41MOL   H55027030   0.571   0.864   3.250 -1.7300 -0.5368  1.3277
   41MOL   H55127031   0.451   0.964   3.304  0.1708 -3.7823  0.4507
   41MOL   H55227032   0.577   1.167   3.301  0.1446 -0.1029  1.1554
   41MOL   H55327033   0.685   1.094   3.185  2.5668 -2.0813  1.5633
   41MOL   H55427034   0.761   0.932   3.367  2.6838  1.7106 -1.9934
   41MOL   H55527035   0.661   1.002   3.478  1.6371 -0.8899  0.4079
   41MOL   H55627036   0.781   1.242   3.429  1.9943  0.3221  0.8915
   41MOL   H55727037   0.880   1.147   3.332  0.0298  0.5745  0.7114
   41MOL   H55827038   0.995   1.199   3.520  1.8033 -1.4739 -3.9239
   41MOL   H55927039   0.971   1.020   3.508 -0.7163  0.6053 -2.2007
   41MOL   H56027040   0.799   1.210   3.674  2.2721  1.5276  0.1292
   41MOL   H56127041   0.802   1.037   3.693  0.5238 -0.0335  0.1936
   41MOL   H56227042   0.935   1.147   3.743 -1.0297  0.1704  1.2050
   41MOL   C56327043   0.216   0.652   2.880 -0.2406  0.0312 -0.1902
   41MOL   C56427044   0.190   0.578   3.010 -0.7026 -0.0216  0.5909
   41MOL   C56527045   0.267   0.441   3.009  0.2791 -0.0545 -0.0147
   41MOL   C56627046   0.229   0.339   2.895  0.2181 -0.2640 -0.3466
   41MOL   C56727047   0.296   0.205   2.892 -0.1519 -0.1498  0.5435
   41MOL   C56827048   0.255   0.114   2.771  0.1331  0.6138  0.1275
   41MOL   C56927049   0.286   7.669   2.804  0.0327 -0.5460  0.0102
   41MOL   C57027050   0.274   7.576   2.681 -0.2235  0.3403  0.3506
   41MOL   C57127051   0.319   7.434   2.719  0.1921  0.1654  0.3817
   41MOL   C57227052   0.269   7.326   2.619  0.7050  0.1614 -0.6024
   41MOL   C57327053   0.269   7.193   2.696  0.1073  0.0475  0.3477
   41MOL   H57427054   0.319   0.632   2.852 -0.2995 -1.1142  0.3668
   41MOL   H57527055   0.160   0.602   2.801 -2.0312  0.4412  0.8004
   41MOL   H57627056   0.221   0.645   3.090  1.5509 -1.6368  1.1182
   41MOL   H57727057   0.272   0.395   3.107 -2.6714 -1.2818 -0.4052
   41MOL   H57827058   0.369   0.471   2.982  0.8046 -3.0305 -1.5783
   41MOL   H57927059   0.230   0.378   2.793  0.3563 -0.5709 -0.4624
   41MOL   H58027060   0.128   0.314   2.924 -0.3878  2.2457 -0.1857
   41MOL   H58127061   0.288   0.149   2.986 -0.4191 -0.1098  0.5464
   41MOL   H58227062   0.400   0.224   2.867  0.3017 -1.3042  1.4644
   41MOL   H58327063   0.148   0.125   2.750  0.3198  1.8357 -0.2079
   41MOL   H58427064   0.313   0.143   2.684  1.2625  0.0256  0.6784
   41MOL   H58527065   0.383   7.666   2.854 -0.5513  1.8093  1.3460
   41MOL   H58627066   0.221   7.631   2.882 -1.2199 -0.1475 -0.8193
   41MOL   H58727067   0.325   7.615   2.593  1.2855  0.0894  1.1010
   41MOL   H58827068   0.167   7.568   2.661 -0.5189 -0.0032  2.0032
   41MOL   H58927069   0.269   7.407   2.811  0.4759 -1.2168  0.1303
   41MOL   H59027070   0.422   7.422   2.753  1.1232 -1.2009 -2.7420
   41MOL   H59127071   0.333   7.316   2.531 -0.2527  0.7182 -1.3793
   41MOL   H59227072   0.167   7.353   2.590  0.1654 -0.3938  0.7559
   41MOL   H59327073   0.227   7.104   2.649 -1.4176 -0.0378  1.8053
   41MOL   H59427074   0.373   7.167   2.718 -0.3224 -0.9379  1.2654
   41MOL   H59527075   0.206   7.209   2.784 -1.3176  0.4476 -0.7411
   41MOL   C59627076   0.038   0.563   3.024 -0.0165 -0.8358 -0.2174
   41MOL   C59727077   7.700   0.495   3.152 -0.4774 -0.1614  0.1677
   41MOL   C59827078   7.554   0.432   3.149  0.2282 -0.5142 -0.4692
   41MOL   C59927079   7.530   0.311   3.241 -0.0189  0.4367  0.4781
   41MOL   C60027080   7.377   0.290   3.277  0.6361  0.9023  0.6378
   41MOL   C60127081   7.365   0.186   3.382  0.1883 -0.5072 -0.2058
   41MOL   C60227082   7.220   0.174   3.436 -0.0244 -0.1251 -0.1940
   41MOL   C60327083   7.123   0.099   3.347  0.0034  0.1485  0.4346
   41MOL   C60427084   7.156   7.651   3.346  0.4992 -0.3132  0.8966
   41MOL   C60527085   7.063   7.568   3.256 -0.0765 -0.3406 -0.1832
   41MOL   C60627086   7.048   7.617   3.110  0.1505 -0.8268  0.3098
   41MOL   H60727087   7.687   0.658   3.029 -1.3091 -1.4333 -2.4195
   41MOL   H60827088   7.701   0.512   2.937  0.6957 -2.2640  0.2683
   41MOL   H60927089   0.070   0.416   3.165 -2.4232 -1.9430  0.5184
   41MOL   H61027090   7.515   0.416   3.049 -1.4604  0.9659 -0.0791
   41MOL   H61127091   7.484   0.514   3.168  0.5628 -0.7196  1.8447
   41MOL   H61227092   7.582   0.318   3.336  0.4597 -1.4807  0.3783
   41MOL   H61327093   7.566   0.226   3.183  1.4323  2.3183 -1.4621
   41MOL   H61427094   7.320   0.258   3.190 -0.4911  1.8505  1.0167
   41MOL   H61527095   7.337   0.386   3.308  0.2153  1.8887 -2.7607
   41MOL   H61627096   7.404   0.090   3.348 -1.4382 -1.3595  0.2918
   41MOL   H61727097   7.422   0.226   3.466 -1.9404  0.9913  0.5940
   41MOL   H61827098   7.170   0.270   3.453  1.7686  0.4005  2.3977
   41MOL   H61927099   7.229   0.130   3.535  0.5969  0.2770 -0.0692
   41MOL   H62027100   7.136   0.135   3.245  1.0588  2.9675  1.5206
   41MOL   H62127101   7.019   0.111   3.377  0.1107 -1.0759  1.3335
   41MOL   H62227102   7.259   7.631   3.316  0.7420  1.9080  0.1482
   41MOL   H62327103   7.152   7.616   3.449 -1.0279 -0.4592  0.7972
   41MOL   H62427104   6.969   7.553   3.308  0.2842 -0.0164  0.5764
   41MOL   H62527105   7.106   7.468   3.257 -1.3600 -0.9380 -2.0770
   41MOL   H62627106   7.010   0.014   3.090  3.1406  0.6056  1.4871
   41MOL   H62727107   7.151   7.613   3.073  0.8464  0.7056  2.0185
   41MOL   H62827108   6.986   7.557   3.043 -0.2329  0.5023 -0.5584
   41MOL   C62927109   0.023   0.585   3.282 -0.1443 -0.3743  0.2412
   41MOL   C63027110   7.648   0.716   3.309  0.1658  0.2723 -0.4772
   41MOL   C63127111   7.636   0.743   3.457 -0.0018  0.6414  0.6789
   41MOL   C63227112   0.058   0.793   3.518 -0.4076  0.8289 -0.2176
   41MOL   C63327113   0.066   0.814   3.671 -0.3616  0.2606 -0.0052
   41MOL   C63427114   0.203   0.858   3.718  0.2787 -0.3931  0.4763
   41MOL   C63527115   0.216   0.865   3.881  0.3739  0.3587  0.0894
   41MOL   C63627116   0.215   0.722   3.950  0.4809  0.1257 -0.1959
   41MOL   C63727117   0.285   0.716   4.088  0.4226 -0.7920 -0.2887
   41MOL   C63827118   0.238   0.588   4.164  0.2479  0.4590  0.5561
   41MOL   C63927119   0.287   0.616   4.308  1.0945  0.1350  0.5574
   41MOL   H64027120   0.001   0.519   3.366 -0.0859 -1.7124 -0.7761
   41MOL   H64127121   0.132   0.587   3.287 -0.1808  1.2881  0.4885
   41MOL   H64227122   7.696   0.803   3.264  1.1030 -0.5060 -1.0022
   41MOL   H64327123   7.567   0.827   3.461  0.9085  1.3703  1.0375
   41MOL   H64427124   7.579   0.666   3.508  0.2768 -0.4253 -0.5806
   41MOL   H64527125   0.083   0.884   3.463  3.4642 -0.6037 -0.9898
   41MOL   H64627126   0.144   0.734   3.486 -0.2441  0.1270  1.4408
   41MOL   H64727127   0.045   0.717   3.714 -2.7515  1.1059  0.8002
   41MOL   H64827128   7.695   0.885   3.707 -2.3253 -1.2966 -0.8796
   41MOL   H64927129   0.221   0.950   3.663 -2.0488 -1.3332 -1.9920
   41MOL   H65027130   0.272   0.785   3.678 -0.3159 -0.4696 -0.4253
   41MOL   H65127131   0.138   0.934   3.914 -2.3979 -0.4211 -4.3216
   41MOL   H65227132   0.313   0.907   3.907  0.6666 -0.3895  0.2089
   41MOL   H65327133   0.263   0.648   3.886  3.6381 -0.4823  2.7545
   41MOL   H65427134   0.108   0.706   3.965  0.4931  1.9229  2.1858
   41MOL   H65527135   0.259   0.804   4.146  0.8823 -0.2520 -0.9010
   41MOL   H65627136   0.393   0.727   4.075  0.2184 -0.5914 -1.8663
   41MOL   H65727137   0.253   0.490   4.118  0.5249  0.6805  0.1708
   41MOL   H65827138   0.130   0.600   4.164  0.2102  0.1789 -0.9077
   41MOL   H65927139   0.270   0.524   4.364  2.2071 -0.3091  0.1915
   41MOL   H66027140   0.236   0.702   4.351 -1.6863 -1.4177  0.4316
   41MOL   H66127141   0.395   0.632   4.313  1.1369 -0.1290  0.5474
   41MOL   H66227142   7.551   0.706   3.262 -0.7003 -0.0637  1.3556
   42MOL     C127143   1.190   0.663   1.802  0.0862 -0.3960  0.1588
   42MOL     C227144   1.150   0.577   1.684 -0.2565 -0.2512 -0.3403
   42MOL     C327145   1.015   0.620   1.614 -0.6392  0.2004 -0.2969
   42MOL     C427146   0.956   0.511   1.531  1.0865 -0.9670  0.2697
   42MOL     C527147   0.804   0.524   1.493  0.3008 -0.2249  0.1553
   42MOL     C627148   0.779   0.441   1.373 -0.0839  0.5338  0.6042
   42MOL     C727149   0.673   0.335   1.388 -0.6404 -0.0273  0.3071
   42MOL     C827150   0.564   0.343   1.275  0.3953  0.1609 -0.2052
   42MOL     C927151   0.457   0.232   1.284 -0.5890  0.3568  0.2026
   42MOL    C1027152   0.347   0.256   1.179  0.3488 -0.3277 -0.2296
   42MOL    C1127153   0.242   0.136   1.160 -0.3940  0.4220 -0.5289
   42MOL    H1227154   1.190   0.771   1.788  0.8810 -0.3679  0.3319
   42MOL    H1327155   1.295   0.645   1.826  0.3894  2.7683  1.5067
   42MOL    H1427156   1.129   0.482   1.733 -1.3346 -0.0141 -0.3291
   42MOL    H1527157   1.002   0.718   1.569 -0.7155  0.2127 -0.2481
   42MOL    H1627158   0.954   0.640   1.702  1.4010  1.1122  0.9595
   42MOL    H1727159   0.972   0.414   1.579  1.8879  0.5865  3.2685
   42MOL    H1827160   1.015   0.519   1.440  0.0855 -1.2773 -0.4201
   42MOL    H1927161   0.743   0.500   1.579  3.3106  1.1698  2.8072
   42MOL    H2027162   0.769   0.626   1.475 -0.6668 -0.2909  1.6311
   42MOL    H2127163   0.867   0.390   1.333 -0.0809  1.1154 -0.1465
   42MOL    H2227164   0.748   0.519   1.303 -1.5511 -0.3009  0.3009
   42MOL    H2327165   0.723   0.240   1.371 -1.2722 -0.5529  1.2972
   42MOL    H2427166   0.621   0.336   1.484  0.5703 -1.0215  0.9826
   42MOL    H2527167   0.617   0.338   1.180 -0.6261  2.0646 -0.9131
   42MOL    H2627168   0.527   0.446   1.281  1.2009  0.5824 -2.1646
   42MOL    H2727169   0.413   0.231   1.384  0.5961  0.3004  0.7295
   42MOL    H2827170   0.499   0.132   1.271 -4.6025 -1.5107  0.7172
   42MOL    H2927171   0.389   0.263   1.079 -2.1572  1.1968 -1.2215
   42MOL    H3027172   0.295   0.350   1.195  0.9063 -0.2502  1.2422
   42MOL    H3127173   0.185   0.115   1.251  0.8504 -0.9906 -0.0624
   42MOL    H3227174   0.163   0.158   1.087 -0.9231  0.2724 -0.0096
   42MOL    H3327175   0.273   0.034   1.135  1.7276  0.5066  1.5822
   42MOL    H3427176   1.138   0.645   1.895 -0.3837  1.8845  0.3751
   42MOL    C3527177   1.258   0.579   1.574  0.0611 -0.2941  0.1859
   42MOL    C3627178   1.379   0.488   1.599 -0.6482  0.4662 -0.5438
   42MOL    C3727179   1.351   0.344   1.570 -0.1468  0.0887  0.8100
   42MOL    C3827180   1.441   0.248   1.643  0.1802  0.3176  0.2717
   42MOL    C3927181   1.410   0.105   1.609 -0.2384  0.4559 -0.0669
   42MOL    C4027182   1.336   0.033   1.720 -0.3423  0.1702 -0.6469
   42MOL    C4127183   1.268   7.609   1.667 -0.2234 -0.0143  0.3726
   42MOL    C4227184   1.171   7.541   1.764 -0.3043  0.0013  0.8336
   42MOL    C4327185   1.076   7.429   1.703  0.6727  0.3439 -0.2492
   42MOL    C4427186   0.977   7.362   1.798 -0.3907 -0.1148 -0.8104
   42MOL    C4527187   0.871   7.264   1.747  0.3378 -0.0141  0.5553
   42MOL    H4627188   1.292   0.682   1.565 -0.8019 -0.1087 -1.1051
   42MOL    H4727189   1.212   0.547   1.480 -0.9624 -0.1102  0.6280
   42MOL    H4827190   1.417   0.502   1.701 -0.0934  1.8560 -0.9328
   42MOL    H4927191   1.250   0.319   1.601 -0.4188  0.3493  0.1484
   42MOL    H5027192   1.354   0.333   1.461  2.8901  2.7032  0.5627
   42MOL    H5127193   1.440   0.262   1.751  2.2202 -2.1759  0.6758
   42MOL    H5227194   1.545   0.261   1.611  0.2109  0.3988  0.4051
   42MOL    H5327195   1.493   0.044   1.573 -1.4940 -1.0636 -0.5011
   42MOL    H5427196   1.335   0.107   1.530 -1.5618  2.4679  1.2067
   42MOL    H5527197   1.271   0.107   1.766  0.4543  0.1375  0.5822
   42MOL    H5627198   1.401   0.001   1.802 -2.0550  0.9636  1.0589
   42MOL    H5727199   1.201   7.631   1.584 -2.4648 -1.2269  1.8128
   42MOL    H5827200   1.343   7.543   1.623  0.1940 -0.8936  2.3573
   42MOL    H5927201   1.115   7.614   1.823 -0.1460 -0.5104  1.6215
   42MOL    H6027202   1.224   7.495   1.848 -0.3155 -0.5886  0.5196
   42MOL    H6127203   1.139   7.353   1.658  0.1930 -0.7017  0.8031
   42MOL    H6227204   1.032   7.471   1.612  0.1347  3.5127  1.3922
   42MOL    H6327205   1.021   7.325   1.891 -0.0579  0.8664 -0.5660
   42MOL    H6427206   0.914   7.444   1.833 -0.4209  0.5281 -2.3106
   42MOL    H6527207   0.810   7.304   1.666 -0.1283 -0.7001  0.5592
   42MOL    H6627208   0.919   7.178   1.699 -0.7909  0.3164 -1.2075
   42MOL    H6727209   0.805   7.234   1.828  0.7077  2.4443  1.8211
   42MOL    C6827210   1.511   0.541   1.524  0.3818  0.0206  0.4777
   42MOL    C6927211   1.507   0.580   1.378 -0.8893 -0.3295  0.7150
   42MOL    C7027212   1.601   0.710   1.356  0.3023  0.1162 -0.7776
   42MOL    C7127213   1.556   0.845   1.410 -0.6361  0.0942  0.0651
   42MOL    C7227214   1.562   0.968   1.311 -0.0814  0.1945  0.2114
   42MOL    C7327215   1.515   1.094   1.380 -0.0286 -0.1590 -0.2105
   42MOL    C7427216   1.537   1.212   1.285  0.1679 -0.5071  0.1937
   42MOL    C7527217   1.498   1.349   1.342  0.3054 -0.0119  0.5209
   42MOL    C7627218   1.554   1.473   1.269 -0.4321  0.2975  0.7932
   42MOL    C7727219   1.531   1.614   1.336 -0.0115  0.3366 -0.0735
   42MOL    C7827220   1.398   1.674   1.290 -0.2565 -0.0103  0.4852
   42MOL    H7927221   1.590   0.467   1.539  0.3023 -0.1449  0.0856
   42MOL    H8027222   1.542   0.624   1.588  1.0148  0.2262 -0.0916
   42MOL    H8127223   1.404   0.605   1.356 -0.3365  0.3798 -1.1702
   42MOL    H8227224   1.596   0.718   1.248 -0.8967  0.6216 -0.6942
   42MOL    H8327225   1.706   0.687   1.375  0.0484 -0.0707  0.4480
   42MOL    H8427226   1.469   0.821   1.472  0.6318  0.5859  2.0745
   42MOL    H8527227   1.620   0.867   1.495  0.2011 -1.9930  0.0058
   42MOL    H8627228   1.495   0.944   1.228  0.3390 -1.3229  0.3029
   42MOL    H8727229   1.662   0.983   1.272 -1.2214 -1.3726 -3.4959
   42MOL    H8827230   1.414   1.093   1.420  0.1668 -1.0449  0.2787
   42MOL    H8927231   1.581   1.110   1.465  0.4769  1.8860 -0.9546
   42MOL    H9027232   1.487   1.194   1.190 -0.6139 -0.6058  0.6254
   42MOL    H9127233   1.643   1.214   1.259  0.0454 -1.4471 -0.4182
   42MOL    H9227234   1.391   1.360   1.358  0.4724  1.2826  0.8086
   42MOL    H9327235   1.537   1.356   1.444 -1.2338 -0.8902  1.1881
   42MOL    H9427236   1.662   1.463   1.276 -0.2211  2.5911  1.0775
   42MOL    H9527237   1.539   1.480   1.161  2.2282 -1.4126  0.2699
   42MOL    H9627238   1.531   1.605   1.445  0.9218 -2.1880 -0.2303
   42MOL    H9727239   1.608   1.685   1.307 -1.8273  1.2478 -2.8756
   42MOL    H9827240   1.389   1.775   1.331  1.1809 -0.0444  0.9273
   42MOL    H9927241   1.324   1.610   1.337 -0.9578  0.6353  0.2712
   42MOL   H10027242   1.376   1.660   1.184 -0.4492  0.8490  0.4078
   42MOL   C10127243   1.537   0.473   1.272 -0.3905 -0.0931  0.6579
   42MOL   C10227244   1.466   0.485   1.135 -0.2082  0.4290 -0.4642
   42MOL   C10327245   1.335   0.406   1.144 -0.3950  0.3474 -0.0275
   42MOL   C10427246   1.243   0.418   1.013  0.8867  0.3899 -0.3405
   42MOL   C10527247   1.113   0.345   1.034 -0.1636  0.2123  0.0202
   42MOL   C10627248   1.007   0.346   0.924 -0.4368  0.4875 -0.0583
   42MOL   C10727249   0.870   0.297   0.971  0.0795 -0.7298  0.1530
   42MOL   C10827250   0.770   0.286   0.854 -0.3558 -0.0543  0.0422
   42MOL   C10927251   0.634   0.255   0.901 -0.4819  0.0950 -0.1547
   42MOL   C11027252   0.541   0.250   0.780 -0.0253 -0.6024  0.9392
   42MOL   C11127253   0.392   0.233   0.806  1.0170  0.3308 -0.2767
   42MOL   H11227254   1.645   0.461   1.266 -0.4256  0.1969 -0.7179
   42MOL   H11327255   1.515   0.379   1.322 -0.3544 -0.2263  0.4243
   42MOL   H11427256   1.437   0.590   1.132 -0.0135  0.4850 -0.3912
   42MOL   H11527257   1.370   0.303   1.153 -0.6834  0.4533  2.6346
   42MOL   H11627258   1.269   0.426   1.229 -0.9784  2.1056 -0.8764
   42MOL   H11727259   1.219   0.523   0.992 -0.8669  0.3731  1.4034
   42MOL   H11827260   1.302   0.372   0.934  2.0943 -0.5699  1.0938
   42MOL   H11927261   1.120   0.241   1.069 -0.2049 -0.0523 -0.7479
   42MOL   H12027262   1.063   0.384   1.122  0.5001  1.2197 -0.0422
   42MOL   H12127263   0.995   0.439   0.868 -0.6668 -1.2706 -3.0392
   42MOL   H12227264   1.032   0.271   0.849 -1.0589  0.7945 -0.5871
   42MOL   H12327265   0.831   0.356   1.055  0.9923  0.4367 -0.2297
   42MOL   H12427266   0.884   0.203   1.023 -1.0847 -2.0016 -1.7818
   42MOL   H12527267   0.772   0.380   0.798 -1.4203  0.1972  0.4254
   42MOL   H12627268   0.811   0.207   0.790  0.4134 -3.5298  4.6146
   42MOL   H12727269   0.624   0.156   0.946 -0.7915 -0.9584 -2.4650
   42MOL   H12827270   0.601   0.324   0.979 -0.6629 -2.7014  2.3389
   42MOL   H12927271   0.576   0.180   0.704 -2.7473 -1.0627  0.0849
   42MOL   H13027272   0.555   0.344   0.726  3.0301 -0.4460  1.9157
   42MOL   H13127273   0.377   0.135   0.850 -1.4073  0.3080 -1.0626
   42MOL   H13227274   0.345   0.309   0.869 -1.5964 -0.5084 -1.1468
   42MOL   H13327275   0.333   0.217   0.716 -0.4432 -2.2810  1.0950
   42MOL   C13427276   1.570   0.462   1.020  0.0299 -0.4159  0.6935
   42MOL   C13527277   1.664   0.579   0.977  0.7374  0.1413  0.4395
   42MOL   C13627278   1.584   0.688   0.890  0.3805 -0.1075  0.2403
   42MOL   C13727279   1.647   0.825   0.886 -0.2095  0.0319  0.1752
   42MOL   C13827280   1.559   0.941   0.829 -0.0677 -0.1272  0.3226
   42MOL   C13927281   1.624   1.083   0.860 -0.4181  0.2354 -0.1322
   42MOL   C14027282   1.530   1.206   0.836  0.5865  0.0080 -0.1124
   42MOL   C14127283   1.613   1.331   0.851  0.4531 -0.2361 -0.1950
   42MOL   C14227284   1.535   1.457   0.814 -0.1293  0.4920  0.0590
   42MOL   C14327285   1.595   1.590   0.869 -0.4564  0.5884 -0.0949
   42MOL   C14427286   1.530   1.728   0.849 -0.6549 -0.1670 -0.5569
   42MOL   H14527287   1.631   0.373   1.032  1.6669  0.5584 -0.1479
   42MOL   H14627288   1.508   0.441   0.932  1.5892 -0.4425 -0.4134
   42MOL   H14727289   1.696   0.625   1.071  0.6872  2.5274 -0.6773
   42MOL   H14827290   1.488   0.709   0.937 -0.8690  0.1613 -2.3802
   42MOL   H14927291   1.569   0.654   0.788 -1.7993 -1.9489  1.1162
   42MOL   H15027292   1.659   0.854   0.990 -2.7131  0.8818  0.2761
   42MOL   H15127293   1.746   0.829   0.841 -0.4986 -0.0435 -0.4700
   42MOL   H15227294   1.547   0.927   0.722  1.6209 -1.0300  0.2419
   42MOL   H15327295   1.456   0.946   0.864  0.3633 -0.0853  1.6084
   42MOL   H15427296   1.654   1.079   0.965 -1.8882  0.1260  0.2891
   42MOL   H15527297   1.715   1.098   0.803 -0.6009  2.3054  0.0830
   42MOL   H15627298   1.488   1.196   0.736  0.4635 -0.7753  0.0133
   42MOL   H15727299   1.446   1.213   0.906  0.5012 -0.8941 -0.1143
   42MOL   H15827300   1.647   1.347   0.954 -0.1703 -1.4936  0.2062
   42MOL   H15927301   1.705   1.331   0.792 -1.3304 -0.3782 -3.0571
   42MOL   H16027302   1.516   1.461   0.707 -0.8096  1.3208  0.2030
   42MOL   H16127303   1.433   1.455   0.854  0.1327 -0.0543  0.7141
   42MOL   H16227304   1.630   1.585   0.972  1.5338 -2.1908 -0.8491
   42MOL   H16327305   1.691   1.595   0.818  0.5717 -3.3529  1.2734
   42MOL   H16427306   1.579   1.802   0.912  1.6697 -2.4193  0.3234
   42MOL   H16527307   1.425   1.713   0.875 -0.4331  1.5001  1.3839
   42MOL   H16627308   1.544   1.763   0.747 -0.6781  0.1768 -0.4423
   42MOL   C16727309   1.792   0.537   0.894 -0.4117 -0.4324  0.1845
   42MOL   C16827310   1.894   0.447   0.970 -0.5929 -0.3391  0.4683
   42MOL   C16927311   1.932   0.504   1.111  0.5512 -0.4021 -0.0735
   42MOL   C17027312   2.005   0.645   1.114 -0.0514  0.0109 -0.3400
   42MOL   C17127313   2.064   0.658   1.261  0.1521  0.2944  0.3030
   42MOL   C17227314   2.131   0.800   1.292  0.2310 -0.9149  0.2256
   42MOL   C17327315   2.041   0.919   1.268  0.0731  0.0882  0.1618
   42MOL   C17427316   2.092   1.052   1.328 -1.0040 -0.3787 -0.6095
   42MOL   C17527317   1.999   1.170   1.295  0.3246  0.7824 -0.3207
   42MOL   C17627318   2.041   1.302   1.365 -0.5147 -0.2928  0.3080
   42MOL   C17727319   1.982   1.438   1.321 -0.1716  0.5556  0.1980
   42MOL   H17827320   1.766   0.483   0.803  2.8632  0.7075 -1.5412
   42MOL   H17927321   1.850   0.624   0.862 -1.0107 -0.4784 -1.0479
   42MOL   H18027322   1.852   0.347   0.986 -1.6378  0.0111  0.0135
   42MOL   H18127323   1.986   0.432   1.172  1.0155  0.3915  0.4712
   42MOL   H18227324   1.838   0.503   1.165 -0.3706  1.0107 -1.5891
   42MOL   H18327325   2.081   0.651   1.036 -0.0953  1.9027 -0.2586
   42MOL   H18427326   1.942   0.730   1.088 -1.9679 -1.4114 -0.4300
   42MOL   H18527327   2.137   0.585   1.296  0.0136 -1.3506 -2.7256
   42MOL   H18627328   1.980   0.656   1.329  0.5403  2.7760  0.9106
   42MOL   H18727329   2.148   0.797   1.399  1.4649 -1.3358  0.0281
   42MOL   H18827330   2.228   0.812   1.243 -0.3387 -0.9618 -0.9460
   42MOL   H18927331   1.941   0.885   1.297  0.8059 -1.9708  0.3674
   42MOL   H19027332   2.030   0.937   1.161  0.3527 -2.3802 -0.3069
   42MOL   H19127333   2.106   1.037   1.435 -1.6989 -2.1585 -0.7566
   42MOL   H19227334   2.195   1.074   1.299 -0.3577  0.8414  2.4162
   42MOL   H19327335   1.902   1.148   1.339  0.2486 -0.4064 -1.0530
   42MOL   H19427336   1.986   1.183   1.187 -0.8198 -0.8008 -0.3996
   42MOL   H19527337   2.147   1.307   1.343  0.1081 -0.4901  3.0148
   42MOL   H19627338   2.017   1.283   1.470 -0.6474  1.0883  0.5343
   42MOL   H19727339   1.974   1.449   1.213 -1.6606  0.9861  0.3476
   42MOL   H19827340   2.039   1.526   1.352 -1.5262  2.6182 -2.9244
   42MOL   H19927341   1.878   1.449   1.351 -0.3455 -2.3879  0.7848
   42MOL   C20027342   2.017   0.414   0.883  1.1053 -0.0990 -0.3587
   42MOL   C20127343   1.994   0.309   0.763  0.8897 -0.0501 -0.3095
   42MOL   C20227344   1.980   0.162   0.817  0.0255  0.4718 -0.2138
   42MOL   C20327345   2.088   0.112   0.913 -0.3983  0.4457 -0.4037
   42MOL   C20427346   2.079   7.658   0.939 -0.3509 -0.1324  0.7858
   42MOL   C20527347   1.956   7.618   1.022  0.7910 -0.4022 -0.4139
   42MOL   C20627348   1.965   7.467   1.064  0.2855 -0.0754  0.1673
   42MOL   C20727349   1.878   7.421   1.187 -0.0972  0.2157  0.3085
   42MOL   C20827350   1.916   7.275   1.225 -0.2857 -0.7389 -0.1939
   42MOL   C20927351   1.821   7.235   1.331  0.0779 -0.0717 -0.3213
   42MOL   C21027352   1.873   7.106   1.395  1.2357  0.2463  0.5613
   42MOL   H21127353   2.065   0.503   0.841 -1.3642  2.3874  1.8695
   42MOL   H21227354   2.088   0.374   0.955  1.3146  0.8051 -0.0534
   42MOL   H21327355   1.899   0.340   0.719  1.4554  1.0475 -0.7619
   42MOL   H21427356   1.961   0.088   0.739 -1.1962  1.2185 -0.6498
   42MOL   H21527357   1.887   0.155   0.873  0.2647 -0.2664  0.0928
   42MOL   H21627358   2.094   0.163   1.009  0.6196 -1.4505  0.5734
   42MOL   H21727359   2.185   0.131   0.866 -0.8164  1.8312 -0.7211
   42MOL   H21827360   2.173   7.624   0.983 -0.3687 -0.6271  0.4375
   42MOL   H21927361   2.081   7.614   0.839  0.8836  0.6854  0.4334
   42MOL   H22027362   1.936   7.675   1.113 -1.2935  0.1185 -1.1843
   42MOL   H22127363   1.864   7.633   0.966 -1.2406  0.4418  3.0030
   42MOL   H22227364   2.066   7.432   1.084  0.3716  0.1083  0.0597
   42MOL   H22327365   1.939   7.421   0.969 -0.0080  0.3179  0.0528
   42MOL   H22427366   1.771   7.423   1.167 -0.2754  0.1514  1.2103
   42MOL   H22527367   1.899   7.489   1.270  0.3624 -1.1149  1.3079
   42MOL   H22627368   2.019   7.267   1.260 -0.4506  0.4361  0.5670
   42MOL   H22727369   1.922   7.215   1.134  2.4835  0.7647 -1.0738
   42MOL   H22827370   1.810   7.308   1.411 -2.8919 -1.0364  0.2135
   42MOL   H22927371   1.720   7.222   1.293 -0.6780  1.4848  1.0945
   42MOL   H23027372   1.802   7.072   1.470  0.8139 -0.0848  0.0162
   42MOL   H23127373   1.970   7.121   1.444  0.1648  1.8969  2.2258
   42MOL   H23227374   1.891   7.030   1.319  2.7986  0.3144  0.8276
   42MOL   C23327375   2.094   0.335   0.642  0.1960  0.2251  0.4992
   42MOL   C23427376   2.067   0.246   0.514 -0.0544 -0.6184 -0.0856
   42MOL   C23527377   2.199   0.231   0.437  0.1036 -0.2415  0.8234
   42MOL   C23627378   2.291   0.131   0.501 -0.5364 -0.2090 -0.0212
   42MOL   C23727379   2.420   0.103   0.419 -0.0134 -0.4296  0.3236
   42MOL   C23827380   2.533   0.034   0.499 -0.0807  0.2781  0.1571
   42MOL   C23927381   2.660   0.020   0.429  0.0157  0.0789 -0.1036
   42MOL   C24027382   2.763   7.648   0.508 -0.0476  0.0446 -0.0699
   42MOL   C24127383   2.908   7.667   0.455  0.4960  0.2702 -0.4399
   42MOL   C24227384   3.018   7.609   0.538  1.1775  0.0695  0.1448
   42MOL   C24327385   3.152   7.667   0.498  0.4409  0.1410  0.2029
   42MOL   H24427386   2.193   0.317   0.682  0.3959  0.6267  0.1977
   42MOL   H24527387   2.102   0.440   0.613 -1.8679  0.4536  0.6896
   42MOL   H24627388   2.041   0.144   0.544  0.3365 -0.4409  0.8707
   42MOL   H24727389   2.189   0.217   0.330  1.3367  2.3396  0.3186
   42MOL   H24827390   2.235   0.334   0.440 -1.5543  0.3384  1.7122
   42MOL   H24927391   2.239   0.037   0.521 -1.1327 -0.0978 -1.0284
   42MOL   H25027392   2.333   0.178   0.590 -1.8443 -0.2329  0.6151
   42MOL   H25127393   2.464   0.198   0.388 -0.7601  0.3322  1.5884
   42MOL   H25227394   2.398   0.046   0.329  0.2109 -1.3002  0.8169
   42MOL   H25327395   2.499   7.640   0.533  0.4995  0.2770  0.7364
   42MOL   H25427396   2.560   0.095   0.585 -1.3593  2.4491 -0.9359
   42MOL   H25527397   2.645   7.663   0.339  1.5077 -0.2678 -0.1352
   42MOL   H25627398   2.708   0.114   0.403  0.6954 -0.2551 -0.0802
   42MOL   H25727399   2.763   7.674   0.613  2.0951 -1.1890  0.2589
   42MOL   H25827400   2.738   7.542   0.508  0.6568 -0.1276 -0.4949
   42MOL   H25927401   2.923   7.650   0.349 -2.5253  0.1655 -0.9148
   42MOL   H26027402   2.918   0.072   0.458  2.9038  0.0560 -0.3890
   42MOL   H26127403   3.021   7.500   0.539 -1.0680 -0.0709 -2.2172
   42MOL   H26227404   3.008   7.652   0.638 -2.8373  0.0091 -0.1586
   42MOL   H26327405   3.162   0.072   0.492  1.4910  0.0499  0.2780
   42MOL   H26427406   3.180   7.634   0.398  0.6013  1.4046 -0.1835
   42MOL   H26527407   3.231   7.639   0.567  0.0345  3.0442  1.9427
   42MOL   C26627408   1.961   0.326   0.434 -0.3128 -0.0614 -0.7908
   42MOL   C26727409   1.896   0.243   0.317 -0.8432 -0.3124 -0.2432
   42MOL   C26827410   1.820   0.333   0.222 -0.4013  0.6390  0.3832
   42MOL   C26927411   1.919   0.412   0.144 -0.3650  0.0250  0.5295
   42MOL   C27027412   1.862   0.482   0.020  0.1579 -0.3544 -0.5851
   42MOL   C27127413   1.966   0.536   7.633  0.3640 -0.2224  0.1082
   42MOL   C27227414   1.929   0.610   7.500  0.2032 -0.5830  0.5360
   42MOL   C27327415   1.880   0.519   7.389 -0.1135  0.4456 -0.1397
   42MOL   C27427416   1.824   0.600   7.266 -0.3554 -0.2299  0.4766
   42MOL   C27527417   1.911   0.686   7.177 -0.1554  0.2377 -0.0476
   42MOL   C27627418   1.871   0.698   7.023  0.0925 -0.5275  0.1115
   42MOL   H27727419   2.000   0.425   0.408  0.5292 -0.4403 -0.9795
   42MOL   H27827420   1.876   0.344   0.500 -0.0377 -1.4898 -0.0453
   42MOL   H27927421   1.979   0.188   0.273 -0.2065  0.6548 -0.2846
   42MOL   H28027422   1.759   0.267   0.161 -0.7979  0.7020  0.7127
   42MOL   H28127423   1.752   0.401   0.273  0.1654  1.8825 -0.4941
   42MOL   H28227424   1.993   0.346   0.100 -0.2240 -0.1957  1.0951
   42MOL   H28327425   1.974   0.490   0.197  2.9400 -0.9897 -1.3074
   42MOL   H28427426   1.795   0.565   0.041  0.1615 -0.4241 -0.3058
   42MOL   H28527427   1.799   0.409   7.672  1.7462 -2.5988  0.5603
   42MOL   H28627428   2.037   0.458   7.605 -1.5780 -1.4719 -1.4808
   42MOL   H28727429   2.031   0.598   7.695 -1.1326  1.0730  0.4176
   42MOL   H28827430   1.847   0.676   7.528 -1.5762 -3.3148  2.0726
   42MOL   H28927431   2.002   0.681   7.462 -0.3874  1.2023  2.6486
   42MOL   H29027432   1.800   0.458   7.430  0.0543 -0.7170 -1.4956
   42MOL   H29127433   1.965   0.455   7.363  1.4674  2.0677  0.8927
   42MOL   H29227434   1.767   0.527   7.208 -0.2510  0.7402 -0.8576
   42MOL   H29327435   1.751   0.666   7.312 -0.5157 -0.5759  0.7203
   42MOL   H29427436   2.003   0.629   7.174 -0.0601  0.4725 -4.1943
   42MOL   H29527437   1.937   0.778   7.229  2.7684 -0.4356 -0.2740
   42MOL   H29627438   1.942   0.744   6.954  0.6510 -1.4915  0.0283
   42MOL   H29727439   1.782   0.760   7.016  0.1813 -0.2994  0.8926
   42MOL   H29827440   1.851   0.600   6.980 -0.3215  0.1461 -1.2597
   42MOL   C29927441   1.809   0.129   0.363  1.1945 -0.4782  0.4250
   42MOL   C30027442   1.786   0.002   0.273  1.0171 -0.8754  0.1094
   42MOL   C30127443   1.671   7.620   0.327 -0.6417  0.0969  0.4566
   42MOL   C30227444   1.624   7.504   0.233  0.4325 -0.3806 -0.0401
   42MOL   C30327445   1.539   7.555   0.106  0.3817 -0.0744 -0.6467
   42MOL   C30427446   1.415   7.647   0.149 -0.4075 -0.3099 -0.5287
   42MOL   C30527447   1.456   0.092   0.140 -0.2419 -0.4446  0.0609
   42MOL   C30627448   1.325   0.177   0.172 -0.7162  0.4683  0.3492
   42MOL   C30727449   1.359   0.321   0.221  1.1619  0.6134 -0.3125
   42MOL   C30827450   1.436   0.407   0.118  0.3802  0.1067 -0.5165
   42MOL   C30927451   1.446   0.558   0.141 -0.0821 -0.0322 -0.2521
   42MOL   H31027452   1.710   0.169   0.383 -0.4384 -2.7480 -2.8274
   42MOL   H31127453   1.845   0.104   0.463 -0.6509 -0.2400  1.1684
   42MOL   H31227454   1.756   0.030   0.172 -0.6901 -3.5589 -0.1851
   42MOL   H31327455   1.695   7.571   0.421 -0.4869 -1.3766 -0.3323
   42MOL   H31427456   1.585   7.680   0.356 -1.2277 -1.2464  1.5695
   42MOL   H31527457   1.708   7.449   0.193  1.3586  0.2400  1.0168
   42MOL   H31627458   1.569   7.433   0.295 -0.5407 -1.1395 -1.7378
   42MOL   H31727459   1.590   7.613   0.028  0.9589 -0.2689 -0.4176
   42MOL   H31827460   1.496   7.466   0.059 -0.0166 -1.2099  1.8209
   42MOL   H31927461   1.382   7.623   0.251 -0.2919 -0.4193 -0.5169
   42MOL   H32027462   1.335   7.629   0.077  1.2321  0.7981 -2.6866
   42MOL   H32127463   1.534   0.122   0.209  1.3390 -0.0982 -1.8295
   42MOL   H32227464   1.481   0.113   0.036 -2.5060  2.2715  0.0077
   42MOL   H32327465   1.279   0.138   0.263  0.7999 -0.1479  0.8727
   42MOL   H32427466   1.258   0.174   0.087  1.0832  0.2220 -1.0798
   42MOL   H32527467   1.413   0.331   0.315  0.0827  2.2343  0.1713
   42MOL   H32627468   1.267   0.379   0.229  1.5919  1.3788 -0.7696
   42MOL   H32727469   1.390   0.385   0.022 -0.8498  2.8451 -0.6077
   42MOL   H32827470   1.539   0.372   0.107  0.7408  0.6694  1.0097
   42MOL   H32927471   1.528   0.617   0.100 -0.3927  1.8602  1.7483
   42MOL   H33027472   1.359   0.614   0.108  0.5360  2.0816  1.5924
   42MOL   H33127473   1.452   0.580   0.247  0.4801  0.3543 -0.3613
   42MOL   C33227474   1.919   7.619   0.260  0.0863  0.1435  0.8546
   42MOL   C33327475   1.964   7.591   0.112  0.6135  0.3430  0.5832
   42MOL   C33427476   2.050   7.461   0.102 -0.6333  0.6032  0.6605
   42MOL   C33527477   2.180   7.458   0.196 -0.3540  0.3039 -0.2987
   42MOL   C33627478   2.307   7.424   0.113  0.5231 -0.3549 -0.6874
   42MOL   C33727479   2.439   7.457   0.175 -0.2281 -0.5168 -0.5274
   42MOL   C33827480   2.502   7.331   0.238 -0.0153  0.2491 -0.1002
   42MOL   C33927481   2.629   7.353   0.318 -0.2124 -0.4171  0.2448
   42MOL   C34027482   2.688   7.230   0.383 -0.8922 -0.2975 -0.5265
   42MOL   C34127483   2.810   7.252   0.479  0.6266 -0.1585 -0.3598
   42MOL   C34227484   2.947   7.261   0.410 -0.3320  0.2609 -0.6807
   42MOL   H34327485   2.005   7.670   0.305  1.2063  0.2777 -1.3773
   42MOL   H34427486   1.909   7.522   0.310  0.7034 -2.8011 -4.3667
   42MOL   H34527487   1.876   7.546   0.067  0.6030  1.8137 -0.9195
   42MOL   H34627488   2.077   7.437   7.702 -1.0970  2.6376  0.0516
   42MOL   H34727489   1.983   7.379   0.128 -0.5026 -0.2703 -1.5503
   42MOL   H34827490   2.189   7.560   0.233 -3.0726  0.3936  0.1789
   42MOL   H34927491   2.163   7.392   0.280 -1.1041  1.0295  0.1289
   42MOL   H35027492   2.291   7.324   0.072  1.5938 -1.5643  1.7458
   42MOL   H35127493   2.300   7.487   0.024 -0.0918  0.8512  0.1996
   42MOL   H35227494   2.444   7.542   0.244 -0.1324  1.3915 -2.8195
   42MOL   H35327495   2.510   7.484   0.097  0.0271  1.4561  0.3519
   42MOL   H35427496   2.516   7.248   0.168  0.7916  0.2140  0.0976
   42MOL   H35527497   2.437   7.286   0.314  1.7297 -0.1384  1.1779
   42MOL   H35627498   2.706   7.404   0.260 -2.7093  1.9305 -1.1506
   42MOL   H35727499   2.606   7.423   0.399  1.6979 -2.4179  2.5905
   42MOL   H35827500   2.714   7.159   0.305  0.2778  1.3291 -1.6279
   42MOL   H35927501   2.601   7.188   0.434 -0.6228  0.1019  0.2702
   42MOL   H36027502   2.809   7.164   0.543  1.9272 -1.0475 -1.5237
   42MOL   H36127503   2.793   7.338   0.544 -1.1926  0.3424 -1.4642
   42MOL   H36227504   3.025   7.263   0.486  0.4307 -0.7161 -1.4353
   42MOL   H36327505   2.961   7.171   0.351  1.9933 -0.0819  0.3447
   42MOL   H36427506   2.956   7.351   0.349 -1.2903  0.9528  0.1768
   42MOL   C36527507   2.017   0.017   0.045 -0.6860 -0.6647 -1.4098
   42MOL   C36627508   2.017   0.022   7.595 -0.1743 -0.0132 -0.2399
   42MOL   C36727509   1.871   0.042   7.537 -0.1520  0.3675 -0.1977
   42MOL   C36827510   1.850   0.007   7.387 -0.0466 -0.6355  0.0301
   42MOL   C36927511   1.766   0.120   7.309 -0.4790 -0.3793  0.5183
   42MOL   C37027512   1.614   0.122   7.350  0.1038  0.0483 -0.0936
   42MOL   C37127513   1.548   0.246   7.297 -0.1075 -0.0835  0.6694
   42MOL   C37227514   1.507   0.346   7.401 -0.3871  0.2402 -0.3170
   42MOL   C37327515   1.444   0.460   7.329 -0.6627  0.5781  0.2584
   42MOL   C37427516   1.410   0.560   7.440  1.1176  0.2417  0.6807
   42MOL   C37527517   1.526   0.627   7.508  0.1706  0.1986  0.0748
   42MOL   H37627518   1.969   0.104   0.089 -0.5844 -0.8640 -0.8947
   42MOL   H37727519   2.118   0.023   0.085 -0.7467 -0.3503 -1.3050
   42MOL   H37827520   2.045   7.627   7.557  0.8453  0.3163 -0.3572
   42MOL   H37927521   1.842   0.146   7.545  1.8534  1.0631 -1.4921
   42MOL   H38027522   1.813   7.681   7.603  0.8411 -1.4343 -1.0253
   42MOL   H38127523   1.801   7.612   7.387 -0.2278 -0.5627 -1.6275
   42MOL   H38227524   1.939   7.692   7.327  1.4522  1.4744  1.5689
   42MOL   H38327525   1.780   0.101   7.202  0.9505 -1.2501  0.8458
   42MOL   H38427526   1.817   0.215   7.325  0.4931 -1.0158  1.2480
   42MOL   H38527527   1.608   0.116   7.459  1.6191 -0.7622 -0.0413
   42MOL   H38627528   1.567   0.028   7.320  1.2083 -0.2853 -0.8357
   42MOL   H38727529   1.608   0.290   7.218  0.7027  1.6237  2.1891
   42MOL   H38827530   1.462   0.221   7.236  0.7430  2.4765 -1.6730
   42MOL   H38927531   1.592   0.367   7.467 -1.2191 -0.9382  1.1741
   42MOL   H39027532   1.441   0.296   7.472 -1.6540 -0.3751 -1.9101
   42MOL   H39127533   1.511   0.520   7.267  0.7456 -0.9246  0.3014
   42MOL   H39227534   1.358   0.423   7.273 -0.8318  0.1488  0.7995
   42MOL   H39327535   1.350   0.638   7.393 -0.4101 -0.4897  1.3608
   42MOL   H39427536   1.333   0.527   7.510 -1.3364  1.8691 -1.1532
   42MOL   H39527537   1.472   0.705   7.563  1.2503  0.8981  0.1481
   42MOL   H39627538   1.589   0.679   7.436  0.5740  0.1216  0.3762
   42MOL   H39727539   1.588   0.566   7.573  0.4513  0.4681  0.0622
   42MOL   C39827540   2.106   0.130   7.529 -0.3250  0.2431 -0.2506
   42MOL   C39927541   2.259   0.094   7.529  0.6918  0.0895 -0.5502
   42MOL   C40027542   2.344   0.200   7.617 -0.0504 -0.1441 -0.0055
   42MOL   C40127543   2.480   0.144   7.663  0.8346 -0.1852  0.3900
   42MOL   C40227544   2.584   0.241   0.012  0.7607  0.1522 -0.4815
   42MOL   C40327545   2.720   0.171   0.031  0.3824  1.3940 -0.5005
   42MOL   C40427546   2.824   0.264   0.091  0.1630  0.5088 -0.0251
   42MOL   C40527547   2.951   0.181   0.109  0.3868 -0.1068 -0.3798
   42MOL   C40627548   3.061   0.264   0.160 -0.2639  0.6779 -0.6035
   42MOL   C40727549   3.199   0.192   0.162  0.2872 -0.0414 -0.2101
   42MOL   C40827550   3.315   0.266   0.225 -0.5968 -0.9573 -1.0820
   42MOL   H40927551   2.075   0.214   7.591 -1.0576 -0.1822 -0.0303
   42MOL   H41027552   2.077   0.140   7.425 -1.3808  0.3948  0.0544
   42MOL   H41127553   2.273   7.703   7.582 -0.7543  0.2874  0.1839
   42MOL   H41227554   2.287   0.237   7.703  2.0384  0.1890  1.2766
   42MOL   H41327555   2.354   0.292   7.559 -1.1171  1.6016  2.4716
   42MOL   H41427556   2.453   0.066   0.031  0.2186  0.0313  0.3977
   42MOL   H41527557   2.531   0.097   7.579 -0.4151 -0.5445 -0.1932
   42MOL   H41627558   2.590   0.322   7.643  1.5688 -1.3688 -2.1466
   42MOL   H41727559   2.553   0.285   0.106  3.2001  3.4969 -1.1675
   42MOL   H41827560   2.763   0.130   7.643  2.0652  1.6565  0.1470
   42MOL   H41927561   2.708   0.090   0.103  0.1317  1.6381 -0.2665
   42MOL   H42027562   2.842   0.355   0.034 -1.5440  0.1935 -1.0754
   42MOL   H42127563   2.806   0.299   0.192  0.3668 -0.0289  0.1982
   42MOL   H42227564   2.982   0.143   0.011  1.1541  1.2664 -0.6831
   42MOL   H42327565   2.929   0.093   0.170 -0.0643  0.0274 -0.3465
   42MOL   H42427566   3.070   0.359   0.107 -0.5268 -0.1403 -2.1394
   42MOL   H42527567   3.021   0.299   0.255 -1.4839  0.0435 -0.8677
   42MOL   H42627568   3.232   0.182   0.058  3.3887  0.4746  0.6894
   42MOL   H42727569   3.206   0.095   0.211  0.6956  1.9345  3.7951
   42MOL   H42827570   3.346   0.361   0.183 -2.3261  0.2365  0.3071
   42MOL   H42927571   3.404   0.206   0.204  2.8680  2.8625  1.7984
   42MOL   H43027572   3.317   0.262   0.334 -1.3199 -2.0314 -1.0942
   42MOL   C43127573   2.322   0.080   7.387  0.1641  0.5131 -0.2298
   42MOL   C43227574   2.263   7.655   7.314  0.0408  0.1938 -0.3193
   42MOL   C43327575   2.316   7.513   7.363  0.0941 -0.0556  0.3734
   42MOL   C43427576   2.466   7.485   7.369  0.0424  0.6008 -0.2770
   42MOL   C43527577   2.500   7.351   7.436  0.1559  0.0730 -0.4730
   42MOL   C43627578   2.655   7.333   7.451  0.4230  0.0906  0.4911
   42MOL   C43727579   2.690   7.233   7.559 -0.2130  0.4222 -0.4115
   42MOL   C43827580   2.837   7.243   7.601  0.2092  0.0029 -0.6162
   42MOL   C43927581   2.889   7.130   7.694  0.0182 -0.4740  0.7275
   42MOL   C44027582   3.027   7.160   0.046 -0.0382 -1.0453  0.1454
   42MOL   C44127583   3.105   7.043   0.107 -0.1232  0.0415 -0.3746
   42MOL   H44227584   2.430   0.078   7.397  0.0063 -1.0684  1.3480
   42MOL   H44327585   2.302   0.168   7.326 -2.9669  1.5089  2.1016
   42MOL   H44427586   2.155   7.646   7.324 -0.0285  1.0290 -0.3466
   42MOL   H44527587   2.285   7.509   7.467  1.0808  2.2777  0.7808
   42MOL   H44627588   2.258   7.432   7.319  1.4383 -1.5453  1.2706
   42MOL   H44727589   2.518   7.564   7.424 -1.9452  1.6310  0.1913
   42MOL   H44827590   2.511   7.478   7.271  1.3739  2.0791  0.1993
   42MOL   H44927591   2.450   7.273   7.379 -2.0204  0.6521  0.5849
   42MOL   H45027592   2.446   7.347   7.530  1.3931  1.2981  0.3100
   42MOL   H45127593   2.698   7.432   7.467 -0.7261  0.9245 -1.4157
   42MOL   H45227594   2.701   7.296   7.358  1.0462 -0.6235  1.0676
   42MOL   H45327595   2.667   7.131   7.527  0.1859 -0.2571  1.3826
   42MOL   H45427596   2.625   7.248   7.646  1.6538  0.7699  0.9594
   42MOL   H45527597   2.889   7.234   7.505  1.3591 -1.0868  0.0882
   42MOL   H45627598   2.851   7.345   7.638 -0.5502 -1.2337  3.2197
   42MOL   H45727599   2.890   7.030   7.651  1.1554  0.1650 -0.7344
   42MOL   H45827600   2.822   7.127   0.077 -2.2558  0.2446 -0.9766
   42MOL   H45927601   3.033   7.244   0.114  2.3570  0.6199 -2.0303
   42MOL   H46027602   3.087   7.192   7.664 -2.3115 -0.1799 -1.1556
   42MOL   H46127603   3.196   7.088   0.146 -0.3769  1.2284 -1.1275
   42MOL   H46227604   3.039   7.012   0.189 -0.5758  1.3652 -0.2339
   42MOL   H46327605   3.125   6.964   0.034  0.1858 -2.6669  2.5026
   42MOL   C46427606   2.285   7.669   7.166 -0.0294  0.3524 -0.1583
   42MOL   C46527607   2.215   7.572   7.069  0.3552 -0.5226 -0.2694
   42MOL   C46627608   2.065   7.573   7.092 -0.3026 -0.1720 -0.6558
   42MOL   C46727609   1.977   7.477   7.008 -0.1648  0.1018  0.1168
   42MOL   C46827610   1.831   7.468   7.059  0.3778 -0.2505  0.8913
   42MOL   C46927611   1.753   7.356   7.003  0.1010  0.1192  0.2642
   42MOL   C47027612   1.610   7.360   7.072 -0.5405  0.1697 -0.0299
   42MOL   C47127613   1.526   7.247   7.015  0.2523  0.9111  0.6312
   42MOL   C47227614   1.382   7.232   7.080 -0.3515  0.4327 -0.3917
   42MOL   C47327615   1.306   7.123   6.999  0.4857  0.1527 -0.6215
   42MOL   C47427616   1.361   6.980   6.998  0.3509  0.0419  0.4437
   42MOL   H47527617   2.392   7.662   7.147  0.1693  1.9584  0.3380
   42MOL   H47627618   2.255   0.061   7.123 -1.5110 -0.1734 -0.3347
   42MOL   H47727619   2.236   7.466   7.080 -1.0679 -0.8077 -0.2099
   42MOL   H47827620   2.019   7.671   7.094  0.8059  0.3415  0.4830
   42MOL   H47927621   2.058   7.532   7.193 -0.8437 -1.5293 -1.2268
   42MOL   H48027622   1.982   7.524   6.910  1.0431 -0.1742  0.0304
   42MOL   H48127623   2.033   7.384   6.995 -1.3760 -0.3360 -2.3603
   42MOL   H48227624   1.786   7.567   7.047 -2.9952 -1.9147 -0.7172
   42MOL   H48327625   1.846   7.463   7.167  0.4860  0.2286  0.9000
   42MOL   H48427626   1.745   7.379   6.897 -1.1693  1.6832  0.6823
   42MOL   H48527627   1.803   7.260   7.015  0.6641  0.2257 -1.2291
   42MOL   H48627628   1.614   7.332   7.178 -0.8041  0.4370  0.0520
   42MOL   H48727629   1.552   7.451   7.059  0.8680  1.1559  0.4324
   42MOL   H48827630   1.508   7.268   6.910 -1.2270  0.6753  0.8208
   42MOL   H48927631   1.576   7.150   7.019 -2.5735 -0.6073  0.4747
   42MOL   H49027632   1.383   7.191   7.181  0.1207 -0.4243 -0.7398
   42MOL   H49127633   1.329   7.327   7.068  2.1014  2.3494  3.0857
   42MOL   H49227634   1.206   7.122   7.042  0.5277  1.3679 -0.4654
   42MOL   H49327635   1.286   7.167   6.901 -1.4557 -0.2710 -0.4475
   42MOL   H49427636   1.386   6.939   7.096 -1.1859  0.1215  0.8866
   42MOL   H49527637   1.451   6.970   6.938  0.0635 -0.4246  0.0866
   42MOL   H49627638   1.284   6.917   6.955  0.9623  0.9170 -1.9948
   42MOL   C49727639   2.263   7.602   6.925  0.9679  0.0529  0.4861
   42MOL   C49827640   2.301   7.491   6.824 -0.5597  0.4024 -1.0794
   42MOL   C49927641   2.442   7.440   6.852 -0.4679  0.5560 -0.0622
   42MOL   C50027642   2.469   7.293   6.815  0.1688  0.7438  0.3146
   42MOL   C50127643   2.611   7.249   6.867  0.3461  0.1461  0.1567
   42MOL   C50227644   2.671   7.125   6.788 -0.6784  0.1963 -0.7395
   42MOL   C50327645   2.817   7.096   6.829  0.9146  0.1024 -0.0099
   42MOL   C50427646   2.892   6.997   6.740 -0.3049 -0.1123  0.4794
   42MOL   C50527647   2.918   7.038   6.592 -0.8007 -0.5589  0.4030
   42MOL   C50627648   2.997   7.168   6.576  0.3662 -0.1585  0.0220
   42MOL   C50727649   3.011   7.220   6.430 -0.1127  0.2809  0.4302
   42MOL   H50827650   2.181   7.659   6.881  1.1633 -0.7100 -0.9070
   42MOL   H50927651   2.348   7.670   6.925  0.4731  0.6911  1.7333
   42MOL   H51027652   2.230   7.412   6.845  0.4801 -0.1584  0.4023
   42MOL   H51127653   2.467   7.450   6.957 -1.9516 -0.9829  0.4492
   42MOL   H51227654   2.518   7.493   6.794 -0.5708 -1.6909 -2.3698
   42MOL   H51327655   2.471   7.283   6.707 -3.1007 -3.0646  0.4812
   42MOL   H51427656   2.402   7.218   6.857  3.2093 -1.8130  0.8228
   42MOL   H51527657   2.678   7.334   6.857 -0.1069  0.3597 -1.2116
   42MOL   H51627658   2.606   7.235   6.975  2.3274  1.2483  0.4200
   42MOL   H51727659   2.615   7.037   6.820  0.9829  0.2236  2.5055
   42MOL   H51827660   2.654   7.128   6.681  0.3502  1.6698 -0.8796
   42MOL   H51927661   2.877   7.186   6.844 -1.0621  2.2662 -4.1161
   42MOL   H52027662   2.823   7.053   6.928  0.0136  1.5201  0.6833
   42MOL   H52127663   2.827   6.910   6.735  0.1189 -0.3753 -0.7986
   42MOL   H52227664   2.986   6.980   6.793 -0.2270  0.3834  0.5085
   42MOL   H52327665   2.821   7.052   6.546 -0.5896 -0.5321 -0.0348
   42MOL   H52427666   2.971   6.960   6.537  1.7554 -0.3884  2.5019
   42MOL   H52527667   3.095   7.149   6.619  0.4713  0.9930  0.3128
   42MOL   H52627668   2.953   7.245   6.640  0.8580 -1.0108  1.4078
   42MOL   H52727669   3.092   7.161   6.386  0.6326  0.3639  1.6682
   42MOL   H52827670   3.053   7.321   6.426  0.0021  0.1747 -1.4978
   42MOL   H52927671   2.922   7.216   6.368 -0.5279 -2.1029  1.1454
   42MOL   C53027672   2.291   7.540   6.676 -0.1622  0.4067  0.2753
   42MOL   C53127673   2.146   7.550   6.619  0.4137 -0.5251 -0.2263
   42MOL   C53227674   2.085   7.410   6.590  0.4276  0.0929  0.0770
   42MOL   C53327675   1.931   7.410   6.588  0.6124 -0.5771  0.1923
   42MOL   C53427676   1.877   7.266   6.617  0.1121 -0.2011 -0.1406
   42MOL   C53527677   1.725   7.257   6.603  0.1582  0.3540 -0.2620
   42MOL   C53627678   1.664   7.122   6.649 -0.1546 -0.5377  0.0658
   42MOL   C53727679   1.694   7.003   6.561 -0.2215  0.5543  0.2364
   42MOL   C53827680   1.613   6.884   6.608 -0.5505 -0.8160 -0.6858
   42MOL   C53927681   1.691   6.752   6.587  0.2205  0.0018  0.0825
   42MOL   C54027682   1.618   6.628   6.631  0.2841 -0.1477 -0.1593
   42MOL   H54127683   2.346   7.633   6.664  0.1649  0.3271  1.1704
   42MOL   H54227684   2.352   7.469   6.620 -0.4067  1.4117 -1.3023
   42MOL   H54327685   2.080   7.589   6.696  0.7613 -0.0507 -0.1713
   42MOL   H54427686   2.126   7.343   6.665  2.3838  0.3235 -0.7510
   42MOL   H54527687   2.119   7.373   6.493 -0.2973 -0.0308 -0.1350
   42MOL   H54627688   1.914   7.435   6.483 -0.2420  1.2975  0.7453
   42MOL   H54727689   1.894   7.492   6.650  2.7358  1.0195 -0.5567
   42MOL   H54827690   1.890   7.247   6.724 -0.4123 -0.9201 -0.2004
   42MOL   H54927691   1.923   7.184   6.562 -0.6802 -1.1887  0.6454
   42MOL   H55027692   1.675   7.285   6.509 -1.4828  0.3814  0.5965
   42MOL   H55127693   1.683   7.331   6.671 -0.8666 -0.0122 -0.4741
   42MOL   H55227694   1.558   7.148   6.645  0.1134  0.3504 -1.5349
   42MOL   H55327695   1.672   7.104   6.756 -0.5463  1.5029  0.4599
   42MOL   H55427696   1.800   6.985   6.576 -0.4298 -0.7856  0.1332
   42MOL   H55527697   1.692   7.024   6.454  2.5815 -0.9278 -0.1376
   42MOL   H55627698   1.520   6.886   6.552 -0.3732  0.6354 -0.9559
   42MOL   H55727699   1.588   6.891   6.714 -1.8697 -0.3365 -1.0179
   42MOL   H55827700   1.781   6.762   6.648  0.9874  2.4439 -1.3511
   42MOL   H55927701   1.712   6.738   6.481  0.2340 -2.6594  0.3997
   42MOL   H56027702   1.673   6.536   6.616  1.6137  1.2406 -4.2891
   42MOL   H56127703   1.578   6.615   6.732  2.2182 -0.0819  0.6349
   42MOL   H56227704   1.546   6.631   6.549 -0.2846  0.7879  0.3592
   42MOL   C56327705   2.142   7.649   6.499  0.3753  0.3225  0.0388
   42MOL   C56427706   2.134   0.096   6.537 -0.1864  0.6175  0.3336
   42MOL   C56527707   1.991   0.126   6.577 -0.0960  0.3928 -0.8776
   42MOL   C56627708   1.984   0.243   6.675 -0.5251 -0.6688  0.0752
   42MOL   C56727709   1.851   0.255   6.743  0.1295 -0.4827 -0.2648
   42MOL   C56827710   1.840   0.368   6.840 -0.2064  0.0667 -0.1484
   42MOL   C56927711   1.718   0.349   6.928 -0.2285 -1.0219  0.1104
   42MOL   C57027712   1.590   0.389   6.849  0.2561  0.0904 -0.6549
   42MOL   C57127713   1.470   0.411   6.950 -0.3856  0.2898 -0.1403
   42MOL   C57227714   1.338   0.458   6.871  0.1838  0.8299  0.1495
   42MOL   C57327715   1.278   0.337   6.805  0.0988  0.4461  0.2604
   42MOL   H57427716   2.059   7.621   6.434 -0.6158  0.7165  1.1185
   42MOL   H57527717   2.228   7.636   6.433  0.4228  2.2869 -0.3149
   42MOL   H57627718   2.206   0.114   6.617  0.5455  0.2053 -0.2227
   42MOL   H57727719   1.950   0.051   6.645  1.2258  1.7190  1.4859
   42MOL   H57827720   1.923   0.144   6.494 -0.6130 -0.8777 -0.7392
   42MOL   H57927721   1.982   0.335   6.617  0.7000 -0.8674 -0.3005
   42MOL   H58027722   2.054   0.232   6.757  0.3218 -2.6176 -0.8638
   42MOL   H58127723   1.826   0.162   6.794  0.6129 -0.4808 -0.0235
   42MOL   H58227724   1.766   0.269   6.677  0.1040 -0.7451 -0.2879
   42MOL   H58327725   1.930   0.377   6.901 -1.0961  0.6088  1.0900
   42MOL   H58427726   1.847   0.459   6.782 -0.9818 -0.6682 -1.4269
   42MOL   H58527727   1.706   0.244   6.955 -0.6854 -1.0162 -0.0585
   42MOL   H58627728   1.714   0.412   7.017  0.9562  1.1373 -1.3159
   42MOL   H58727729   1.573   0.318   6.768  0.7087 -0.0092 -0.6645
   42MOL   H58827730   1.601   0.483   6.795 -0.9383  1.5041  1.4544
   42MOL   H58927731   1.496   0.491   7.019 -2.5344  1.0663 -0.1894
   42MOL   H59027732   1.457   0.323   7.012 -3.4235  0.7298 -0.0835
   42MOL   H59127733   1.373   0.527   6.795 -1.6766  0.3430 -1.2041
   42MOL   H59227734   1.267   0.504   6.941 -0.1184  0.9170 -0.2142
   42MOL   H59327735   1.178   0.360   6.770 -0.4755 -2.8743 -0.4284
   42MOL   H59427736   1.335   0.308   6.716  1.7779  0.8747  1.1616
   42MOL   H59527737   1.254   0.264   6.883 -0.4119  1.5352  1.1404
   42MOL   C59627738   2.188   0.187   6.428  0.3158  0.6889 -0.9205
   42MOL   C59727739   2.245   0.323   6.471 -0.5090 -0.7545 -0.2854
   42MOL   C59827740   2.215   0.426   6.350 -0.4008 -0.0708  0.7097
   42MOL   C59927741   2.243   0.575   6.367 -0.0453 -0.2227  0.2654
   42MOL   C60027742   2.214   0.646   6.235 -0.4523 -0.1328 -0.3309
   42MOL   C60127743   2.078   0.642   6.166 -0.0145 -0.1513  0.3968
   42MOL   C60227744   2.076   0.716   6.032  0.2656  0.2564 -0.0695
   42MOL   C60327745   1.935   0.732   5.977 -0.1216  0.4833  0.2745
   42MOL   C60427746   1.929   0.768   5.823  0.3789 -1.1285 -0.1367
   42MOL   C60527747   1.783   0.779   5.779 -0.2611 -0.5108  0.3847
   42MOL   C60627748   1.698   0.889   5.840 -0.7554 -0.7333  0.0237
   42MOL   H60727749   2.266   0.146   6.362 -0.2963  0.7694 -1.6948
   42MOL   H60827750   2.112   0.203   6.352 -0.6898  0.8424  0.1094
   42MOL   H60927751   2.192   0.360   6.558  0.4114  1.2258 -0.5276
   42MOL   H61027752   2.109   0.417   6.325 -0.6324  1.2792  1.1859
   42MOL   H61127753   2.271   0.405   6.258  0.0716  1.0372  0.7399
   42MOL   H61227754   2.350   0.586   6.382 -0.1703 -0.7907  1.6049
   42MOL   H61327755   2.185   0.626   6.444 -0.3113 -0.7597  0.4201
   42MOL   H61427756   2.286   0.624   6.156  1.4970  0.0579  1.3681
   42MOL   H61527757   2.237   0.746   6.271 -1.0638  0.7836 -2.3761
   42MOL   H61627758   2.043   0.540   6.148  1.8839 -1.1972  2.3794
   42MOL   H61727759   2.003   0.685   6.233  0.8091 -2.4678  2.9166
   42MOL   H61827760   2.138   0.659   5.963  0.0059  1.0494 -0.9740
   42MOL   H61927761   2.125   0.814   6.036  0.2178  0.2491  0.7201
   42MOL   H62027762   1.884   0.811   6.032 -0.6002 -2.1846  3.8339
   42MOL   H62127763   1.875   0.642   5.980  2.5797 -1.5232 -2.4904
   42MOL   H62227764   1.977   0.861   5.793  0.3181 -1.2454 -0.6125
   42MOL   H62327765   1.971   0.690   5.759 -0.0271 -2.3564  1.0799
   42MOL   H62427766   1.732   0.684   5.768 -1.1604 -0.2861  2.4411
   42MOL   H62527767   1.789   0.809   5.674 -0.8885  2.5708  1.1773
   42MOL   H62627768   1.654   0.866   5.937  1.3555  0.8056  1.3780
   42MOL   H62727769   1.762   0.977   5.835 -1.9071  0.1478  0.6953
   42MOL   H62827770   1.609   0.907   5.780  0.1658  3.9990 -0.0413
   42MOL   C62927771   2.397   0.309   6.503  0.3467  0.0545  0.0411
   42MOL   C63027772   2.437   0.233   6.628  0.2104 -0.8691  0.1626
   42MOL   C63127773   2.586   0.238   6.661 -0.3060  0.3880 -0.2106
   42MOL   C63227774   2.626   0.145   6.777 -0.0114 -0.1205 -0.7367
   42MOL   C63327775   2.622   0.219   6.909 -0.0218  0.1009 -0.8977
   42MOL   C63427776   2.652   0.114   7.021  0.3987 -0.9044  0.1548
   42MOL   C63527777   2.652   0.178   7.160 -0.1718 -0.0317 -0.5204
   42MOL   C63627778   2.796   0.222   7.203  0.2991 -0.1211  0.4216
   42MOL   C63727779   2.789   0.289   7.346  0.0430  0.3696  0.1597
   42MOL   C63827780   2.914   0.259   7.437 -0.2975 -0.3357  0.0457
   42MOL   C63927781   3.047   0.332   7.389 -0.2356  0.4220 -0.2910
   42MOL   H64027782   2.453   0.267   6.419  2.5041  0.7848  1.0952
   42MOL   H64127783   2.436   0.411   6.512  0.7768 -0.2157  1.2678
   42MOL   H64227784   2.389   0.268   6.720  0.1697  0.4247 -0.3372
   42MOL   H64327785   2.630   0.198   6.569 -0.8969 -2.0582  0.5234
   42MOL   H64427786   2.611   0.343   6.677 -0.3881  0.4469 -0.4593
   42MOL   H64527787   2.724   0.102   6.755  0.5830  0.6894  0.2616
   42MOL   H64627788   2.560   0.059   6.791  0.4082 -0.3720 -0.2451
   42MOL   H64727789   2.525   0.266   6.926  0.4764  0.5458  0.8079
   42MOL   H64827790   2.693   0.302   6.919 -1.1448  0.8278  1.4352
   42MOL   H64927791   2.745   0.061   7.002 -0.8860 -3.0748 -0.2509
   42MOL   H65027792   2.571   0.042   7.019 -0.8866  0.5173  0.1179
   42MOL   H65127793   2.616   0.105   7.232 -0.2156 -2.1417 -2.6348
   42MOL   H65227794   2.569   0.249   7.163  0.0451  0.1694  1.2300
   42MOL   H65327795   2.835   0.294   7.131 -1.9435 -0.6914 -1.4125
   42MOL   H65427796   2.865   0.138   7.192 -0.3323 -0.7760  1.3565
   42MOL   H65527797   2.696   0.262   7.395 -0.4459  1.7003 -0.0262
   42MOL   H65627798   2.781   0.396   7.328 -0.6492  0.0128 -1.7518
   42MOL   H65727799   2.923   0.151   7.443  2.3796 -0.1975 -0.6329
   42MOL   H65827800   2.895   0.289   7.540  0.4141  2.0502 -0.4706
   42MOL   H65927801   3.026   0.438   7.374  0.5930  0.5389 -0.6279
   42MOL   H66027802   3.070   0.290   7.291  1.3609 -0.6869  0.5292
   42MOL   H66127803   3.135   0.316   7.451 -1.1600  0.3761  1.0150
   42MOL   H66227804   2.424   0.126   6.620  0.4760 -0.7727 -1.7181
   43MOL     C127805   0.452   5.466   3.590  0.2684 -0.7697 -0.5481
   43MOL     C227806   0.583   5.464   3.496 -0.5619  0.2720  0.2914
   43MOL     C327807   0.694   5.368   3.543  0.5010  0.0051  0.2586
   43MOL     C427808   0.721   5.365   3.698 -0.0311 -0.0165  0.2707
   43MOL     C527809   0.822   5.253   3.739  0.4097  0.1095 -0.0757
   43MOL     C627810   0.976   5.302   3.748  0.2416  0.4691 -0.0168
   43MOL     C727811   1.055   5.186   3.811  0.5222  0.2677  0.0914
   43MOL     C827812   1.209   5.206   3.805 -0.5408  0.4625 -0.9245
   43MOL     C927813   1.265   5.225   3.667 -0.3071  0.2968 -0.3680
   43MOL    C1027814   1.419   5.251   3.651  0.0922 -0.1021  0.7058
   43MOL    C1127815   1.462   5.292   3.510 -0.2372  0.5024  0.3948
   43MOL    H1227816   0.468   5.496   3.694  2.3144  0.1482 -1.1071
   43MOL    H1327817   0.413   5.364   3.590  0.6067 -0.9035  0.6265
   43MOL    H1427818   0.617   5.567   3.491  2.0839 -0.5370  0.7448
   43MOL    H1527819   0.788   5.402   3.500 -0.2560 -0.7522 -2.0690
   43MOL    H1627820   0.683   5.269   3.499 -1.0750 -0.4460  1.6092
   43MOL    H1727821   0.642   5.345   3.770 -0.6654 -0.9427 -0.6585
   43MOL    H1827822   0.766   5.460   3.727  1.8192  0.3566 -3.4362
   43MOL    H1927823   0.811   5.220   3.842  0.9266  1.0341  0.2806
   43MOL    H2027824   0.810   5.163   3.679  0.8263 -1.5215  2.2072
   43MOL    H2127825   0.972   5.390   3.813 -0.3328 -0.5800  1.4111
   43MOL    H2227826   1.012   5.334   3.651 -2.1849 -0.7155 -1.3564
   43MOL    H2327827   1.023   5.161   3.913  0.8969  1.1101  0.4200
   43MOL    H2427828   1.028   5.099   3.752  0.1049 -0.7889  1.7986
   43MOL    H2527829   1.264   5.122   3.847 -2.0050 -0.3293 -0.5461
   43MOL    H2627830   1.235   5.294   3.863  0.0103 -1.9636  2.6948
   43MOL    H2727831   1.213   5.308   3.619 -0.3800  1.3906  1.5415
   43MOL    H2827832   1.251   5.142   3.598 -0.3891  0.4454 -0.5307
   43MOL    H2927833   1.466   5.156   3.674 -1.6981 -1.0274  0.6184
   43MOL    H3027834   1.453   5.336   3.710  0.7512  1.0246 -1.2612
   43MOL    H3127835   1.566   5.321   3.491 -0.7150  3.2276  1.7939
   43MOL    H3227836   1.430   5.214   3.441 -0.4344  1.4846 -0.6410
   43MOL    H3327837   1.412   5.382   3.473  0.9327  0.7186 -0.7080
   43MOL    H3427838   0.373   5.534   3.557 -1.5474 -0.2657  4.4336
   43MOL    C3527839   0.534   5.428   3.351  0.2195 -0.2783  0.0995
   43MOL    C3627840   0.625   5.457   3.228 -0.0151  0.6143  0.6231
   43MOL    C3727841   0.579   5.384   3.095 -0.5283  0.1059  0.5008
   43MOL    C3827842   0.676   5.406   2.968 -0.1982  0.0366 -0.6533
   43MOL    C3927843   0.655   5.306   2.850  0.0221 -1.2287 -0.3473
   43MOL    C4027844   0.759   5.329   2.738 -0.2855  0.3572  0.0078
   43MOL    C4127845   0.710   5.265   2.606 -0.5586  0.1176 -0.4094
   43MOL    C4227846   0.812   5.276   2.494  0.0496  0.7481 -0.3264
   43MOL    C4327847   0.825   5.419   2.439  0.0319 -0.5184 -0.2637
   43MOL    C4427848   0.951   5.452   2.350  0.2629 -0.3340  0.8365
   43MOL    C4527849   0.948   5.592   2.292 -0.6309 -0.6230  0.2042
   43MOL    H4627850   0.446   5.493   3.343 -1.2631 -2.4043 -1.5245
   43MOL    H4727851   0.498   5.326   3.340  1.3901 -0.8654  1.5109
   43MOL    H4827852   0.713   5.402   3.263  1.1065  0.7971 -1.7784
   43MOL    H4927853   0.576   5.279   3.123 -0.6287  0.1903  0.8105
   43MOL    H5027854   0.475   5.403   3.070 -0.4565 -1.2828 -0.8771
   43MOL    H5127855   0.781   5.418   2.997  0.0531  1.3206 -2.0215
   43MOL    H5227856   0.652   5.503   2.925  3.7892  1.3093 -0.2092
   43MOL    H5327857   0.555   5.330   2.815  1.5647  1.1470 -3.3334
   43MOL    H5427858   0.655   5.198   2.863 -0.8869 -1.4036 -1.6422
   43MOL    H5527859   0.862   5.305   2.763 -0.2312  0.5790 -0.0022
   43MOL    H5627860   0.760   5.435   2.716 -0.9160  0.1517 -1.0186
   43MOL    H5727861   0.720   5.160   2.634  1.2685  0.5361  0.6190
   43MOL    H5827862   0.605   5.290   2.590 -0.8568 -1.1019 -0.4417
   43MOL    H5927863   0.774   5.212   2.413  2.3686  0.0333 -0.8924
   43MOL    H6027864   0.910   5.238   2.520 -0.8754 -1.7921 -0.3470
   43MOL    H6127865   0.821   5.495   2.516  0.8142 -0.3997 -0.3393
   43MOL    H6227866   0.744   5.450   2.372  1.1181  2.9244 -0.0723
   43MOL    H6327867   1.035   5.447   2.419 -0.8909 -1.7992  2.1648
   43MOL    H6427868   0.975   5.386   2.267 -0.8906  0.5826 -0.2506
   43MOL    H6527869   0.931   5.671   2.366 -0.0812 -0.7105  0.4224
   43MOL    H6627870   1.035   5.624   2.235 -1.0126 -0.7765 -0.4590
   43MOL    H6727871   0.868   5.604   2.220 -1.1475 -0.4227  0.8002
   43MOL    C6827872   0.643   5.606   3.201  0.2280 -0.8630  0.6145
   43MOL    C6927873   0.770   5.682   3.258 -0.2741 -0.2658 -0.8998
   43MOL    C7027874   0.903   5.633   3.185  0.3107 -0.4158  0.0098
   43MOL    C7127875   1.027   5.691   3.249 -0.4121  0.3074 -0.0848
   43MOL    C7227876   1.152   5.624   3.191  0.1298  0.3242 -0.8053
   43MOL    C7327877   1.284   5.664   3.268  0.7692  0.4139 -0.6325
   43MOL    C7427878   1.407   5.603   3.214  0.1261  0.4471 -0.3039
   43MOL    C7527879   1.528   5.638   3.300 -0.0321 -0.4978 -0.4744
   43MOL    C7627880   1.647   5.551   3.261  0.5061 -0.2305  0.0096
   43MOL    C7727881   1.777   5.594   3.327  0.2779  0.7509  0.3579
   43MOL    C7827882   1.896   5.527   3.261 -0.5999 -0.4406 -0.2786
   43MOL    H7927883   0.551   5.655   3.232  0.0749 -0.1021 -0.9710
   43MOL    H8027884   0.651   5.625   3.094 -2.0675 -0.1258  0.5463
   43MOL    H8127885   0.777   5.667   3.366 -3.7693  1.9091 -0.2723
   43MOL    H8227886   0.890   5.650   3.078  0.1917  2.3971  0.4373
   43MOL    H8327887   0.904   5.525   3.197  0.3098 -0.1835  2.3864
   43MOL    H8427888   1.038   5.797   3.224 -0.5579  0.8654  2.1399
   43MOL    H8527889   1.013   5.675   3.355 -2.0793  0.6740 -0.2251
   43MOL    H8627890   1.161   5.651   3.086 -0.9593 -1.2318 -1.3169
   43MOL    H8727891   1.133   5.518   3.210 -1.1373  0.4385 -1.3798
   43MOL    H8827892   1.282   5.773   3.274 -0.5558  0.5537 -3.0046
   43MOL    H8927893   1.274   5.627   3.370 -1.7248 -0.7492 -1.2760
   43MOL    H9027894   1.411   5.630   3.109 -0.1223 -0.5173 -0.5705
   43MOL    H9127895   1.388   5.496   3.226  0.0177  0.3450 -1.4042
   43MOL    H9227896   1.559   5.742   3.286 -1.7665 -0.1062 -1.6060
   43MOL    H9327897   1.505   5.633   3.407 -2.4303 -2.4466 -1.0227
   43MOL    H9427898   1.618   5.450   3.291  0.4706 -0.0840  0.4731
   43MOL    H9527899   1.655   5.548   3.153 -0.8076 -1.6726 -0.0622
   43MOL    H9627900   1.787   5.702   3.314  1.2624  0.6293  0.0633
   43MOL    H9727901   1.783   5.587   3.435  0.7379  0.0285  0.2904
   43MOL    H9827902   1.973   5.561   3.330 -1.1982 -0.3576  0.3535
   43MOL    H9927903   1.932   5.570   3.168 -0.6902  1.2602  0.4611
   43MOL   H10027904   1.886   5.418   3.257  0.5996 -0.5679  0.1343
   43MOL   C10127905   0.758   5.838   3.244 -0.3640  0.4248 -0.8119
   43MOL   C10227906   0.630   5.912   3.288  0.1557 -0.2604 -0.2288
   43MOL   C10327907   0.637   6.072   3.262  0.6098 -0.3539  0.1204
   43MOL   C10427908   0.632   6.108   3.111  0.5609  0.4174 -0.1889
   43MOL   C10527909   0.570   6.252   3.093 -0.9008  0.0544 -0.0865
   43MOL   C10627910   0.528   6.286   2.956 -0.3917 -0.5710  0.2425
   43MOL   C10727911   0.494   6.433   2.938 -0.0590 -0.5712 -0.1780
   43MOL   C10827912   0.424   6.451   2.799  0.5247 -0.5914 -0.0851
   43MOL   C10927913   0.361   6.585   2.780  0.2487  0.0361  0.3708
   43MOL   C11027914   0.296   6.598   2.643  0.6788 -0.5533  0.1736
   43MOL   C11127915   0.223   6.733   2.618  0.3111  0.0482  0.4821
   43MOL   H11227916   0.840   5.889   3.295  0.1472 -2.1074  1.0032
   43MOL   H11327917   0.792   5.870   3.146  1.5114  1.4301  0.1351
   43MOL   H11427918   0.551   5.874   3.223 -0.5403  1.5608 -0.4524
   43MOL   H11527919   0.552   6.123   3.309  1.0844  0.8870 -0.3608
   43MOL   H11627920   0.730   6.117   3.295 -0.1646  0.4735  1.2249
   43MOL   H11727921   0.731   6.111   3.068  1.4542 -0.4282  1.7279
   43MOL   H11827922   0.572   6.036   3.055  0.9306 -0.8861  1.0551
   43MOL   H11927923   0.485   6.269   3.160 -0.7233  1.7582 -0.2585
   43MOL   H12027924   0.648   6.324   3.115 -1.2355  0.0593  1.1072
   43MOL   H12127925   0.611   6.261   2.891 -1.1337 -0.4660 -0.7513
   43MOL   H12227926   0.455   6.218   2.913 -1.6258 -0.4282  2.0415
   43MOL   H12327927   0.580   6.499   2.950 -0.9358  0.7592 -1.0683
   43MOL   H12427928   0.426   6.466   3.017  0.9723 -1.7963  1.2664
   43MOL   H12527929   0.499   6.429   2.723  0.1519 -3.8304  0.4339
   43MOL   H12627930   0.354   6.369   2.783 -0.2963  0.3313 -1.3145
   43MOL   H12727931   0.282   6.589   2.855  2.6087 -1.2501  2.9950
   43MOL   H12827932   0.429   6.669   2.787  0.2820  0.0717 -0.3465
   43MOL   H12927933   0.220   6.520   2.637 -0.2253  0.1760  1.8222
   43MOL   H13027934   0.368   6.573   2.565  0.4758  1.1100 -0.5589
   43MOL   H13127935   0.152   6.714   2.537  2.4693 -1.0060 -1.1932
   43MOL   H13227936   0.162   6.748   2.707 -0.2462 -0.2518  0.1561
   43MOL   H13327937   0.283   6.821   2.598 -0.4118  0.4015 -0.1537
   43MOL   C13427938   0.570   5.871   3.428 -0.2754 -0.2791  0.8584
   43MOL   C13527939   0.605   5.955   3.557  0.2148  0.3565 -1.4216
   43MOL   C13627940   0.756   5.955   3.583  0.0492  0.1730 -0.1339
   43MOL   C13727941   0.818   5.823   3.635 -0.3718 -0.0650 -0.2854
   43MOL   C13827942   0.973   5.843   3.648 -0.5686 -0.4069  0.6968
   43MOL   C13927943   1.030   5.715   3.703  1.0039  0.5402  0.2475
   43MOL   C14027944   1.168   5.739   3.770 -0.4228  0.3777  0.3771
   43MOL   C14127945   1.242   5.621   3.826  0.2010 -0.3053  0.1695
   43MOL   C14227946   1.388   5.656   3.858  0.3690  0.2439  0.3228
   43MOL   C14327947   1.446   5.543   3.935 -0.0938  0.5193  0.1348
   43MOL   C14427948   1.596   5.544   3.958 -0.7696  0.6875  0.7639
   43MOL   H14527949   0.462   5.889   3.421  0.0149  2.0636  1.9823
   43MOL   H14627950   0.581   5.763   3.438  0.5539 -0.3732 -0.8843
   43MOL   H14727951   0.576   6.058   3.534 -0.6700  0.9664  2.1402
   43MOL   H14827952   0.772   6.024   3.666  2.5931  2.5273 -2.5360
   43MOL   H14927953   0.810   5.988   3.495  0.0744  1.3701  0.3171
   43MOL   H15027954   0.786   5.812   3.739 -1.4482 -1.7400 -0.7832
   43MOL   H15127955   0.777   5.739   3.580 -0.8896  0.6047 -0.9278
   43MOL   H15227956   1.011   5.858   3.547 -0.1800  2.0842  1.1720
   43MOL   H15327957   0.994   5.919   3.724  1.3035 -0.9450  0.7523
   43MOL   H15427958   0.970   5.650   3.767  2.7316 -0.8161  0.5284
   43MOL   H15527959   1.043   5.654   3.613 -1.0611 -0.2537  0.4576
   43MOL   H15627960   1.233   5.781   3.694 -1.0844 -0.2020 -0.5243
   43MOL   H15727961   1.153   5.810   3.851 -0.3486  1.7491 -0.8026
   43MOL   H15827962   1.189   5.588   3.916  0.4123  0.0014  0.4097
   43MOL   H15927963   1.235   5.533   3.763  1.9830  0.3934 -1.0347
   43MOL   H16027964   1.449   5.674   3.769 -0.5480 -0.5247 -0.4823
   43MOL   H16127965   1.396   5.752   3.909 -0.9337  0.9209 -0.7215
   43MOL   H16227966   1.398   5.534   4.033 -0.8935 -1.1424 -0.4072
   43MOL   H16327967   1.422   5.448   3.888 -0.3684 -0.5699  2.4012
   43MOL   H16427968   1.627   5.451   4.006 -0.8100  0.5597  0.5416
   43MOL   H16527969   1.626   5.618   4.032  0.1481 -0.2265  1.3267
   43MOL   H16627970   1.654   5.563   3.868  0.0150  1.0336  1.3287
   43MOL   C16727971   0.534   5.897   3.689  0.0409 -0.1282 -0.5190
   43MOL   C16827972   0.382   5.927   3.706  0.2146  0.1931 -0.4048
   43MOL   C16927973   0.357   6.079   3.722 -0.2278  0.0783  0.4838
   43MOL   C17027974   0.427   6.136   3.847 -0.0250 -0.5216 -0.2871
   43MOL   C17127975   0.389   6.287   3.870 -0.1947 -0.0203  0.1179
   43MOL   C17227976   0.246   6.323   3.919  0.4814 -0.0221  0.1421
   43MOL   C17327977   0.216   6.477   3.925 -0.1898  0.3020  0.1545
   43MOL   C17427978   0.071   6.503   3.967 -0.4062  0.5739 -0.3057
   43MOL   C17527979   0.007   6.621   3.892  0.1778  0.1217  0.7282
   43MOL   C17627980   7.602   6.696   3.976  0.2393  0.0036 -0.2629
   43MOL   C17727981   7.675   6.766   4.093 -0.0523  0.1057  0.0156
   43MOL   H17827982   0.548   5.789   3.687 -1.1895 -0.3024 -0.0373
   43MOL   H17927983   0.584   5.934   3.779 -0.6436 -2.3535  0.8252
   43MOL   H18027984   0.337   5.892   3.613  1.1600 -0.9063 -0.4557
   43MOL   H18127985   0.249   6.096   3.723 -0.1113  1.1099 -1.7888
   43MOL   H18227986   0.388   6.133   3.633 -5.6397  1.2468 -0.8526
   43MOL   H18327987   0.400   6.074   3.932 -2.0848 -1.2966 -1.4815
   43MOL   H18427988   0.536   6.137   3.837  0.3610 -0.5549  3.4675
   43MOL   H18527989   0.409   6.347   3.782  1.1373  0.1521  0.5139
   43MOL   H18627990   0.453   6.311   3.955  1.9237 -0.8011 -1.1942
   43MOL   H18727991   0.167   6.272   3.862  0.8236 -2.8965  2.1260
   43MOL   H18827992   0.222   6.278   4.015 -3.6670  1.2112 -0.2146
   43MOL   H18927993   0.245   6.538   3.840 -0.6590  2.0018  1.1863
   43MOL   H19027994   0.268   6.513   4.014 -0.2780  1.0775 -0.1059
   43MOL   H19127995   0.017   6.411   3.944  3.1635 -1.2272 -1.8936
   43MOL   H19227996   0.067   6.502   4.076  0.1511 -2.4793 -0.2593
   43MOL   H19327997   7.680   6.574   3.799  1.8161  0.8442 -0.1750
   43MOL   H19427998   0.082   6.689   3.854  1.5451 -0.9875  1.3998
   43MOL   H19527999   7.534   6.620   4.015 -1.2382  0.6117 -1.6094
   43MOL   H19628000   7.538   6.762   3.917  0.6851  0.6972  0.0315
   43MOL   H19728001   7.641   6.870   4.086  1.1463  0.7564  2.8972
   43MOL   H19828002   0.077   6.786   4.073  0.0952  0.2703  0.9189
   43MOL   H19928003   7.657   6.722   4.191  2.2661 -0.6233  0.1378
   43MOL   C20028004   0.314   5.829   3.821 -0.3109 -0.3632 -0.3196
   43MOL   C20128005   0.161   5.826   3.832 -1.0898 -0.3596  0.2725
   43MOL   C20228006   0.094   5.782   3.699 -0.5253  0.1403  0.2498
   43MOL   C20328007   7.646   5.755   3.700 -0.0237  0.2255  0.0702
   43MOL   C20428008   7.591   5.699   3.568 -0.0101 -0.2158 -0.4274
   43MOL   C20528009   7.465   5.617   3.584  0.5076 -0.2398  0.1329
   43MOL   C20628010   7.395   5.556   3.456  0.1002  0.2978 -0.0873
   43MOL   C20728011   7.424   5.409   3.435  1.0162 -0.4439 -0.5965
   43MOL   C20828012   7.357   5.370   3.294  0.2058  0.5657 -0.2044
   43MOL   C20928013   7.400   5.229   3.244  0.2307  0.0253 -0.1532
   43MOL   C21028014   7.373   5.205   3.093  0.5094 -0.1122 -0.4087
   43MOL   H21128015   0.346   5.730   3.788 -0.2352 -1.1211  1.9495
   43MOL   H21228016   0.369   5.850   3.912  0.2284 -0.7836 -0.5483
   43MOL   H21328017   0.147   5.734   3.889  0.7449 -1.4334 -0.9608
   43MOL   H21428018   0.151   5.696   3.666 -0.8858  1.1847 -3.2439
   43MOL   H21528019   0.111   5.864   3.629  0.3299 -0.3144 -0.0713
   43MOL   H21628020   7.596   5.850   3.719 -2.8068 -0.8615 -1.5770
   43MOL   H21728021   7.623   5.701   3.792 -2.3542  0.6391 -0.2585
   43MOL   H21828022   7.657   5.623   3.526 -0.4027  0.0183 -1.4686
   43MOL   H21928023   7.560   5.779   3.501  0.5150  0.2418 -0.1348
   43MOL   H22028024   7.484   5.539   3.658  1.1788  0.9421  1.2391
   43MOL   H22128025   7.390   5.681   3.632 -1.7637 -2.2596 -0.6592
   43MOL   H22228026   7.441   5.612   3.375  5.7801  0.4743  2.9593
   43MOL   H22328027   7.287   5.564   3.461  0.0764  0.5323 -0.8807
   43MOL   H22428028   7.376   5.351   3.513 -0.8375  0.1287 -1.2676
   43MOL   H22528029   7.532   5.393   3.434  1.3314  1.4360  1.0423
   43MOL   H22628030   7.390   5.449   3.227  0.3561  2.1037  1.6306
   43MOL   H22728031   7.248   5.378   3.296  0.1435 -0.3611  2.1610
   43MOL   H22828032   7.507   5.219   3.266  0.5407  0.0417 -1.6302
   43MOL   H22928033   7.352   5.149   3.300  0.9176 -1.4498 -1.6208
   43MOL   H23028034   7.421   5.277   3.028 -2.7105  1.8696 -0.6922
   43MOL   H23128035   7.268   5.219   3.066  0.1115  2.1794  2.0989
   43MOL   H23228036   7.401   5.103   3.067  2.3286  0.0239  0.8999
   43MOL   C23328037   0.094   5.950   3.903 -0.6991 -0.4452  0.1785
   43MOL   C23428038   0.040   5.927   4.040 -0.3961  0.0946  0.6193
   43MOL   C23528039   7.670   6.047   4.105 -0.1387 -0.6613  0.0066
   43MOL   C23628040   7.560   6.112   4.012  0.1239  0.3004 -0.3787
   43MOL   C23728041   7.458   6.211   4.065 -0.0924 -0.1286 -1.0797
   43MOL   C23828042   7.367   6.250   3.949 -0.9255 -0.3845  1.0637
   43MOL   C23928043   7.284   6.364   3.991 -0.0059  0.0377 -0.3171
   43MOL   C24028044   7.183   6.398   3.885  0.5540  0.2996 -0.1562
   43MOL   C24128045   7.083   6.512   3.933  0.2585 -0.1901 -0.0116
   43MOL   C24228046   6.966   6.514   3.831 -0.3955  0.0852 -0.1419
   43MOL   C24328047   6.853   6.618   3.864 -0.5560  0.0169 -0.0591
   43MOL   H24428048   0.015   5.988   3.838 -2.6802  0.1623  2.8263
   43MOL   H24528049   0.157   6.039   3.910  2.6911 -2.5765 -1.8771
   43MOL   H24628050   7.660   5.856   4.033  0.2809 -0.5612 -1.1634
   43MOL   H24728051   7.623   6.021   4.199  0.7621 -0.4373  0.5206
   43MOL   H24828052   0.038   6.127   4.122  0.0059 -0.8206  0.1511
   43MOL   H24928053   7.518   6.040   3.942  0.8915 -0.2447 -0.2918
   43MOL   H25028054   7.624   6.161   3.938  0.0590 -0.7883 -1.1747
   43MOL   H25128055   7.509   6.305   4.083  1.7326 -0.7520 -2.7463
   43MOL   H25228056   7.397   6.182   4.150  0.2364  1.3847 -0.3277
   43MOL   H25328057   7.304   6.166   3.921  1.0362 -1.6311  0.2516
   43MOL   H25428058   7.423   6.279   3.860  1.2186 -0.4865  2.3462
   43MOL   H25528059   7.229   6.344   4.083  0.9533 -2.2317 -0.1904
   43MOL   H25628060   7.358   6.443   4.003  0.6721 -1.0067  2.7501
   43MOL   H25728061   7.230   6.428   3.792  0.4367  3.4502  0.7376
   43MOL   H25828062   7.125   6.307   3.867  2.7207 -0.9389 -1.0994
   43MOL   H25928063   7.032   6.498   4.028 -0.3211  1.3987 -0.0692
   43MOL   H26028064   7.144   6.600   3.947  0.9226 -0.5671 -0.4953
   43MOL   H26128065   6.927   6.416   3.804  0.7506  0.0385 -1.7426
   43MOL   H26228066   7.001   6.555   3.736  2.9519 -0.7257  0.6514
   43MOL   H26328067   6.789   6.597   3.949 -1.1925 -0.0560 -0.5555
   43MOL   H26428068   6.789   6.626   3.776 -0.3850 -3.4563 -0.6025
   43MOL   H26528069   6.886   6.720   3.881  1.6811 -0.8492  1.1671
   43MOL   C26628070   0.143   5.873   4.136 -0.5846  0.0397 -0.2653
   43MOL   C26728071   0.141   5.723   4.192 -0.6117 -0.2792 -0.0944
   43MOL   C26828072   0.012   5.683   4.272 -0.5492  0.2534 -0.0143
   43MOL   C26928073   0.018   5.531   4.317  0.2555  0.0074 -0.1757
   43MOL   C27028074   7.581   5.474   4.359  1.0195 -0.3045  0.5942
   43MOL   C27128075   7.587   5.316   4.352  0.0484 -0.4798 -0.4657
   43MOL   C27228076   7.695   5.259   4.448  0.5618  0.4154 -0.2869
   43MOL   C27328077   0.023   5.107   4.445  0.2552 -0.3789  0.4436
   43MOL   C27428078   0.060   5.049   4.584  0.4350 -1.1195 -0.1780
   43MOL   C27528079   0.088   4.901   4.551  0.1838 -0.7086  0.7290
   43MOL   C27628080   0.097   4.826   4.680 -0.6259  0.0675 -0.6063
   43MOL   H27728081   0.140   5.939   4.223 -0.2222  1.2992 -1.2084
   43MOL   H27828082   0.240   5.902   4.097 -0.1147  0.5836  1.2870
   43MOL   H27928083   0.121   5.669   4.099  0.0122  0.5260 -0.7134
   43MOL   H28028084   0.005   5.759   4.349 -1.6024 -0.8467  0.9944
   43MOL   H28128085   7.628   5.691   4.208 -0.3930 -0.7015 -0.3572
   43MOL   H28228086   0.079   5.530   4.407  0.4826  1.2663 -0.3137
   43MOL   H28328087   0.057   5.468   4.237  1.3973  0.2208  0.2145
   43MOL   H28428088   7.499   5.493   4.289  0.8770 -3.0840 -0.0733
   43MOL   H28528089   7.550   5.512   4.456 -1.0958 -0.5431  0.0357
   43MOL   H28628090   7.607   5.270   4.256 -1.1003  0.9791 -1.4295
   43MOL   H28728091   7.487   5.275   4.370 -0.4270  0.8694  0.0881
   43MOL   H28828092   0.088   5.310   4.448  0.8275 -0.0153 -2.3742
   43MOL   H28928093   7.651   5.277   4.546 -1.1444  0.4531 -1.0298
   43MOL   H29028094   0.114   5.098   4.386 -0.4837  2.0003 -1.1111
   43MOL   H29128095   7.643   5.051   4.402  0.1368 -1.8375  2.5076
   43MOL   H29228096   0.147   5.099   4.627 -0.6187 -0.6433  1.4138
   43MOL   H29328097   7.681   5.068   4.652  1.7010  3.1488  0.2909
   43MOL   H29428098   0.180   4.882   4.495  0.6320  1.1595  0.7903
   43MOL   H29528099   0.003   4.860   4.497 -0.5580 -0.0731  1.4073
   43MOL   H29628100   0.156   4.737   4.656 -2.6820 -1.9430  1.5107
   43MOL   H29728101   7.699   4.801   4.710  0.3370 -0.8170  2.0757
   43MOL   H29828102   0.158   4.873   4.757 -1.9046  1.6196 -0.5295
   43MOL   C29928103   0.277   5.690   4.265 -0.0727  0.6519 -0.2741
   43MOL   C30028104   0.407   5.682   4.181  0.0278  0.0594 -0.2611
   43MOL   C30128105   0.407   5.580   4.063  0.7762  0.0342  0.2834
   43MOL   C30228106   0.388   5.427   4.076  0.1899 -0.4662 -0.7444
   43MOL   C30328107   0.517   5.355   4.135  0.2248 -0.0940  0.1759
   43MOL   C30428108   0.497   5.206   4.177  0.3394  0.3576 -0.0956
   43MOL   C30528109   0.624   5.143   4.223  0.7482  0.0872 -0.0296
   43MOL   C30628110   0.709   5.080   4.115  0.5486 -0.1849 -0.1266
   43MOL   C30728111   0.818   4.983   4.168 -0.2277 -0.8768 -0.7210
   43MOL   C30828112   0.863   4.878   4.069  0.7682  0.9405 -0.3298
   43MOL   C30928113   0.971   4.784   4.127 -0.1169 -0.2865  0.1890
   43MOL   H31028114   0.261   5.587   4.297  0.2336  0.3780 -0.9964
   43MOL   H31128115   0.289   5.751   4.354 -1.1581  1.7487 -0.8689
   43MOL   H31228116   0.401   5.774   4.123 -2.2592 -0.1093 -0.3528
   43MOL   H31328117   0.316   5.587   4.005 -0.0193  0.6392  1.5849
   43MOL   H31428118   0.495   5.596   4.001  0.7392 -2.2661 -0.3917
   43MOL   H31528119   0.305   5.419   4.146  1.4167 -1.3963  0.6421
   43MOL   H31628120   0.368   5.378   3.982  0.5367 -0.9399 -0.5724
   43MOL   H31728121   0.594   5.360   4.058 -1.7637  1.2127 -1.7758
   43MOL   H31828122   0.559   5.416   4.216 -0.3286 -2.0555  1.9702
   43MOL   H31928123   0.454   5.141   4.101  0.8236 -1.4245  1.1332
   43MOL   H32028124   0.418   5.204   4.252  1.0875 -2.5359  0.6636
   43MOL   H32128125   0.695   5.216   4.262  0.4963  0.7712 -0.8426
   43MOL   H32228126   0.597   5.067   4.297  1.4085  0.8805  1.0476
   43MOL   H32328127   0.761   5.161   4.065 -0.7345 -0.7256 -2.4170
   43MOL   H32428128   0.648   5.021   4.046  1.3229  0.4761 -1.3874
   43MOL   H32528129   0.775   4.929   4.252  2.0011 -1.9592 -0.2641
   43MOL   H32628130   0.905   5.033   4.209  0.4334 -0.8604 -2.1362
   43MOL   H32728131   0.900   4.925   3.977 -0.5065  1.6738 -0.4878
   43MOL   H32828132   0.780   4.832   4.015  1.5925 -1.7595  0.6301
   43MOL   H32928133   0.922   4.694   4.165 -1.1209 -1.0397 -2.7457
   43MOL   H33028134   1.039   4.757   4.046  0.2047  1.2744 -0.0629
   43MOL   H33128135   1.029   4.831   4.207  1.6591 -0.4420 -0.9776
   43MOL   C33228136   0.532   5.685   4.270  0.0795  0.4341  0.6243
   43MOL   C33328137   0.587   5.823   4.315 -0.9112 -0.1873 -0.1300
   43MOL   C33428138   0.657   5.891   4.193 -0.4498  0.6107 -0.0831
   43MOL   C33528139   0.666   6.043   4.197 -0.0632 -0.2272  0.4135
   43MOL   C33628140   0.729   6.092   4.064 -0.6454 -0.6616 -0.3886
   43MOL   C33728141   0.885   6.075   4.058 -0.4612 -0.5327 -0.8734
   43MOL   C33828142   0.952   6.160   3.952 -0.1292 -0.3425 -0.3861
   43MOL   C33928143   1.106   6.156   3.972  0.5675  0.2666 -0.2998
   43MOL   C34028144   1.189   6.220   3.860 -0.4683  0.4556  0.7398
   43MOL   C34128145   1.342   6.206   3.852 -0.5773  0.4610 -0.4583
   43MOL   C34228146   1.396   6.065   3.829  0.6082 -0.4662  0.3867
   43MOL   H34328147   0.510   5.623   4.357  1.9212  1.4030  1.8175
   43MOL   H34428148   0.611   5.633   4.217 -0.3187  0.4943 -0.0294
   43MOL   H34528149   0.499   5.884   4.335 -1.2589 -0.9887  0.8262
   43MOL   H34628150   0.615   5.858   4.098 -0.1542  0.8551 -0.3021
   43MOL   H34728151   0.760   5.856   4.195 -0.8508 -0.5399  1.1892
   43MOL   H34828152   0.561   6.075   4.198  0.2678  1.0558 -1.5299
   43MOL   H34928153   0.718   6.097   4.276  0.0074  2.1476 -1.1950
   43MOL   H35028154   0.700   6.035   3.975 -0.0050 -0.7558 -0.5408
   43MOL   H35128155   0.691   6.193   4.052  0.7330 -0.1970 -1.0083
   43MOL   H35228156   0.914   5.971   4.043  2.7171  0.3025 -0.7907
   43MOL   H35328157   0.933   6.097   4.153 -1.1397  0.0393 -0.6569
   43MOL   H35428158   0.917   6.263   3.956  0.1496 -0.3249  2.2811
   43MOL   H35528159   0.926   6.115   3.856  2.3835 -1.4849 -0.5853
   43MOL   H35628160   1.136   6.197   4.068  2.3626  0.1432 -0.7969
   43MOL   H35728161   1.128   6.050   3.984  1.3580  0.6698  2.1444
   43MOL   H35828162   1.170   6.327   3.858  1.2628  0.7895  1.3684
   43MOL   H35928163   1.145   6.195   3.764 -1.8633  0.2816  1.4123
   43MOL   H36028164   1.394   6.247   3.938  1.1324 -2.0987 -0.2124
   43MOL   H36128165   1.382   6.265   3.770 -0.4904  1.7540  0.4955
   43MOL   H36228166   1.335   5.995   3.771  0.1644 -1.0443  1.5349
   43MOL   H36328167   1.494   6.060   3.783  0.3408  0.5631 -0.3077
   43MOL   H36428168   1.411   6.009   3.921 -1.2222 -0.3070  0.8072
   43MOL   C36528169   0.685   5.801   4.426 -1.4311  0.7718  0.0681
   43MOL   C36628170   0.624   5.776   4.564 -0.2928  0.0237 -1.2589
   43MOL   C36728171   0.728   5.705   4.656  0.3472  0.1965  0.2515
   43MOL   C36828172   0.710   5.552   4.652  0.3306  0.0098  0.1442
   43MOL   C36928173   0.828   5.480   4.725  0.3679  0.6649  0.7242
   43MOL   C37028174   0.829   5.328   4.709  0.0940 -0.2207  0.1090
   43MOL   C37128175   0.829   5.274   4.564 -0.0295  0.9724 -0.0441
   43MOL   C37228176   0.845   5.118   4.557  0.1006 -0.5695  0.8335
   43MOL   C37328177   0.986   5.065   4.596  0.2518  0.0185  0.2111
   43MOL   C37428178   0.991   4.908   4.604  0.3673  0.6286 -0.2550
   43MOL   C37528179   1.126   4.854   4.650  0.3066  0.4745  0.0378
   43MOL   H37628180   0.729   5.704   4.404  0.9094  1.9767 -0.8282
   43MOL   H37728181   0.763   5.876   4.412  1.2865 -1.9671 -0.0844
   43MOL   H37828182   0.547   5.700   4.569  0.4261 -0.6409  0.1214
   43MOL   H37928183   0.721   5.741   4.759 -0.3745 -0.2882  0.3696
   43MOL   H38028184   0.828   5.725   4.617 -0.1091  3.4250  0.5959
   43MOL   H38128185   0.708   5.529   4.545  0.2203  2.5762 -0.4304
   43MOL   H38228186   0.616   5.524   4.701 -0.4003 -1.3988 -1.9925
   43MOL   H38328187   0.830   5.503   4.832 -0.0637  3.3661  0.1866
   43MOL   H38428188   0.927   5.508   4.688  0.5112 -0.2775  0.3987
   43MOL   H38528189   0.741   5.290   4.762 -1.0841 -1.4655 -2.6093
   43MOL   H38628190   0.919   5.289   4.757  0.4781  1.1644  0.5271
   43MOL   H38728191   0.740   5.308   4.509 -0.4227 -0.1520 -0.1058
   43MOL   H38828192   0.913   5.313   4.506 -0.8881  3.1451  0.1232
   43MOL   H38928193   0.814   5.083   4.458  1.9781  3.5149 -1.3210
   43MOL   H39028194   0.779   5.065   4.626 -0.3041  0.2273  1.0705
   43MOL   H39128195   1.056   5.097   4.520 -1.8456  2.6696 -0.6649
   43MOL   H39228196   1.017   5.102   4.694 -1.4382  0.0588  0.7568
   43MOL   H39328197   0.916   4.876   4.677  1.1242  0.4604  0.4485
   43MOL   H39428198   0.961   4.870   4.507 -2.1673 -1.1470  1.1538
   43MOL   H39528199   1.153   4.897   4.746  1.9165  0.0939 -0.2325
   43MOL   H39628200   1.207   4.875   4.580 -0.9632  3.1986 -0.6758
   43MOL   H39728201   1.119   4.745   4.653  0.9760  0.3719 -1.7503
   43MOL   C39828202   0.581   5.912   4.615  0.3118  0.7023 -0.9696
   43MOL   C39928203   0.490   5.913   4.740  0.3552  0.3774  0.2374
   43MOL   C40028204   0.348   5.891   4.708  0.1357  0.6071  0.0869
   43MOL   C40128205   0.269   6.010   4.646 -0.0660  0.0685  0.4889
   43MOL   C40228206   0.125   5.979   4.601  0.4739  0.7369  0.3647
   43MOL   C40328207   0.027   6.093   4.605 -0.5579  0.2250  0.3553
   43MOL   C40428208   7.595   6.054   4.539 -0.4080 -0.0903  0.2148
   43MOL   C40528209   7.517   6.188   4.506  0.2354 -0.4114 -0.7276
   43MOL   C40628210   7.379   6.150   4.465 -0.8340  0.4008  0.1750
   43MOL   C40728211   7.291   6.267   4.430 -0.8958  0.2838  0.6843
   43MOL   C40828212   7.156   6.226   4.372  0.2762  0.1944 -0.0662
   43MOL   H40928213   0.528   5.959   4.532 -0.1260 -0.3105 -1.2671
   43MOL   H41028214   0.662   5.983   4.633  0.7155 -0.0788  0.3157
   43MOL   H41128215   0.533   5.829   4.795 -1.2551 -1.1824 -0.8316
   43MOL   H41228216   0.301   5.853   4.799  0.4979 -1.2084 -0.4561
   43MOL   H41328217   0.342   5.807   4.637  1.3214  1.3459 -0.9056
   43MOL   H41428218   0.252   6.081   4.727  2.0734  2.3088 -0.9292
   43MOL   H41528219   0.321   6.060   4.564  0.2351  0.4589  0.9182
   43MOL   H41628220   0.130   5.941   4.499 -1.5633 -0.9359  0.8471
   43MOL   H41728221   0.095   5.892   4.660 -0.2736 -0.0662 -1.1944
   43MOL   H41828222   0.061   6.178   4.546 -0.4382  0.2507  0.4613
   43MOL   H41928223   0.015   6.131   4.707 -2.7111 -3.4552  1.5855
   43MOL   H42028224   7.607   5.992   4.451  1.9107  2.0325 -1.0344
   43MOL   H42128225   7.540   6.000   4.615  2.0598 -1.2544  1.2314
   43MOL   H42228226   7.568   6.238   4.424 -0.6384  0.0697 -0.9735
   43MOL   H42328227   7.529   6.257   4.590 -2.2166 -1.3381  0.4434
   43MOL   H42428228   7.382   6.082   4.380  1.4661  0.7965 -0.0865
   43MOL   H42528229   7.333   6.097   4.548  0.0478  0.9863  1.0513
   43MOL   H42628230   7.346   6.335   4.366 -0.1781 -0.2775  0.6971
   43MOL   H42728231   7.288   6.320   4.526  0.2029  3.5563 -1.0337
   43MOL   H42828232   7.123   6.290   4.290 -2.3296  1.5962  2.0054
   43MOL   H42928233   7.070   6.226   4.439 -0.1156  1.4330 -0.5612
   43MOL   H43028234   7.160   6.130   4.319 -2.7240  0.1813 -0.3738
   43MOL   C43128235   0.519   6.039   4.825 -0.3349  0.0615  0.4709
   43MOL   C43228236   0.445   6.055   4.965  0.8926  0.1216 -0.2916
   43MOL   C43328237   0.439   6.208   5.010  0.6418  0.2440 -0.0968
   43MOL   C43428238   0.344   6.291   4.926 -0.8810  0.0855 -0.4432
   43MOL   C43528239   0.316   6.440   4.969 -0.2145  0.8966 -0.5498
   43MOL   C43628240   0.227   6.507   4.861  0.0506 -0.3895 -0.1412
   43MOL   C43728241   0.195   6.651   4.902 -0.3195  0.2531  0.1056
   43MOL   C43828242   0.102   6.672   5.023  0.1928  0.9483  1.2769
   43MOL   C43928243   7.663   6.614   5.017  0.0571 -0.0070  0.2489
   43MOL   C44028244   7.586   6.664   5.144  0.3561 -0.6297  0.4198
   43MOL   C44128245   7.445   6.603   5.142 -0.4795 -0.4529 -0.0755
   43MOL   H44228246   0.487   6.122   4.762 -0.8310 -0.0827  0.5274
   43MOL   H44328247   0.627   6.047   4.837 -0.3170 -1.3506  1.4207
   43MOL   H44428248   0.339   6.031   4.958  0.6606  1.5364 -1.9148
   43MOL   H44528249   0.420   6.214   5.117 -0.0472  0.1874 -0.2157
   43MOL   H44628250   0.541   6.247   5.008  0.4063  1.0185  1.7701
   43MOL   H44728251   0.252   6.244   4.892 -0.0414 -0.2745 -2.3289
   43MOL   H44828252   0.388   6.300   4.826 -0.7538 -1.4643 -0.5391
   43MOL   H44928253   0.408   6.497   4.987 -1.0661  1.9132  0.6404
   43MOL   H45028254   0.271   6.428   5.068  0.0139  1.1146 -0.4187
   43MOL   H45128255   0.141   6.448   4.828 -0.3480  1.6646 -3.0194
   43MOL   H45228256   0.280   6.517   4.766 -0.6153 -1.2659 -0.6207
   43MOL   H45328257   0.149   6.706   4.820 -0.2372  0.8357  0.4490
   43MOL   H45428258   0.280   6.713   4.927 -2.1865  3.0575 -0.2397
   43MOL   H45528259   0.148   6.640   5.116 -0.7250 -1.1158  1.0464
   43MOL   H45628260   0.107   6.781   5.020  2.4425  0.9255  2.6745
   43MOL   H45728261   7.676   6.506   5.017 -2.0448 -0.2798 -0.5077
   43MOL   H45828262   7.617   6.642   4.922  3.3731  0.0289 -1.4165
   43MOL   H45928263   7.586   6.773   5.139 -1.3351 -0.6898 -1.5487
   43MOL   H46028264   7.634   6.635   5.237 -0.1453  0.0730  0.9031
   43MOL   H46128265   7.383   6.638   5.224  0.0431 -1.9397  0.9599
   43MOL   H46228266   7.396   6.623   5.046 -1.2399 -3.0469 -0.2674
   43MOL   H46328267   7.449   6.494   5.140 -0.5722 -0.4457 -1.1514
   43MOL   C46428268   0.513   5.981   5.074 -0.0517 -0.7228 -0.2122
   43MOL   C46528269   0.421   5.948   5.191  0.2534  0.2782  0.0363
   43MOL   C46628270   0.376   5.805   5.192 -0.0242 -0.1587 -0.2722
   43MOL   C46728271   0.228   5.802   5.239 -0.6591  0.0565  0.7945
   43MOL   C46828272   0.176   5.659   5.240  0.1194  0.2940 -0.0827
   43MOL   C46928273   0.161   5.591   5.104 -0.3313 -0.1986  0.4802
   43MOL   C47028274   0.071   5.473   5.113 -0.2466  0.2571 -0.3174
   43MOL   C47128275   0.059   5.413   4.971  0.1197 -0.0411 -0.4033
   43MOL   C47228276   7.675   5.486   4.868 -0.2340  0.1140 -0.4750
   43MOL   C47328277   0.040   5.592   4.781 -0.4351  0.2087  0.3524
   43MOL   C47428278   0.146   5.538   4.691 -0.3328  0.1929 -0.3850
   43MOL   H47528279   0.603   6.032   5.109  0.1086 -1.7501  0.8844
   43MOL   H47628280   0.568   5.889   5.051  2.1609  0.4057  0.4272
   43MOL   H47728281   0.330   6.008   5.185 -1.1194 -1.7664 -0.1074
   43MOL   H47828282   0.435   5.735   5.250 -1.2606 -1.2425 -0.3034
   43MOL   H47928283   0.363   5.761   5.093 -0.5947 -0.3819 -0.0967
   43MOL   H48028284   0.208   5.845   5.337  1.0452  1.7987  0.4001
   43MOL   H48128285   0.162   5.867   5.182  3.0399  0.9989 -2.6767
   43MOL   H48228286   0.079   5.656   5.290  0.2353  1.0563  0.1991
   43MOL   H48328287   0.249   5.601   5.296 -1.7900 -1.0840  1.0604
   43MOL   H48428288   0.125   5.666   5.033 -1.7666 -1.4861 -0.1868
   43MOL   H48528289   0.260   5.562   5.069  0.0866  0.4012  1.1555
   43MOL   H48628290   0.110   5.388   5.170 -2.3364  1.0567  2.4016
   43MOL   H48728291   7.677   5.494   5.156  0.8842  1.3594  1.7907
   43MOL   H48828292   0.157   5.394   4.928  0.3799 -2.7658  1.2445
   43MOL   H48928293   0.022   5.311   4.980  0.9952 -0.4318 -1.1413
   43MOL   H49028294   7.618   5.417   4.806  0.0289 -0.5720  0.0394
   43MOL   H49128295   7.593   5.526   4.927 -0.1525 -0.4133  0.0008
   43MOL   H49228296   7.664   5.637   4.720 -0.8065  0.3832  0.9600
   43MOL   H49328297   0.082   5.681   4.828 -2.1819 -0.1321  2.6675
   43MOL   H49428298   0.158   5.593   4.598  3.1373  1.4338  0.7364
   43MOL   H49528299   0.126   5.436   4.658 -0.2782  0.2756 -0.6699
   43MOL   H49628300   0.235   5.524   4.752  0.0025 -0.0150 -0.9193
   43MOL   C49728301   0.495   5.982   5.322 -0.3668  0.3279  0.0471
   43MOL   C49828302   0.518   6.126   5.375  0.0456  0.5119  0.7801
   43MOL   C49928303   0.625   6.123   5.482  0.4212 -0.0378 -0.3204
   43MOL   C50028304   0.767   6.087   5.433 -0.1590 -0.2247 -0.3678
   43MOL   C50128305   0.820   6.191   5.333  0.7183 -0.0629 -0.2728
   43MOL   C50228306   0.962   6.158   5.271  0.3703  0.0744  0.0541
   43MOL   C50328307   0.963   6.071   5.145  0.5433 -0.0380  0.0925
   43MOL   C50428308   0.916   6.147   5.016 -0.2547 -0.3752 -0.0530
   43MOL   C50528309   0.966   6.064   4.893  0.0421 -0.5079 -0.1890
   43MOL   C50628310   0.917   6.118   4.759  1.6596 -0.1963 -0.1425
   43MOL   C50728311   0.958   6.049   4.637 -0.6994  0.1423 -0.0758
   43MOL   H50828312   0.430   5.932   5.393  1.4647 -2.0498  0.1112
   43MOL   H50928313   0.590   5.928   5.330 -0.8140 -0.4168  0.3169
   43MOL   H51028314   0.554   6.194   5.297 -3.5980  0.0684 -1.3762
   43MOL   H51128315   0.608   6.037   5.547 -1.7713  0.1834 -0.5580
   43MOL   H51228316   0.637   6.210   5.546 -1.2898  0.1146 -0.2016
   43MOL   H51328317   0.771   5.991   5.381 -1.0364 -1.0757  1.0933
   43MOL   H51428318   0.828   6.085   5.523 -1.2253 -4.0509  0.3664
   43MOL   H51528319   0.755   6.206   5.247  0.7883  2.0937  0.0233
   43MOL   H51628320   0.811   6.286   5.386  1.7455 -1.4277  2.4542
   43MOL   H51728321   1.019   6.248   5.248  0.0937  0.0306 -0.8029
   43MOL   H51828322   1.021   6.114   5.351  0.8354 -0.1917 -0.4378
   43MOL   H51928323   1.068   6.044   5.134  0.3722 -0.6664 -0.0055
   43MOL   H52028324   0.909   5.977   5.140  1.2810 -0.4411 -0.4840
   43MOL   H52128325   0.949   6.251   5.017  0.6755 -0.6733  0.3211
   43MOL   H52228326   0.807   6.146   5.015 -0.2695  0.0841  0.7538
   43MOL   H52328327   0.934   5.961   4.907 -1.4822 -0.0699 -0.3123
   43MOL   H52428328   1.074   6.050   4.884  0.3237  1.2720  0.3198
   43MOL   H52528329   0.950   6.222   4.762 -2.0962  1.0378  0.8752
   43MOL   H52628330   0.809   6.126   4.760  1.6464 -0.4032  0.0620
   43MOL   H52728331   1.050   6.091   4.596 -0.7041  0.4481  0.2205
   43MOL   H52828332   0.875   6.052   4.567  0.9440  2.0479 -2.0231
   43MOL   H52928333   0.986   5.945   4.652 -2.6035 -0.1144  1.8644
   43MOL   C53028334   0.373   6.188   5.407 -0.4538 -0.0153  0.4388
   43MOL   C53128335   0.373   6.330   5.469 -0.3501 -0.2191 -0.0436
   43MOL   C53228336   0.237   6.352   5.540  0.4468 -0.0616  0.6502
   43MOL   C53328337   0.113   6.399   5.465 -0.3503 -1.2401 -0.1333
   43MOL   C53428338   7.687   6.358   5.533  0.4594 -0.0489 -0.0307
   43MOL   C53528339   7.668   6.451   5.655  0.5507 -0.4197  0.8399
   43MOL   C53628340   7.559   6.404   5.761 -0.1470  0.0468  0.8451
   43MOL   C53728341   7.603   6.283   5.837 -0.7100  0.1221 -0.3948
   43MOL   C53828342   7.493   6.257   5.943 -0.4026 -0.1398 -0.0789
   43MOL   C53928343   7.361   6.194   5.888  0.2432 -0.4508  0.1986
   43MOL   C54028344   7.386   6.082   5.798 -0.3722 -0.1985  0.7932
   43MOL   H54128345   0.316   6.191   5.314 -1.0398 -0.8997  0.7594
   43MOL   H54228346   0.328   6.116   5.475 -0.9019 -1.1641 -1.0216
   43MOL   H54328347   0.447   6.316   5.548  0.3775  0.4828 -0.5776
   43MOL   H54428348   0.259   6.425   5.618  1.3307  0.8826 -0.4516
   43MOL   H54528349   0.215   6.266   5.603 -0.7290  2.3057  3.5994
   43MOL   H54628350   0.115   6.370   5.360  0.5733 -0.8334 -0.2345
   43MOL   H54728351   0.109   6.508   5.451 -0.7881 -1.5574 -2.7680
   43MOL   H54828352   7.687   6.252   5.560 -0.6249 -1.0550 -3.6612
   43MOL   H54928353   7.608   6.375   5.460 -0.9407 -3.3381  0.6214
   43MOL   H55028354   7.641   6.551   5.621 -0.0166 -0.1567  2.0348
   43MOL   H55128355   0.054   6.475   5.711  0.5262 -1.4414  1.3195
   43MOL   H55228356   7.471   6.375   5.702 -1.6161  1.7424  2.1302
   43MOL   H55328357   7.523   6.486   5.824  1.9933  2.8392 -1.4533
   43MOL   H55428358   7.694   6.298   5.895 -1.4632 -1.6453  1.3035
   43MOL   H55528359   7.625   6.202   5.768 -2.3126 -1.4337  0.8600
   43MOL   H55628360   7.453   6.346   5.992  2.0460  0.1249  1.5348
   43MOL   H55728361   7.520   6.192   6.027  2.9315  1.1890 -0.0799
   43MOL   H55828362   7.305   6.274   5.840  1.0045  0.1471  0.3018
   43MOL   H55928363   7.294   6.164   5.970 -0.7943  1.2925  0.0229
   43MOL   H56028364   7.410   6.119   5.698 -0.3970 -2.2457  0.0140
   43MOL   H56128365   7.455   6.010   5.842 -0.3415 -0.0259  1.0288
   43MOL   H56228366   7.288   6.034   5.792  0.3141 -1.5655  0.4355
   43MOL   C56328367   0.420   6.441   5.380  1.0295 -0.4738 -0.1447
   43MOL   C56428368   0.473   6.571   5.444 -0.0208  0.2917  0.1699
   43MOL   C56528369   0.370   6.665   5.501  0.0523 -0.0867 -0.1959
   43MOL   C56628370   0.440   6.762   5.611  0.1168 -0.3162 -0.1753
   43MOL   C56728371   0.353   6.887   5.633 -0.6506  0.3917 -0.3067
   43MOL   C56828372   0.385   6.963   5.763  0.4298  0.7326 -0.4031
   43MOL   C56928373   0.521   7.044   5.751 -0.2505 -0.3861  0.0661
   43MOL   C57028374   0.541   7.123   5.878 -0.6631 -0.1064  0.0405
   43MOL   C57128375   0.665   7.211   5.871 -0.1928 -0.1291  0.2190
   43MOL   C57228376   0.702   7.262   6.007 -0.3542  0.1159 -0.6977
   43MOL   C57328377   0.818   7.351   6.009  0.2240 -0.0201  0.5848
   43MOL   H57428378   0.334   6.470   5.319 -1.0423 -2.1925  1.8811
   43MOL   H57528379   0.495   6.409   5.308  2.0496 -0.5917  0.9565
   43MOL   H57628380   0.539   6.540   5.524 -1.0102 -1.8323  0.1933
   43MOL   H57728381   0.279   6.616   5.534 -0.2892  1.3615  1.0611
   43MOL   H57828382   0.327   6.726   5.421 -0.6386  0.9971  0.9767
   43MOL   H57928383   0.539   6.786   5.573  0.1544  1.1318  0.8299
   43MOL   H58028384   0.447   6.703   5.702  2.1625 -2.0669 -1.4062
   43MOL   H58128385   0.250   6.852   5.629 -0.9153  1.2524 -1.3244
   43MOL   H58228386   0.365   6.955   5.549 -1.6277 -0.8831 -1.4923
   43MOL   H58328387   0.299   7.025   5.787  0.1589  0.1825  0.0494
   43MOL   H58428388   0.402   6.897   5.848 -1.8097  0.9897  0.2700
   43MOL   H58528389   0.600   6.972   5.728 -0.1345 -0.5359  0.9071
   43MOL   H58628390   0.510   7.113   5.668  0.3910  1.0394  1.1437
   43MOL   H58728391   0.547   7.055   5.964 -1.7592  0.8237  0.8717
   43MOL   H58828392   0.461   7.192   5.905 -1.3680 -0.8748 -0.0853
   43MOL   H58928393   0.656   7.298   5.805 -1.4409  0.8405  1.6216
   43MOL   H59028394   0.752   7.165   5.824  0.1040 -0.4695  1.0927
   43MOL   H59128395   0.726   7.177   6.071 -0.1615  0.4116 -0.3733
   43MOL   H59228396   0.614   7.308   6.050 -0.5616 -0.5357 -0.4156
   43MOL   H59328397   0.808   7.430   5.935 -0.5345  0.1676  0.8874
   43MOL   H59428398   0.830   7.392   6.110 -0.5227  1.2663  0.1715
   43MOL   H59528399   0.904   7.290   5.981  0.1756 -1.8815  4.1527
   43MOL   C59628400   0.556   6.650   5.332 -0.4079  0.0746 -0.1963
   43MOL   C59728401   0.707   6.595   5.326 -0.0038 -0.2501 -0.7774
   43MOL   C59828402   0.788   6.667   5.436 -0.8862 -0.4760  0.6463
   43MOL   C59928403   0.833   6.815   5.396 -0.1460  0.1423 -0.6936
   43MOL   C60028404   0.913   6.880   5.512 -0.4853  0.2743 -0.0830
   43MOL   C60128405   0.943   7.027   5.474  0.1845  0.2589  0.5623
   43MOL   C60228406   0.818   7.117   5.454  0.2935  0.2037  0.7745
   43MOL   C60328407   0.834   7.270   5.473  0.2539 -0.3598  0.4261
   43MOL   C60428408   0.713   7.347   5.499  0.0061  0.5036 -0.5945
   43MOL   C60528409   0.611   7.343   5.378 -0.5226  0.6272  0.4741
   43MOL   C60628410   0.484   7.419   5.402  0.4617 -0.5204  0.6250
   43MOL   H60728411   0.506   6.630   5.237  0.8107 -2.7372 -0.2835
   43MOL   H60828412   0.553   6.756   5.356 -0.3491  0.1844 -0.6640
   43MOL   H60928413   0.696   6.488   5.346  1.9175 -0.8892 -2.9606
   43MOL   H61028414   0.865   6.598   5.470 -0.8522 -1.0355 -0.5450
   43MOL   H61128415   0.726   6.676   5.525 -0.7054  0.6678  0.6565
   43MOL   H61228416   0.744   6.872   5.371  0.9720  1.7749 -1.0604
   43MOL   H61328417   0.900   6.832   5.312  0.2799 -0.6160 -0.5060
   43MOL   H61428418   1.006   6.824   5.511 -0.2363  0.6687 -3.1820
   43MOL   H61528419   0.872   6.874   5.613 -0.5004  0.3842 -0.0831
   43MOL   H61628420   0.988   7.062   5.568  0.6107  0.0634  0.4307
   43MOL   H61728421   1.008   7.033   5.387 -0.0711 -3.9743  0.0052
   43MOL   H61828422   0.744   7.080   5.525 -0.6025  0.9898  0.2712
   43MOL   H61928423   0.778   7.110   5.353  0.4236 -1.6181  0.8370
   43MOL   H62028424   0.874   7.307   5.379  1.1529  1.2925  1.4279
   43MOL   H62128425   0.913   7.288   5.547  1.1529  0.5817 -0.7310
   43MOL   H62228426   0.662   7.305   5.585  0.4210  0.4828 -0.3548
   43MOL   H62328427   0.745   7.446   5.531  1.3409  0.0351 -0.4299
   43MOL   H62428428   0.588   7.240   5.349  2.0073  0.3892 -0.8670
   43MOL   H62528429   0.650   7.388   5.287 -1.4595  0.6728  0.0896
   43MOL   H62628430   0.432   7.428   5.306  1.7948 -1.3136 -0.1872
   43MOL   H62728431   0.409   7.367   5.462  0.6271 -1.1200  0.3180
   43MOL   H62828432   0.494   7.524   5.432 -0.0176 -0.1962 -0.3220
   43MOL   C62928433   0.775   6.607   5.185 -0.2521  0.2731 -0.9060
   43MOL   C63028434   0.717   6.528   5.072 -0.4656 -0.4461  0.4090
   43MOL   C63128435   0.799   6.551   4.944 -0.9101  0.0270 -0.4317
   43MOL   C63228436   0.746   6.465   4.834 -0.1078 -0.1756  0.6733
   43MOL   C63328437   0.816   6.484   4.700  0.2898  0.0261  0.5814
   43MOL   C63428438   0.747   6.401   4.587  0.6737  0.0895 -0.1725
   43MOL   C63528439   0.601   6.441   4.557  0.1428 -0.4473 -0.2468
   43MOL   C63628440   0.554   6.359   4.441 -0.9082 -0.0854  0.1055
   43MOL   C63728441   0.421   6.410   4.384 -0.0321 -0.1267 -0.3504
   43MOL   C63828442   0.366   6.326   4.265 -0.4473  0.4983 -0.2980
   43MOL   C63928443   0.289   6.198   4.309  0.4916 -0.4416 -0.3215
   43MOL   H64028444   0.766   6.713   5.161 -0.9990  0.4534  0.1179
   43MOL   H64128445   0.882   6.592   5.193  0.2997  3.8529 -0.5046
   43MOL   H64228446   0.726   6.420   5.080 -0.2405 -0.7430 -2.8609
   43MOL   H64328447   0.795   6.656   4.915  0.5922  0.1111 -0.3846
   43MOL   H64428448   0.902   6.525   4.965 -1.1129 -0.6101 -0.2196
   43MOL   H64528449   0.642   6.495   4.819  0.4208  1.1546 -0.4294
   43MOL   H64628450   0.757   6.360   4.862 -2.0385 -0.1807  1.5018
   43MOL   H64728451   0.921   6.466   4.721  0.6933  2.3910  0.7059
   43MOL   H64828452   0.821   6.589   4.671 -0.8881 -0.0097  0.2189
   43MOL   H64928453   0.741   6.300   4.626 -1.3470  0.9442  1.8541
   43MOL   H65028454   0.807   6.393   4.497  0.8437 -0.5064 -0.0081
   43MOL   H65128455   0.592   6.549   4.540  1.1755 -0.5694 -1.6328
   43MOL   H65228456   0.547   6.413   4.647  0.9401 -2.8275 -0.4684
   43MOL   H65328457   0.539   6.257   4.476 -1.6745 -0.0399 -0.0883
   43MOL   H65428458   0.627   6.356   4.361 -0.2817  1.6655  0.5959
   43MOL   H65528459   0.452   6.512   4.360  1.4053 -0.6764 -0.8767
   43MOL   H65628460   0.344   6.413   4.461  1.6258  2.5577  1.3115
   43MOL   H65728461   0.454   6.295   4.208 -0.6761  0.0081 -0.3894
   43MOL   H65828462   0.294   6.382   4.205 -2.7931 -2.7286 -0.6033
   43MOL   H65928463   0.250   6.154   4.217  1.1663 -2.8610  0.5147
   43MOL   H66028464   0.206   6.226   4.374 -0.9215 -2.9913 -0.9689
   43MOL   H66128465   0.351   6.124   4.358 -0.0819  0.3341  1.6181
   43MOL   H66228466   0.611   6.540   5.047 -0.6176 -1.2101  0.6749
   44MOL     C128467   7.350   0.342   0.574 -0.2859 -0.0419  0.7429
   44MOL     C228468   7.404   0.474   0.523 -0.0527  0.2631 -0.3896
   44MOL     C328469   7.290   0.575   0.523  0.2187 -0.3756 -0.0884
   44MOL     C428470   7.310   0.692   0.421  0.4152 -0.1448 -0.8781
   44MOL     C528471   7.291   0.653   0.276  0.9860  0.7380  0.0712
   44MOL     C628472   7.158   0.582   0.235 -0.3055  0.4991  0.3259
   44MOL     C728473   7.022   0.648   0.271  0.5736  0.1449 -0.3983
   44MOL     C828474   6.899   0.573   0.222  0.6667  1.0863 -0.2155
   44MOL     C928475   6.846   0.481   0.323  0.8741 -0.0282 -0.2049
   44MOL    C1028476   6.720   0.407   0.269 -0.7800  0.1920  0.1747
   44MOL    C1128477   6.644   0.322   0.367  0.3366  0.0686  0.3452
   44MOL    H1228478   7.420   0.258   0.577 -1.1686 -0.7856  0.8094
   44MOL    H1328479   7.272   0.304   0.508 -0.8907  1.6902  0.4588
   44MOL    H1428480   7.435   0.462   0.419 -2.0857 -1.5506 -0.8350
   44MOL    H1528481   7.277   0.625   0.619 -0.3807  0.5483 -0.6350
   44MOL    H1628482   7.188   0.538   0.513  0.3200 -0.0829 -2.4498
   44MOL    H1728483   7.407   0.740   0.414 -0.0288  0.8124 -0.5410
   44MOL    H1828484   7.238   0.765   0.459  0.3896 -0.0328 -1.1379
   44MOL    H1928485   7.306   0.749   0.225 -0.0110 -0.2188 -2.0837
   44MOL    H2028486   7.373   0.585   0.252  0.1811 -0.2311  0.0223
   44MOL    H2128487   7.158   0.487   0.288  0.0463  0.3605  0.0778
   44MOL    H2228488   7.154   0.569   0.127 -1.2782 -1.0879  0.5375
   44MOL    H2328489   7.017   0.661   0.379 -0.3365 -2.3787 -0.1113
   44MOL    H2428490   7.025   0.744   0.219 -2.0980 -0.3624 -1.5763
   44MOL    H2528491   6.921   0.519   0.131 -0.3252  0.9011 -0.3537
   44MOL    H2628492   6.822   0.644   0.190 -0.3006  0.0665 -0.1952
   44MOL    H2728493   6.822   0.546   0.406 -0.3385 -0.0426 -0.5316
   44MOL    H2828494   6.924   0.412   0.357 -1.5006 -0.3105  5.1313
   44MOL    H2928495   6.751   0.346   0.184 -0.9088  2.4619 -1.5489
   44MOL    H3028496   6.652   0.479   0.224  0.0916 -0.7648 -2.7614
   44MOL    H3128497   6.718   0.258   0.414  0.0429 -0.5609 -0.0471
   44MOL    H3228498   6.581   0.380   0.435  0.5776  0.3337  0.3443
   44MOL    H3328499   6.580   0.252   0.314 -1.9993  1.3570  1.3645
   44MOL    H3428500   7.308   0.352   0.674 -1.4210 -0.5300  0.3246
   44MOL    C3528501   7.513   0.530   0.615 -0.1520  0.2922 -0.1191
   44MOL    C3628502   7.660   0.472   0.613 -0.2956 -0.4204  0.6480
   44MOL    C3728503   0.035   0.528   0.491  0.0424 -0.0682 -1.0307
   44MOL    C3828504   0.168   0.452   0.473 -0.6550 -0.2020  0.5244
   44MOL    C3928505   0.152   0.298   0.454  0.1781  0.0993  0.8672
   44MOL    C4028506   0.285   0.240   0.393 -0.0865 -0.0601 -0.1288
   44MOL    C4128507   0.291   0.091   0.381  0.0233 -0.1068 -0.3272
   44MOL    C4228508   0.437   0.037   0.375 -0.7219  0.4358  0.1500
   44MOL    C4328509   0.444   7.590   0.350 -0.9141 -0.3278 -0.3754
   44MOL    C4428510   0.580   7.540   0.313 -0.2418  0.1653 -0.4200
   44MOL    C4528511   0.579   7.419   0.225  0.3751  0.0665 -0.0159
   44MOL    H4628512   7.480   0.539   0.719 -1.4395  1.0007 -0.5778
   44MOL    H4728513   7.517   0.638   0.598  1.0042  0.4357  0.9241
   44MOL    H4828514   7.654   0.364   0.615  0.2216 -0.4745 -0.1970
   44MOL    H4928515   7.677   0.526   0.401 -2.1114  1.1624  0.3693
   44MOL    H5028516   0.065   0.633   0.493  0.2627 -0.1536  0.1532
   44MOL    H5128517   0.248   0.469   0.545  0.7157 -3.7668 -0.0535
   44MOL    H5228518   0.207   0.485   0.376 -0.2830 -0.3269  0.6287
   44MOL    H5328519   0.074   0.278   0.381  0.4434  0.3591  0.5102
   44MOL    H5428520   0.133   0.249   0.549  1.0979  0.1685  1.0864
   44MOL    H5528521   0.367   0.262   0.461 -0.4354 -1.0915  0.6289
   44MOL    H5628522   0.312   0.290   0.300  0.5295  0.0578  0.1124
   44MOL    H5728523   0.238   0.041   0.462  0.4948 -2.5017 -1.4581
   44MOL    H5828524   0.239   0.075   0.287  0.1746 -1.6185 -0.1580
   44MOL    H5928525   0.478   0.064   0.472 -0.5345 -1.6010  0.6607
   44MOL    H6028526   0.504   0.098   0.315  2.2502 -0.5410  2.3372
   44MOL    H6128527   0.368   7.556   0.279 -0.9432  2.8062 -1.9485
   44MOL    H6228528   0.420   7.537   0.442  2.6269  0.3214  0.9871
   44MOL    H6328529   0.621   7.620   0.251 -0.3818 -0.3218 -1.1388
   44MOL    H6428530   0.663   7.529   0.384  0.3529 -0.0408 -1.1379
   44MOL    H6528531   0.681   7.399   0.192  0.6842  0.4165  0.7182
   44MOL    H6628532   0.539   7.325   0.263 -0.5239  0.1618 -0.6960
   44MOL    H6728533   0.519   7.434   0.135  1.3927  2.0824 -0.3860
   44MOL    C6828534   0.032   0.516   0.740  0.5209 -0.1537  0.1166
   44MOL    C6928535   7.691   0.480   0.887  0.4709  0.3143  0.3320
   44MOL    C7028536   7.635   0.334   0.891  0.0924  0.0846 -0.1898
   44MOL    C7128537   7.541   0.288   0.994 -0.5947 -0.5261  0.2041
   44MOL    C7228538   7.402   0.354   0.979 -0.1832  0.1227 -0.1186
   44MOL    C7328539   7.317   0.351   1.103 -0.4936 -0.2412  0.0457
   44MOL    C7428540   7.178   0.410   1.081 -0.1540 -1.3255  0.1197
   44MOL    C7528541   7.181   0.572   1.067  0.5130  0.1734  0.4108
   44MOL    C7628542   7.049   0.633   1.018 -0.3932  0.1462  0.4006
   44MOL    C7728543   7.067   0.774   0.965  0.5716  0.1130 -0.1444
   44MOL    C7828544   6.926   0.822   0.934  0.0120 -0.0113  0.4914
   44MOL    H7928545   0.046   0.625   0.738 -0.2474 -0.0112  1.6399
   44MOL    H8028546   0.132   0.474   0.737  0.5676  0.0314 -1.2529
   44MOL    H8128547   7.605   0.544   0.911 -1.4067 -1.2038 -2.1712
   44MOL    H8228548   0.018   0.268   0.892 -0.7627 -1.0212  1.3996
   44MOL    H8328549   7.581   0.308   0.800  0.2650 -1.8477  0.2541
   44MOL    H8428550   7.518   0.182   0.993  1.3927 -0.9559 -1.2221
   44MOL    H8528551   7.588   0.311   1.090 -0.3953  2.0213 -0.4619
   44MOL    H8628552   7.355   0.312   0.890 -0.6134 -0.5842  0.4337
   44MOL    H8728553   7.425   0.456   0.950 -0.8477  0.5669  0.8928
   44MOL    H8828554   7.298   0.245   1.124 -1.6427  0.2509  1.6219
   44MOL    H8928555   7.370   0.395   1.187 -2.5475  2.3583  0.0540
   44MOL    H9028556   7.099   0.373   1.146 -1.6768  0.0714 -0.8971
   44MOL    H9128557   7.135   0.382   0.985  0.5640 -2.3432  0.0886
   44MOL    H9228558   7.204   0.630   1.156 -0.1545  1.4550 -0.2508
   44MOL    H9328559   7.255   0.603   0.993 -0.4090 -0.4744 -0.7925
   44MOL    H9428560   6.998   0.582   0.937 -1.0930  1.9157 -0.2828
   44MOL    H9528561   6.986   0.641   1.106  0.0937 -4.4370  1.2835
   44MOL    H9628562   7.104   0.847   1.037  0.7510 -1.4202  1.3405
   44MOL    H9728563   7.137   0.778   0.881  1.5720  0.2782  0.6921
   44MOL    H9828564   6.867   0.821   1.026  1.2641  1.8927  1.3414
   44MOL    H9928565   6.888   0.780   0.841 -2.5250 -1.1159  1.9395
   44MOL   H10028566   6.935   0.928   0.910 -1.2966 -0.0934 -0.4302
   44MOL   C10128567   0.092   0.515   1.000  0.5930  0.2098 -0.1792
   44MOL   C10228568   0.162   0.655   1.008 -0.2121 -0.5495  0.2440
   44MOL   C10328569   0.314   0.645   1.048  0.6440 -0.7649  0.3741
   44MOL   C10428570   0.396   0.581   0.931 -0.2880 -0.7494 -1.0537
   44MOL   C10528571   0.536   0.647   0.910  0.4239 -0.0709  0.0792
   44MOL   C10628572   0.627   0.641   1.028 -1.0350  0.0777  0.1387
   44MOL   C10728573   0.768   0.709   0.991  0.7519 -0.5982 -0.5173
   44MOL   C10828574   0.869   0.676   1.091  0.0440  0.2108 -0.3999
   44MOL   C10928575   0.998   0.758   1.097 -0.6362  0.3634 -0.7234
   44MOL   C11028576   1.102   0.709   1.200  0.7188 -0.7119 -0.2131
   44MOL   C11128577   1.224   0.804   1.192 -0.1657  0.7286  0.1970
   44MOL   H11228578   0.054   0.501   1.102 -0.4133  1.6004 -0.3368
   44MOL   H11328579   0.174   0.447   0.978  0.9140  0.4083  0.3719
   44MOL   H11428580   0.183   0.697   0.909  1.3209  1.5580  1.4221
   44MOL   H11528581   0.358   0.744   1.056 -0.3770 -0.2238 -0.5803
   44MOL   H11628582   0.332   0.597   1.144 -1.1057 -1.2465  0.4924
   44MOL   H11728583   0.418   0.479   0.963 -0.5095 -0.2036  0.9129
   44MOL   H11828584   0.347   0.571   0.835 -1.8663 -1.2723 -0.2026
   44MOL   H11928585   0.571   0.592   0.823  1.2862 -0.4329  0.6500
   44MOL   H12028586   0.521   0.750   0.878 -2.0993 -0.1702  0.8142
   44MOL   H12128587   0.571   0.684   1.112 -2.3831  1.5468 -1.4697
   44MOL   H12228588   0.648   0.538   1.055  1.0366 -0.0743 -1.9058
   44MOL   H12328589   0.772   0.817   0.979  0.0067 -0.3905  1.0373
   44MOL   H12428590   0.810   0.680   0.894 -1.4747 -0.3450 -1.5912
   44MOL   H12528591   0.817   0.682   1.187  0.7705  0.3507 -0.0140
   44MOL   H12628592   0.904   0.572   1.085  1.9389  0.8797 -1.4643
   44MOL   H12728593   1.040   0.741   0.998  0.1910  0.1788 -0.3469
   44MOL   H12828594   0.975   0.864   1.112 -2.6980  0.0751 -1.6585
   44MOL   H12928595   1.136   0.611   1.166  0.0017 -1.2638  0.6404
   44MOL   H13028596   1.064   0.703   1.302 -0.6396 -1.3277 -0.7433
   44MOL   H13128597   1.315   0.773   1.244  0.5869  3.1133  0.3512
   44MOL   H13228598   1.260   0.799   1.090  1.2181 -1.3394  0.7505
   44MOL   H13328599   1.204   0.909   1.211 -1.3920 -0.0403  3.5347
   44MOL   C13428600   0.082   0.761   1.092  0.2232 -0.5508  0.6211
   44MOL   C13528601   7.645   0.807   1.051  0.6728 -0.1550  0.3678
   44MOL   C13628602   7.612   0.842   0.905  0.4968 -0.1574  0.0381
   44MOL   C13728603   7.464   0.826   0.868  0.4365 -0.3070 -0.6995
   44MOL   C13828604   7.429   0.873   0.726 -0.3536  0.2390  0.6435
   44MOL   C13928605   7.407   1.022   0.706 -1.0386 -0.0848 -0.5026
   44MOL   C14028606   7.313   1.055   0.587  1.0141 -0.1300 -0.3340
   44MOL   C14128607   7.162   1.015   0.610 -0.6275 -0.2873 -0.0496
   44MOL   C14228608   7.060   1.036   0.502  0.0033 -0.3975 -0.2728
   44MOL   C14328609   6.922   0.998   0.550 -0.3101  0.4158  0.8206
   44MOL   C14428610   6.890   0.850   0.555  0.3056 -0.3585 -0.1273
   44MOL   H14528611   0.085   0.723   1.194 -0.0615 -0.1642  0.7713
   44MOL   H14628612   0.129   0.858   1.076 -0.4173 -0.5980 -1.7088
   44MOL   H14728613   7.585   0.717   1.064 -0.7080  0.8846  1.4034
   44MOL   H14828614   7.673   0.776   0.843  0.7202 -2.5725  2.7255
   44MOL   H14928615   7.656   0.939   0.884  0.6337 -0.5075 -1.3631
   44MOL   H15028616   7.423   0.727   0.891  0.4467 -0.6796 -2.2348
   44MOL   H15128617   7.403   0.884   0.937 -0.9806 -0.4922 -1.7849
   44MOL   H15228618   7.501   0.838   0.652  0.4535 -1.2053  2.0845
   44MOL   H15328619   7.331   0.826   0.718 -0.4635  0.5270  0.2763
   44MOL   H15428620   7.367   1.061   0.799  1.0239  0.4566  0.1804
   44MOL   H15528621   7.503   1.072   0.691 -0.2062 -0.4964  2.9253
   44MOL   H15628622   7.317   1.159   0.557 -0.2251  0.6717  2.1674
   44MOL   H15728623   7.349   0.998   0.500 -2.3435 -1.1454 -1.1344
   44MOL   H15828624   7.156   0.910   0.636  0.5635 -0.1467  0.8219
   44MOL   H15928625   7.126   1.073   0.695 -2.5573 -0.8283 -0.4902
   44MOL   H16028626   7.060   1.141   0.472 -0.5833 -0.0233  1.0056
   44MOL   H16128627   7.079   0.976   0.413  0.5437  1.0889 -1.1818
   44MOL   H16228628   6.905   1.030   0.653 -0.5017 -0.7906  1.1765
   44MOL   H16328629   6.845   1.052   0.495  1.2733  2.6732  0.7602
   44MOL   H16428630   6.969   0.802   0.612  0.0005 -1.2256 -0.4254
   44MOL   H16528631   6.886   0.808   0.454 -0.6229  1.0652 -0.7133
   44MOL   H16628632   6.793   0.833   0.603 -0.8754  1.5902 -1.7211
   44MOL   C16728633   7.589   0.911   1.148  0.0684  0.1446 -0.2415
   44MOL   C16828634   7.572   0.879   1.299  0.4983  0.5114 -0.2304
   44MOL   C16928635   7.463   0.774   1.315 -0.1892  0.5082 -0.9874
   44MOL   C17028636   7.444   0.725   1.466  0.0343 -0.6606  1.1335
   44MOL   C17128637   7.525   0.599   1.503 -0.6827  0.2132 -0.6637
   44MOL   C17228638   7.677   0.611   1.499 -0.2311 -0.2660 -0.2646
   44MOL   C17328639   0.042   0.482   1.555  0.1083 -0.1125 -0.3343
   44MOL   C17428640   0.190   0.487   1.527 -0.0300 -0.7336 -0.2915
   44MOL   C17528641   0.275   0.575   1.626  0.1226  0.4195 -0.6927
   44MOL   C17628642   0.399   0.631   1.558  0.8869  0.2239 -0.9216
   44MOL   C17728643   0.481   0.718   1.651 -0.3377 -0.4926 -0.5070
   44MOL   H17828644   7.667   0.987   1.138  1.0203 -0.6087  1.3331
   44MOL   H17928645   7.498   0.959   1.111 -2.1306 -3.4621  0.3177
   44MOL   H18028646   7.669   0.835   1.324  0.0681 -0.7915 -0.8463
   44MOL   H18128647   7.476   0.693   1.243 -3.0316  0.0835 -1.1083
   44MOL   H18228648   7.374   0.830   1.285 -0.6888 -0.1984 -0.8482
   44MOL   H18328649   7.458   0.806   1.538 -0.8089 -0.9042  1.5835
   44MOL   H18428650   7.342   0.687   1.469  0.0192 -0.7240  0.0212
   44MOL   H18528651   7.497   0.523   1.430  0.8558 -1.3078  0.2838
   44MOL   H18628652   7.500   0.552   1.599  0.3653  0.9428 -0.0235
   44MOL   H18728653   0.009   0.617   1.396 -2.1895 -0.9057 -1.0040
   44MOL   H18828654   0.002   0.695   1.562  0.0685 -0.7385  0.2386
   44MOL   H18928655   7.702   0.403   1.494 -0.9378  0.9190 -0.9483
   44MOL   H19028656   0.015   0.468   1.660  1.6805  0.3594  0.1421
   44MOL   H19128657   0.231   0.387   1.545  1.9635  0.0945 -0.0964
   44MOL   H19228658   0.205   0.507   1.421 -1.7372 -2.2423 -0.8289
   44MOL   H19328659   0.311   0.508   1.704  1.3241  2.1109  0.2456
   44MOL   H19428660   0.207   0.650   1.669  0.0860  1.3168 -2.2773
   44MOL   H19528661   0.378   0.693   1.471 -1.7290 -0.7293 -1.0243
   44MOL   H19628662   0.454   0.545   1.519 -0.4674 -1.6749  1.1761
   44MOL   H19728663   0.437   0.803   1.702  0.8472 -0.9525  1.3586
   44MOL   H19828664   0.568   0.743   1.590  0.1253 -0.6568  0.0799
   44MOL   H19928665   0.525   0.664   1.735 -0.8228 -1.4151 -0.8298
   44MOL   C20028666   7.556   1.015   1.380 -0.0354  0.0011 -0.0247
   44MOL   C20128667   7.681   1.106   1.392  0.8661 -0.1887  0.5226
   44MOL   C20228668   0.065   1.060   1.509  0.6691 -0.0323 -0.2276
   44MOL   C20328669   0.206   1.117   1.515  0.1415  0.4707 -0.8964
   44MOL   C20428670   0.299   1.045   1.616  0.0501 -0.3456  0.2188
   44MOL   C20528671   0.446   1.091   1.617  0.2106 -0.3805 -0.0220
   44MOL   C20628672   0.517   1.058   1.485 -0.3731 -0.2934 -0.1470
   44MOL   C20728673   0.663   1.093   1.495 -0.6212  0.0087 -0.4429
   44MOL   C20828674   0.744   1.041   1.377 -0.0674 -0.2642 -0.4999
   44MOL   C20928675   0.891   1.073   1.377  0.1338 -0.0623 -0.5035
   44MOL   C21028676   0.974   0.997   1.478 -0.4151 -0.2574 -0.1566
   44MOL   H21128677   7.478   1.069   1.326 -0.3423 -0.1516  0.2628
   44MOL   H21228678   7.506   1.002   1.477 -0.5833  2.3879  0.0574
   44MOL   H21328679   0.034   1.099   1.298 -0.3461 -2.9368 -0.0556
   44MOL   H21428680   0.079   0.953   1.494 -0.3945  0.0419 -1.8119
   44MOL   H21528681   0.013   1.072   1.604  1.0735  0.6605 -0.0824
   44MOL   H21628682   0.201   1.222   1.541  2.0870 -0.2726  2.7954
   44MOL   H21728683   0.252   1.118   1.416 -1.9593  1.8433 -1.8961
   44MOL   H21828684   0.282   0.938   1.600  1.5040 -0.5317 -0.2002
   44MOL   H21928685   0.266   1.073   1.716 -1.6254  1.3853 -0.7967
   44MOL   H22028686   0.455   1.197   1.641  1.3322 -0.0827 -1.6989
   44MOL   H22128687   0.499   1.031   1.691  1.0660 -0.4157 -0.6679
   44MOL   H22228688   0.477   1.110   1.398  1.5011  1.3469 -0.0824
   44MOL   H22328689   0.519   0.951   1.467 -1.5741 -0.1493 -1.1793
   44MOL   H22428690   0.709   1.056   1.587 -1.7492 -1.0892 -0.3199
   44MOL   H22528691   0.680   1.200   1.510  2.5483 -0.7269  1.7468
   44MOL   H22628692   0.705   1.098   1.292 -0.6043 -0.3066 -0.2811
   44MOL   H22728693   0.728   0.934   1.367 -2.6024  0.1175 -0.7273
   44MOL   H22828694   0.921   1.036   1.278 -2.6146 -1.2488 -0.9325
   44MOL   H22928695   0.920   1.177   1.390  1.3395 -0.2985 -1.1623
   44MOL   H23028696   1.080   1.011   1.454 -0.3779 -0.4418 -0.0974
   44MOL   H23128697   0.952   0.891   1.471  0.4818 -0.6676  2.6262
   44MOL   H23228698   0.956   1.040   1.576 -0.1478 -0.6409  0.0627
   44MOL   C23328699   7.642   1.257   1.401  0.1077  0.2546  0.5216
   44MOL   C23428700   7.666   1.342   1.277 -0.2300 -0.4294 -0.7102
   44MOL   C23528701   7.657   1.490   1.313 -0.7040  0.0751  0.0398
   44MOL   C23628702   7.538   1.535   1.413  0.0912  0.0632 -0.2788
   44MOL   C23728703   7.526   1.690   1.430  0.1532  0.8365  0.2556
   44MOL   C23828704   7.453   1.719   1.563  0.8767 -0.3208  1.2332
   44MOL   C23928705   7.426   1.872   1.594 -0.5537  0.6287 -0.2434
   44MOL   C24028706   7.367   1.891   1.741  0.6665  0.3312 -0.8040
   44MOL   C24128707   7.329   2.038   1.766  0.2610 -0.1559  0.0237
   44MOL   C24228708   7.442   2.133   1.794  0.3557  0.0944 -0.1738
   44MOL   C24328709   7.521   2.102   1.924 -0.4832  0.7883 -0.2623
   44MOL   H24428710   7.684   1.305   1.490  1.4965 -0.1677  0.1064
   44MOL   H24528711   7.535   1.263   1.421 -0.2319  1.1228 -1.4497
   44MOL   H24628712   0.071   1.332   1.267 -0.1516 -0.3652  0.0736
   44MOL   H24728713   0.042   1.527   1.364  0.2759  0.7294 -2.0807
   44MOL   H24828714   7.641   1.548   1.223  0.1626  1.6703  0.8996
   44MOL   H24928715   7.556   1.496   1.513  2.9477  1.0820 -0.3487
   44MOL   H25028716   7.441   1.490   1.393 -1.0320  1.7956  1.2622
   44MOL   H25128717   7.468   1.737   1.351 -0.3996 -1.1976 -0.5845
   44MOL   H25228718   7.624   1.738   1.428 -0.4873  2.1392 -2.2352
   44MOL   H25328719   7.525   1.685   1.638  0.6097 -0.1266  1.5779
   44MOL   H25428720   7.367   1.653   1.556  0.8227  0.0260 -1.9756
   44MOL   H25528721   7.518   1.929   1.583  0.0831 -0.4268 -0.4498
   44MOL   H25628722   7.360   1.919   1.520  0.5357  1.2719 -0.8300
   44MOL   H25728723   7.278   1.830   1.750 -0.0988  1.6632  0.7715
   44MOL   H25828724   7.435   1.839   1.809 -0.1883  1.0532  0.6173
   44MOL   H25928725   7.272   2.075   1.682 -0.6094 -0.4218  0.4840
   44MOL   H26028726   7.269   2.049   1.857  1.7270  1.7469  0.8027
   44MOL   H26128727   7.402   2.234   1.781 -0.6944 -0.2023  0.6934
   44MOL   H26228728   7.512   2.121   1.711  0.9039  1.9670 -0.0005
   44MOL   H26328729   7.461   2.122   2.013 -0.2552 -2.2710  0.6506
   44MOL   H26428730   7.609   2.166   1.934 -0.4047  0.4927  1.1220
   44MOL   H26528731   7.560   2.002   1.948  0.8509  0.8739 -2.0067
   44MOL   C26628732   7.585   1.302   1.150 -0.1784  0.2393  0.4938
   44MOL   C26728733   7.639   1.328   1.014 -0.2211 -0.0573 -0.0269
   44MOL   C26828734   7.533   1.297   0.903  0.4217 -0.2480  0.5914
   44MOL   C26928735   7.458   1.430   0.868 -0.4095 -0.4114 -0.5256
   44MOL   C27028736   7.362   1.412   0.744 -0.2417 -0.1199 -0.0020
   44MOL   C27128737   7.307   1.545   0.678 -0.0419  0.0153  0.5042
   44MOL   C27228738   7.219   1.525   0.554 -0.4361 -0.0769 -0.9640
   44MOL   C27328739   7.091   1.442   0.583  0.1767 -0.2087 -0.0365
   44MOL   C27428740   6.993   1.517   0.679  0.1379  0.4280  0.4992
   44MOL   C27528741   6.865   1.440   0.710  0.0743 -0.0088 -0.3257
   44MOL   C27628742   6.881   1.329   0.818 -0.1081 -0.2340  0.3089
   44MOL   H27728743   7.487   1.348   1.162  0.0357  1.0113 -0.6658
   44MOL   H27828744   7.572   1.194   1.154 -1.7264  0.4042  0.4602
   44MOL   H27928745   7.648   1.436   1.018  0.9532 -0.0243 -3.0704
   44MOL   H28028746   7.581   1.257   0.813  1.4767  2.6151 -0.1783
   44MOL   H28128747   7.459   1.228   0.944 -0.0037  0.1558  0.5033
   44MOL   H28228748   7.530   1.511   0.851  0.6419 -1.0072  0.9981
   44MOL   H28328749   7.411   1.473   0.956  0.6439 -0.3498  0.0175
   44MOL   H28428750   7.280   1.350   0.778 -0.9434  0.1306 -1.2176
   44MOL   H28528751   7.411   1.345   0.674  0.1617  1.8685 -1.6701
   44MOL   H28628752   7.393   1.608   0.657 -0.0837 -0.1819 -0.2622
   44MOL   H28728753   7.250   1.599   0.754  0.3429  0.9349  0.1478
   44MOL   H28828754   7.190   1.624   0.520 -0.4046 -0.0314 -0.8563
   44MOL   H28928755   7.278   1.474   0.477  2.2231 -0.4229  1.2694
   44MOL   H29028756   7.120   1.347   0.627  3.4360 -0.0752 -1.7793
   44MOL   H29128757   7.044   1.422   0.486 -3.3986 -2.2736  1.9993
   44MOL   H29228758   7.049   1.518   0.772 -0.4546  1.8429  0.8481
   44MOL   H29328759   6.975   1.621   0.650  0.8941  0.6958  0.9630
   44MOL   H29428760   6.830   1.387   0.621  0.0105  1.2447 -1.0617
   44MOL   H29528761   6.784   1.509   0.733 -1.1693 -0.9512 -1.7794
   44MOL   H29628762   6.952   1.252   0.787  1.1498  0.2246  1.9817
   44MOL   H29728763   6.781   1.287   0.832  0.9461 -2.5075  1.2363
   44MOL   H29828764   6.908   1.368   0.916  1.5217  1.7068 -0.8809
   44MOL   C29928765   0.072   1.256   0.982  0.5051 -0.1459  1.0247
   44MOL   C30028766   0.141   1.311   0.854 -0.0426  0.6685 -0.0542
   44MOL   C30128767   0.197   1.195   0.763  0.1013 -1.0978  0.4585
   44MOL   C30228768   0.091   1.132   0.668  0.6852 -0.9545 -0.5630
   44MOL   C30328769   0.145   1.037   0.572  0.0712  0.0360  0.3136
   44MOL   C30428770   0.046   1.011   0.467 -0.3738  0.0330 -0.0896
   44MOL   C30528771   0.095   0.914   0.355 -0.6538  0.1134 -0.4852
   44MOL   C30628772   7.671   0.886   0.264  0.6442  0.9488 -0.4078
   44MOL   C30728773   0.011   0.800   0.146 -0.3993  0.0297  0.9945
   44MOL   C30828774   7.591   0.788   0.054  0.2692  0.3641 -0.1066
   44MOL   C30928775   7.595   0.875   7.636 -0.7752 -0.7922 -0.5712
   44MOL   H31028776   0.047   1.150   0.969 -0.0979  0.1348 -0.0948
   44MOL   H31128777   0.146   1.257   1.062  2.7089  3.1962 -0.9662
   44MOL   H31228778   0.066   1.365   0.797 -0.3725 -0.8925 -1.1004
   44MOL   H31328779   0.284   1.227   0.706 -0.4864  0.8178  0.5918
   44MOL   H31428780   0.240   1.117   0.826 -0.6964 -1.8078  0.1209
   44MOL   H31528781   0.013   1.093   0.733  1.4949  0.3320  1.2442
   44MOL   H31628782   0.047   1.220   0.621  2.7274  1.2056  1.4005
   44MOL   H31728783   0.236   1.078   0.530 -0.4523 -1.1878 -2.1108
   44MOL   H31828784   0.179   0.948   0.625  1.0783 -0.3757 -0.9896
   44MOL   H31928785   0.015   1.105   0.420  0.7037 -1.0304 -3.0324
   44MOL   H32028786   7.666   0.970   0.525  0.5501  2.8130  3.3975
   44MOL   H32128787   0.176   0.966   0.304 -0.9074 -1.7634 -2.8467
   44MOL   H32228788   0.137   0.819   0.387 -0.0169  0.2721 -0.8400
   44MOL   H32328789   7.634   0.980   0.225 -0.5173  0.5436 -0.2982
   44MOL   H32428790   7.592   0.847   0.328  2.0173  2.0373  2.0054
   44MOL   H32528791   0.035   0.706   0.196  2.3945  0.4844  0.6025
   44MOL   H32628792   0.103   0.829   0.096  0.1114 -0.7532  1.4573
   44MOL   H32728793   7.496   0.780   0.107  0.7784  1.3902  0.9840
   44MOL   H32828794   7.606   0.690   0.009  0.1342  0.2927  0.0027
   44MOL   H32928795   7.619   0.972   7.679 -0.4301 -1.5212  0.9207
   44MOL   H33028796   7.667   0.837   7.563  0.4944 -1.0933  0.8011
   44MOL   H33128797   7.496   0.882   7.590 -1.1015 -0.1259  0.2320
   44MOL   C33228798   0.243   1.421   0.896  0.4574  0.5656  0.5173
   44MOL   C33328799   0.283   1.505   0.778 -0.1622 -0.4998  0.0525
   44MOL   C33428800   0.428   1.558   0.797  0.2757  0.4860  0.1462
   44MOL   C33528801   0.539   1.459   0.761 -0.0956 -0.5288  0.1943
   44MOL   C33628802   0.675   1.523   0.808 -0.0561  0.3416  0.2182
   44MOL   C33728803   0.792   1.466   0.735  0.6602 -0.1747 -0.1979
   44MOL   C33828804   0.931   1.490   0.807 -0.2536  0.0040  0.4057
   44MOL   C33928805   0.973   1.374   0.900  0.7181  0.0809  0.2379
   44MOL   C34028806   1.101   1.398   0.987  0.1191 -0.2932 -0.2152
   44MOL   C34128807   1.120   1.294   1.095 -0.1205  0.3642  0.0822
   44MOL   C34228808   1.155   1.155   1.053 -0.0393  0.0706  0.0198
   44MOL   H34328809   0.207   1.490   0.973 -1.6926  0.4870 -0.4082
   44MOL   H34428810   0.329   1.372   0.942  0.8349  0.9005  0.1717
   44MOL   H34528811   0.295   1.437   0.694 -1.3998 -0.8604  0.1644
   44MOL   H34628812   0.438   1.585   0.902 -0.2533  1.5691 -0.0810
   44MOL   H34728813   0.437   1.649   0.738  0.2840  1.3284  1.4225
   44MOL   H34828814   0.525   1.358   0.800 -1.3423 -0.4082  0.1095
   44MOL   H34928815   0.538   1.454   0.652 -0.2972 -0.4564  0.1922
   44MOL   H35028816   0.675   1.631   0.794 -3.4764  0.2127 -1.1685
   44MOL   H35128817   0.686   1.510   0.916  1.9087 -0.3724 -0.0382
   44MOL   H35228818   0.785   1.521   0.641 -1.9565  1.4463  0.8927
   44MOL   H35328819   0.779   1.360   0.714 -1.8016 -0.0961  0.7502
   44MOL   H35428820   0.944   1.585   0.859 -1.0013 -1.0938  2.6780
   44MOL   H35528821   1.004   1.503   0.727  0.4584  2.0703  1.3356
   44MOL   H35628822   0.888   1.362   0.967 -0.7592 -0.5887 -1.7197
   44MOL   H35728823   0.973   1.280   0.845  0.1537  0.3044 -0.1530
   44MOL   H35828824   1.095   1.494   1.037  0.5209 -1.5459  2.3081
   44MOL   H35928825   1.192   1.404   0.927 -0.7083  0.9366 -1.3862
   44MOL   H36028826   1.028   1.296   1.154  0.5538 -0.3214  1.1794
   44MOL   H36128827   1.201   1.330   1.159  0.7007  1.4523 -1.5315
   44MOL   H36228828   1.067   1.092   1.042 -1.0269  1.8036 -2.7755
   44MOL   H36328829   1.214   1.162   0.961 -0.2743 -0.3887 -0.1678
   44MOL   H36428830   1.222   1.095   1.115 -2.4994 -3.4184 -0.5526
   44MOL   C36528831   0.178   1.612   0.752  0.1539 -0.6892  0.3223
   44MOL   C36628832   0.150   1.646   0.605  0.1039  0.9648  0.4667
   44MOL   C36728833   0.040   1.553   0.537 -0.1832 -0.4792 -0.3537
   44MOL   C36828834   0.032   1.570   0.389  0.1274  0.0851  0.0492
   44MOL   C36928835   7.678   1.447   0.313  0.2705 -0.4657 -0.5318
   44MOL   C37028836   7.521   1.415   0.327  0.9449 -0.8250  0.3114
   44MOL   C37128837   7.470   1.301   0.239 -0.5149  0.6402  0.7826
   44MOL   C37228838   7.320   1.301   0.233 -0.2670  0.7301 -0.0340
   44MOL   C37328839   7.261   1.216   0.115  0.1317  0.5142 -0.2491
   44MOL   C37428840   7.218   1.076   0.162  0.0564 -0.0998 -0.9789
   44MOL   C37528841   7.160   0.994   0.040 -0.0941  0.6801 -0.8530
   44MOL   H37628842   0.077   1.587   0.785 -0.4675 -0.7144 -1.5292
   44MOL   H37728843   0.211   1.701   0.806  1.2408  0.4782 -2.1745
   44MOL   H37828844   0.234   1.635   0.536 -1.7825  0.6851 -1.8664
   44MOL   H37928845   7.649   1.592   0.575  0.3096  0.8851 -0.4843
   44MOL   H38028846   0.053   1.448   0.565  0.0830 -0.9150 -2.0987
   44MOL   H38128847   0.132   1.579   0.346  1.4672 -0.7426  2.8986
   44MOL   H38228848   7.679   1.658   0.356 -0.7583 -0.3105  0.4941
   44MOL   H38328849   0.030   1.363   0.355  1.0907  0.7497  0.8697
   44MOL   H38428850   7.702   1.445   0.207 -1.4591 -2.3219 -0.9239
   44MOL   H38528851   7.468   1.507   0.304  0.1046 -0.4785  3.4187
   44MOL   H38628852   7.501   1.375   0.426  0.0431  0.3353  0.6056
   44MOL   H38728853   7.508   1.333   0.142 -0.3257  0.6139  0.8470
   44MOL   H38828854   7.507   1.199   0.249  0.8560  1.2966  2.8180
   44MOL   H38928855   7.284   1.404   0.233 -0.9018  0.5143 -1.2535
   44MOL   H39028856   7.274   1.263   0.325  0.4538 -1.4070 -0.5283
   44MOL   H39128857   7.170   1.270   0.091 -0.4407  0.2696  1.3373
   44MOL   H39228858   7.322   1.212   0.025  0.2701 -0.5922 -0.1195
   44MOL   H39328859   7.312   1.036   0.198  1.4069  1.5863 -2.5445
   44MOL   H39428860   7.137   1.078   0.235  0.5886 -0.2288 -0.3844
   44MOL   H39528861   7.096   1.067   7.694  0.7521  0.8441 -1.7060
   44MOL   H39628862   7.099   0.908   0.069 -2.1065  1.9420 -1.2265
   44MOL   H39728863   7.230   0.964   7.666 -0.0766 -0.3330 -0.4547
   44MOL   C39828864   0.118   1.801   0.595  0.0504 -0.3437  0.3157
   44MOL   C39928865   0.251   1.883   0.599 -0.3938  0.2525 -0.0146
   44MOL   C40028866   0.230   2.003   0.698  0.0194  0.6357  0.3519
   44MOL   C40128867   0.264   1.980   0.850 -0.9488  0.0393 -0.2746
   44MOL   C40228868   0.266   2.111   0.936  0.0536 -0.8332  0.3680
   44MOL   C40328869   0.313   2.095   1.075  0.1794 -0.0165 -0.2376
   44MOL   C40428870   0.308   2.228   1.150 -0.3428 -0.2422 -0.0429
   44MOL   C40528871   0.356   2.234   1.294  0.3446  0.4455  0.5943
   44MOL   C40628872   0.494   2.163   1.322  0.2791 -0.7106 -1.1758
   44MOL   C40728873   0.611   2.212   1.242 -0.1178 -0.5495  0.5053
   44MOL   C40828874   0.641   2.365   1.268  0.0210 -0.1492 -0.0410
   44MOL   H40928875   0.045   1.818   0.674 -0.9295  0.0370 -0.6536
   44MOL   H41028876   0.065   1.834   0.506 -1.0821  1.0906  1.5107
   44MOL   H41128877   0.327   1.819   0.644 -2.2523 -1.7083  0.4251
   44MOL   H41228878   0.143   2.067   0.685 -0.8848 -0.3198  1.6226
   44MOL   H41328879   0.313   2.072   0.679 -0.2846  0.7982 -0.4105
   44MOL   H41428880   0.202   1.907   0.902 -0.5423  0.8317  1.3806
   44MOL   H41528881   0.365   1.938   0.852 -1.0229 -0.1164  0.2284
   44MOL   H41628882   0.336   2.181   0.890 -0.0777 -1.4845 -0.8277
   44MOL   H41728883   0.170   2.163   0.932  0.8266  0.5276 -0.9202
   44MOL   H41828884   0.414   2.055   1.081 -0.5752 -1.9689 -0.3102
   44MOL   H41928885   0.257   2.020   1.131  0.7095  0.3314  0.7728
   44MOL   H42028886   0.359   2.310   1.101 -0.4130  1.4227  2.6062
   44MOL   H42128887   0.202   2.252   1.156 -0.8461 -2.2950 -0.1962
   44MOL   H42228888   0.268   2.202   1.349  0.4097  0.1390  0.5236
   44MOL   H42328889   0.375   2.335   1.330 -3.4837  0.5392  2.5425
   44MOL   H42428890   0.506   2.165   1.430 -2.0398  0.1144 -0.8991
   44MOL   H42528891   0.485   2.056   1.308  0.9108 -0.9282  0.0765
   44MOL   H42628892   0.602   2.182   1.137  0.5311  0.6542  0.0999
   44MOL   H42728893   0.693   2.155   1.286  1.3492  0.8867 -0.3537
   44MOL   H42828894   0.730   2.387   1.209 -0.1679 -0.7649 -0.5599
   44MOL   H42928895   0.664   2.381   1.373  0.5687 -0.1980 -0.1497
   44MOL   H43028896   0.548   2.418   1.247 -0.7920 -1.4076  0.3248
   44MOL   C43128897   0.291   1.927   0.457  0.7439 -0.5861  0.4166
   44MOL   C43228898   0.439   1.970   0.440 -0.2626  0.1785  0.4371
   44MOL   C43328899   0.461   2.053   0.312  0.3044 -0.2309  0.2430
   44MOL   C43428900   0.469   1.965   0.184  0.4925 -0.2324 -0.2246
   44MOL   C43528901   0.501   2.039   0.051 -0.5764  0.5987  0.2833
   44MOL   C43628902   0.479   1.955   7.632 -1.0062 -0.1337 -0.8980
   44MOL   C43728903   0.502   2.042   7.505 -0.6705 -0.0407 -0.1166
   44MOL   C43828904   0.448   1.964   7.385  0.0188  0.5022  0.4892
   44MOL   C43928905   0.300   1.980   7.360 -0.1534  0.0519  0.1985
   44MOL   C44028906   0.242   1.859   7.298  0.0273  0.2920  0.8331
   44MOL   C44128907   0.088   1.863   7.288  0.1405 -0.5273  0.3971
   44MOL   H44228908   0.216   2.003   0.438  0.6107 -0.7949  0.1022
   44MOL   H44328909   0.269   1.850   0.383 -0.3993 -1.7613  1.9339
   44MOL   H44428910   0.447   2.052   0.512  0.6024 -0.3012  0.8910
   44MOL   H44528911   0.381   2.126   0.304 -0.4560 -1.0956 -0.1837
   44MOL   H44628912   0.550   2.115   0.323 -0.4758  1.0966 -0.8707
   44MOL   H44728913   0.375   1.912   0.171 -1.1911  2.0095  2.4176
   44MOL   H44828914   0.534   1.878   0.188 -0.2672 -0.7626  0.8462
   44MOL   H44928915   0.601   2.083   0.048  0.0120 -0.4936  2.3572
   44MOL   H45028916   0.439   2.127   0.037 -2.1085 -0.7858 -1.8157
   44MOL   H45128917   0.378   1.914   7.637 -0.9492 -0.0068  1.8850
   44MOL   H45228918   0.555   1.876   7.634 -1.4868 -0.5784  0.0353
   44MOL   H45328919   0.607   2.060   7.481 -1.3676  1.2689 -2.2953
   44MOL   H45428920   0.456   2.140   7.511  0.3428  0.4274  0.0705
   44MOL   H45528921   0.505   2.017   7.309  1.2445  0.7294  1.5552
   44MOL   H45628922   0.486   1.862   7.377  1.3663  1.1721 -2.3460
   44MOL   H45728923   0.278   2.067   7.298 -0.2308  0.8971  1.4112
   44MOL   H45828924   0.252   1.999   7.456  1.9360 -1.8591  1.6532
   44MOL   H45928925   0.264   1.772   7.360  1.6088  1.2753  1.6992
   44MOL   H46028926   0.285   1.836   7.200  2.2874  2.9348  1.1402
   44MOL   H46128927   0.055   1.934   7.212  1.1883  0.4921  0.8838
   44MOL   H46228928   0.042   1.772   7.251 -2.1506  0.2384  1.2658
   44MOL   H46328929   0.037   1.894   7.379  2.2311  2.0164  0.7622
   44MOL   C46428930   0.545   1.856   0.471  0.5451  0.6979  0.0329
   44MOL   C46528931   0.691   1.907   0.488  0.2740 -0.6485 -0.3402
   44MOL   C46628932   0.720   1.993   0.613 -0.9664 -0.0948  0.8714
   44MOL   C46728933   0.722   1.915   0.746 -0.6642  0.5007 -0.6851
   44MOL   C46828934   0.743   1.992   0.880  0.4839 -0.3298  0.6047
   44MOL   C46928935   0.762   1.907   1.006  0.4685  0.7504  0.5734
   44MOL   C47028936   0.643   1.829   1.053  0.2202 -0.4414  0.1074
   44MOL   C47128937   0.668   1.757   1.180 -0.4781  0.1704 -0.4106
   44MOL   C47228938   0.544   1.707   1.241 -0.0450 -0.3475  0.0891
   44MOL   C47328939   0.562   1.612   1.353 -0.9608  0.6179  0.1124
   44MOL   C47428940   0.595   1.468   1.298  0.7234 -0.3059  0.2950
   44MOL   H47528941   0.553   1.782   0.392  0.3523 -1.3696  1.8807
   44MOL   H47628942   0.520   1.801   0.563 -1.5256  0.9377 -0.3481
   44MOL   H47728943   0.698   1.972   0.400  0.1528  1.6239  1.2701
   44MOL   H47828944   0.661   2.084   0.610 -0.9517 -0.1086 -0.2725
   44MOL   H47928945   0.821   2.034   0.612 -0.6851 -0.7764 -0.8796
   44MOL   H48028946   0.639   1.844   0.746  1.4141 -2.0324  1.0927
   44MOL   H48128947   0.809   1.851   0.736  0.3651  2.1097 -2.4601
   44MOL   H48228948   0.659   2.061   0.888  0.0805 -0.7455 -0.0091
   44MOL   H48328949   0.827   2.059   0.862 -1.1120  0.9819 -2.2317
   44MOL   H48428950   0.834   1.832   0.975 -0.4886  0.6598 -1.5207
   44MOL   H48528951   0.807   1.967   1.085 -0.0771  0.3200  1.2171
   44MOL   H48628952   0.557   1.893   1.074  0.8093 -0.9555  4.5876
   44MOL   H48728953   0.608   1.768   0.969 -1.1995  1.0770 -0.4283
   44MOL   H48828954   0.738   1.675   1.163 -0.3129  0.3626 -0.6727
   44MOL   H48928955   0.716   1.817   1.258  0.3066  1.6619 -1.9951
   44MOL   H49028956   0.475   1.789   1.262 -0.0020 -0.6864  1.6018
   44MOL   H49128957   0.482   1.651   1.171 -1.2476  2.6891 -1.3643
   44MOL   H49228958   0.638   1.646   1.424 -1.6695  0.5067  0.9368
   44MOL   H49328959   0.470   1.617   1.410 -0.6957  0.7548  0.5366
   44MOL   H49428960   0.677   1.467   1.227  0.7090  0.6044  0.2568
   44MOL   H49528961   0.500   1.427   1.264  0.6570  0.4715 -0.4714
   44MOL   H49628962   0.637   1.416   1.384 -0.7647  1.1643  1.9581
   44MOL   C49728963   0.803   1.802   0.463  0.3112 -0.2817 -0.1335
   44MOL   C49828964   0.922   1.848   0.387  0.9818  0.1863 -0.0313
   44MOL   C49928965   0.903   1.888   0.240  0.1389 -0.1394  0.9385
   44MOL   C50028966   0.858   1.771   0.144 -0.1461 -0.8118  0.7085
   44MOL   C50128967   0.854   1.804   7.700 -0.0621 -0.1029 -0.3832
   44MOL   C50228968   0.998   1.819   7.635 -0.2409  0.7188  0.4049
   44MOL   C50328969   0.989   1.893   7.500  0.0617 -0.4374 -0.4617
   44MOL   C50428970   0.917   1.823   7.385  0.1030  0.4183 -0.0299
   44MOL   C50528971   0.941   1.892   7.249  0.5733  0.3634 -1.1125
   44MOL   C50628972   0.866   2.019   7.243  0.0205 -0.4580 -0.5510
   44MOL   C50728973   0.880   2.102   7.112  0.4090  0.9210  0.5611
   44MOL   H50828974   0.833   1.757   0.557 -0.6094 -2.1035 -0.6966
   44MOL   H50928975   0.763   1.717   0.408 -4.1475  1.3033  0.4802
   44MOL   H51028976   0.964   1.939   0.430  0.4537 -0.9644  3.0415
   44MOL   H51128977   0.999   1.928   0.207 -0.7035 -0.2593 -1.7149
   44MOL   H51228978   0.826   1.963   0.226  0.1123 -0.5946 -1.5528
   44MOL   H51328979   0.754   1.749   0.170 -0.2022 -0.0023  1.1769
   44MOL   H51428980   0.914   1.677   0.146  1.8589  0.2609 -1.8664
   44MOL   H51528981   0.795   1.723   7.658 -0.6589  0.5181 -0.7494
   44MOL   H51628982   0.804   1.900   7.684  1.4902  0.5475 -1.4854
   44MOL   H51728983   1.062   1.875   7.702  0.3856 -1.1384  1.3828
   44MOL   H51828984   1.049   1.723   7.633 -0.5189  0.5129  2.1444
   44MOL   H51928985   0.932   1.986   7.508 -1.3131 -1.3785  0.9416
   44MOL   H52028986   1.092   1.917   7.473  0.5260  1.4252  2.6684
   44MOL   H52128987   0.812   1.823   7.412  0.6444 -1.0484  2.2372
   44MOL   H52228988   0.958   1.722   7.378 -0.1025  0.2234  1.5405
   44MOL   H52328989   0.910   1.838   7.159  0.9081  0.0921 -1.0682
   44MOL   H52428990   1.050   1.902   7.242  0.7552 -1.6228 -1.6052
   44MOL   H52528991   0.892   2.088   7.323  0.3234 -1.3277  0.1135
   44MOL   H52628992   0.758   2.001   7.250 -0.1678  0.5381 -0.8628
   44MOL   H52728993   0.980   2.147   7.105  0.7028  0.5793  2.4052
   44MOL   H52828994   0.801   2.176   7.108  0.2651  0.7467  0.1583
   44MOL   H52928995   0.863   2.034   7.028  0.9495 -1.3718  2.2406
   44MOL   C53028996   1.041   1.744   0.400  0.4904  0.0371 -0.5460
   44MOL   C53128997   1.115   1.747   0.535 -0.1104  0.0753 -0.2000
   44MOL   C53228998   1.135   1.885   0.610  0.3072  0.7324  0.4935
   44MOL   C53328999   1.190   1.874   0.750 -0.4058 -0.5150  0.2216
   44MOL   C53429000   1.175   2.003   0.843 -0.0648  0.3227  0.1011
   44MOL   C53529001   1.223   1.970   0.989 -0.3783  0.1002 -0.0830
   44MOL   C53629002   1.229   2.095   1.073  0.9576 -0.4291 -0.6667
   44MOL   C53729003   1.113   2.196   1.068 -0.4148 -0.5142 -0.1749
   44MOL   C53829004   1.120   2.317   1.163 -0.2211  0.4243 -0.7173
   44MOL   C53929005   1.048   2.443   1.123  0.1168  0.6091  0.5309
   44MOL   C54029006   1.109   2.572   1.189 -0.0122 -0.8663  0.4842
   44MOL   H54129007   1.005   1.642   0.386 -0.1247  0.0199  0.9639
   44MOL   H54229008   1.114   1.757   0.321  1.1138 -0.7763 -0.1112
   44MOL   H54329009   1.057   1.680   0.599 -0.1256 -2.0471 -2.3701
   44MOL   H54429010   1.033   1.920   0.625  0.9433  2.6756  0.3299
   44MOL   H54529011   1.179   1.970   0.559  0.5192  0.0674 -0.4502
   44MOL   H54629012   1.297   1.853   0.750 -0.7651 -2.5551 -1.4705
   44MOL   H54729013   1.143   1.793   0.805 -2.2935  0.2168 -0.2704
   44MOL   H54829014   1.071   2.035   0.848 -0.5055 -1.3966  3.4683
   44MOL   H54929015   1.246   2.079   0.811 -0.2405  0.0222 -1.0166
   44MOL   H55029016   1.320   1.919   0.996  0.5851  1.7633 -1.0123
   44MOL   H55129017   1.152   1.911   1.047 -1.6361  3.0743  1.4947
   44MOL   H55229018   1.316   2.144   1.029  0.1798  0.9512 -0.7235
   44MOL   H55329019   1.256   2.060   1.172  1.4237  1.5811 -0.0508
   44MOL   H55429020   1.019   2.142   1.078 -0.4231 -0.1385  1.9884
   44MOL   H55529021   1.108   2.247   0.972 -1.0033 -0.4607 -0.1164
   44MOL   H55629022   1.225   2.343   1.179 -0.7593  2.2837 -0.0564
   44MOL   H55729023   1.068   2.282   1.253 -2.7390  2.1922 -1.4273
   44MOL   H55829024   0.940   2.440   1.140 -0.0860  0.8739 -0.6509
   44MOL   H55929025   1.069   2.461   1.018 -1.2728  0.6510  0.2420
   44MOL   H56029026   1.110   2.566   1.298 -0.8942  2.9494  0.7654
   44MOL   H56129027   1.211   2.586   1.155 -0.7062  2.1307 -0.5096
   44MOL   H56229028   1.043   2.654   1.162 -1.5072 -2.1898  0.0274
   44MOL   C56329029   1.254   1.678   0.510 -0.0367  0.2038  0.0891
   44MOL   C56429030   1.263   1.562   0.408 -0.0478  0.1390 -0.3013
   44MOL   C56529031   1.185   1.434   0.475  0.2336 -0.3707  1.4557
   44MOL   C56629032   1.247   1.380   0.602  0.5606  0.5794 -0.4103
   44MOL   C56729033   1.190   1.242   0.647 -0.5610 -0.2139  0.0790
   44MOL   C56829034   1.213   1.130   0.554  0.5806  0.8476  0.4078
   44MOL   C56929035   1.246   0.997   0.623 -0.2298  0.1170  0.0426
   44MOL   C57029036   1.280   0.884   0.529 -0.1714 -0.8153  0.0252
   44MOL   C57129037   1.301   0.750   0.599 -0.6435 -0.1514 -0.0607
   44MOL   C57229038   1.177   0.660   0.586 -0.0917 -0.4999 -0.1391
   44MOL   C57329039   1.185   0.529   0.662  0.1715  0.0526 -0.1099
   44MOL   H57429040   1.313   1.645   0.597  0.1629 -0.3780 -0.2616
   44MOL   H57529041   1.311   1.761   0.470 -1.0375  0.3184 -1.0976
   44MOL   H57629042   1.227   1.585   0.307  1.0286 -0.1100 -0.7407
   44MOL   H57729043   1.178   1.351   0.405  1.1655  0.5378  0.2639
   44MOL   H57829044   1.083   1.467   0.495 -0.1320  1.3075 -2.7760
   44MOL   H57929045   1.234   1.454   0.680  1.5853  2.3991 -1.9248
   44MOL   H58029046   1.354   1.366   0.588  0.3849 -1.4077  0.0355
   44MOL   H58129047   1.085   1.259   0.673 -0.6077  0.2599 -0.4065
   44MOL   H58229048   1.246   1.215   0.736 -0.4566 -1.0143 -0.2263
   44MOL   H58329049   1.124   1.120   0.492  1.4122  1.5610 -0.9368
   44MOL   H58429050   1.299   1.153   0.491 -0.2598 -0.7217 -1.3581
   44MOL   H58529051   1.333   1.013   0.687  0.2080  0.0656 -0.5227
   44MOL   H58629052   1.171   0.958   0.691  1.8167 -0.5847  1.9589
   44MOL   H58729053   1.368   0.911   0.470 -0.3918  0.2605  0.1793
   44MOL   H58829054   1.197   0.875   0.458 -0.1460 -2.2643  0.1681
   44MOL   H58929055   1.328   0.764   0.704  0.7963  0.9325 -0.5591
   44MOL   H59029056   1.393   0.710   0.555 -0.9967 -2.5422  1.2979
   44MOL   H59129057   1.155   0.642   0.481 -0.3696  0.5585 -0.2719
   44MOL   H59229058   1.090   0.710   0.629  0.2675 -1.4094  1.7408
   44MOL   H59329059   1.100   0.461   0.658  1.2025 -1.2910  0.6754
   44MOL   H59429060   1.276   0.473   0.642  0.3959 -0.2144  1.6010
   44MOL   H59529061   1.189   0.554   0.768  2.2234 -1.1588  0.1161
   44MOL   C59629062   1.409   1.534   0.392  0.5407 -0.4373 -0.7024
   44MOL   C59729063   1.447   1.436   0.282  0.1024 -0.0545  0.0959
   44MOL   C59829064   1.598   1.392   0.294 -0.2099 -0.5980  0.6648
   44MOL   C59929065   1.653   1.356   0.435  0.0859 -0.1716  0.0105
   44MOL   C60029066   1.795   1.290   0.436 -0.1764  0.6200 -0.2675
   44MOL   C60129067   1.794   1.140   0.413  0.1435 -0.9471  0.2426
   44MOL   C60229068   1.892   1.059   0.505 -0.6535  0.3125  0.0289
   44MOL   C60329069   1.901   0.911   0.472 -0.0079 -1.1275  0.4095
   44MOL   C60429070   1.778   0.829   0.506 -0.7214  0.1959  0.3807
   44MOL   C60529071   1.789   0.676   0.465  0.4680  0.7100  0.2588
   44MOL   C60629072   1.649   0.613   0.493 -0.0110  0.7655 -0.4368
   44MOL   H60729073   1.459   1.628   0.369 -1.0173  0.2516 -1.3689
   44MOL   H60829074   1.449   1.506   0.489 -0.6417 -2.3078 -0.7348
   44MOL   H60929075   1.390   1.345   0.299  0.5661 -0.7230 -1.7307
   44MOL   H61029076   1.658   1.472   0.251 -2.7117  1.2205  0.3899
   44MOL   H61129077   1.605   1.300   0.237  1.7692 -1.6164  2.4740
   44MOL   H61229078   1.574   1.292   0.475 -1.5848  2.6305  1.3092
   44MOL   H61329079   1.652   1.441   0.502 -0.7909  0.4811 -0.8060
   44MOL   H61429080   1.834   1.322   0.533  0.1090  0.3241 -0.2865
   44MOL   H61529081   1.849   1.339   0.355  0.3564 -1.4539 -1.1813
   44MOL   H61629082   1.698   1.101   0.448 -0.9874  1.8563  0.4147
   44MOL   H61729083   1.798   1.122   0.306 -1.8875 -0.7656  0.1299
   44MOL   H61829084   1.877   1.087   0.610  2.8017  4.3440 -0.3878
   44MOL   H61929085   1.994   1.098   0.492 -1.1095  1.2967 -0.6391
   44MOL   H62029086   1.986   0.875   0.529  2.4790  0.4612 -2.1830
   44MOL   H62129087   1.925   0.893   0.368  3.2836  0.7611  0.7576
   44MOL   H62229088   1.764   0.847   0.613 -1.7035 -2.9064  0.8031
   44MOL   H62329089   1.695   0.867   0.447 -1.3854  0.2225  1.3247
   44MOL   H62429090   1.872   0.628   0.517 -0.2753 -0.3637  0.4770
   44MOL   H62529091   1.804   0.674   0.357  3.7793 -1.5640  0.6913
   44MOL   H62629092   1.565   0.650   0.434 -1.0143  0.0917  0.5608
   44MOL   H62729093   1.651   0.506   0.473  0.1239  0.9325 -1.3408
   44MOL   H62829094   1.627   0.632   0.598  0.4936 -0.4956 -0.0876
   44MOL   C62929095   1.412   1.482   0.137 -0.2504  0.1169 -0.4252
   44MOL   C63029096   1.390   1.371   0.031  0.2565 -0.4253  0.3526
   44MOL   C63129097   1.243   1.310   0.040 -0.3370  0.6497 -0.0686
   44MOL   C63229098   1.136   1.406   7.688  0.5967 -0.5872 -0.6872
   44MOL   C63329099   0.989   1.368   0.018 -0.4072  0.1362 -0.4262
   44MOL   C63429100   0.961   1.370   0.167  0.1216 -0.2174  0.6219
   44MOL   C63529101   0.811   1.370   0.195  0.5555 -0.3361  0.0580
   44MOL   C63629102   0.774   1.382   0.344  0.3318 -0.6147  0.3162
   44MOL   C63729103   0.638   1.328   0.391  0.2084  0.3008  0.0529
   44MOL   C63829104   0.511   1.383   0.318 -0.2460  0.4900  0.1383
   44MOL   C63929105   0.386   1.318   0.378  0.3257 -0.5209 -0.4762
   44MOL   H64029106   1.338   1.562   0.134 -0.6578 -0.0998  2.7378
   44MOL   H64129107   1.506   1.527   0.104  0.3858 -0.5193  0.4895
   44MOL   H64229108   1.403   1.415   7.635  0.3372  1.6266  1.2448
   44MOL   H64329109   1.237   1.216   7.688  1.4745  0.6144 -0.2256
   44MOL   H64429110   1.214   1.271   0.137 -0.1458  1.1307  0.1825
   44MOL   H64529111   1.160   1.416   7.582 -0.1451  0.9173 -0.7241
   44MOL   H64629112   1.149   1.511   0.011  1.9901 -0.8117 -0.4521
   44MOL   H64729113   0.963   1.269   7.684 -0.1405 -0.1409  0.1145
   44MOL   H64829114   0.930   1.439   7.663 -1.2869 -0.2984 -0.0768
   44MOL   H64929115   1.002   1.461   0.210 -0.4773  0.0734  0.5787
   44MOL   H65029116   1.011   1.288   0.218  0.4646  0.1883  0.9380
   44MOL   H65129117   0.770   1.279   0.152 -1.6419  1.1224 -1.0106
   44MOL   H65229118   0.766   1.446   0.132 -1.4622 -0.9268  0.7385
   44MOL   H65329119   0.793   1.478   0.392 -1.5169  0.2906 -0.6995
   44MOL   H65429120   0.849   1.327   0.402 -0.7737 -1.7946  0.6520
   44MOL   H65529121   0.626   1.342   0.499  0.5193 -0.0238  0.1290
   44MOL   H65629122   0.646   1.220   0.384  2.5681  0.4617 -0.1723
   44MOL   H65729123   0.520   1.372   0.210  1.6588  2.0089  0.1197
   44MOL   H65829124   0.492   1.488   0.340 -1.7776 -0.3528  3.1005
   44MOL   H65929125   0.397   1.209   0.380  1.0705 -0.4551 -0.5477
   44MOL   H66029126   0.292   1.349   0.333  0.4808 -0.2386 -0.6090
   44MOL   H66129127   0.372   1.344   0.483 -1.2689  3.1664 -1.5308
   44MOL   H66229128   1.462   1.290   0.044 -2.2412 -2.5753  1.2342
   45MOL     C129129   7.524   1.289   3.960 -0.6326 -0.5591 -0.0301
   45MOL     C229130   7.447   1.232   3.835  1.5331 -0.0955  0.3907
   45MOL     C329131   7.320   1.152   3.879  0.1220 -0.0263  0.0869
   45MOL     C429132   7.344   1.036   3.972  0.2450  0.2410  0.3365
   45MOL     C529133   7.399   0.908   3.899  0.5255  0.7376 -0.4683
   45MOL     C629134   7.453   0.807   4.008 -0.5460  0.7972 -0.3032
   45MOL     C729135   7.502   0.681   3.940 -0.7022 -0.0126 -0.4566
   45MOL     C829136   7.536   0.566   4.038  0.2821 -0.5087  0.1104
   45MOL     C929137   7.558   0.428   3.975  0.3171 -0.0991 -0.2680
   45MOL    C1029138   7.673   0.425   3.877  0.8569  0.0789  0.3076
   45MOL    C1129139   7.679   0.302   3.786 -0.2719 -0.0648 -0.3504
   45MOL    H1229140   7.533   1.231   4.053  1.8359  1.1142  0.8486
   45MOL    H1329141   7.505   1.391   3.992 -2.3743 -0.2206 -2.1013
   45MOL    H1429142   7.512   1.169   3.773 -0.0190  0.3800 -1.7700
   45MOL    H1529143   7.252   1.106   3.807  0.2842 -0.7381  0.3939
   45MOL    H1629144   7.264   1.224   3.939 -0.5531 -0.4432 -0.0381
   45MOL    H1729145   7.250   1.008   4.019  0.5608  0.9678  1.4349
   45MOL    H1829146   7.398   1.062   4.063 -0.5283  0.3527  0.7637
   45MOL    H1929147   7.324   0.859   3.839  1.2227 -0.1732 -0.6039
   45MOL    H2029148   7.485   0.932   3.836  1.0663 -1.7935 -0.7291
   45MOL    H2129149   7.375   0.793   4.082 -1.4875  0.4232 -1.3378
   45MOL    H2229150   7.535   0.855   4.062 -0.7529  0.5820  0.2002
   45MOL    H2329151   7.426   0.645   3.870 -0.5386  0.7124 -1.0135
   45MOL    H2429152   7.594   0.709   3.889  0.8269 -1.9276  1.1737
   45MOL    H2529153   7.444   0.556   4.096 -0.8379 -0.1039 -1.5356
   45MOL    H2629154   7.626   0.582   4.097  0.1461 -0.7746  0.3851
   45MOL    H2729155   7.474   0.407   3.908 -0.0071  2.7015 -0.7928
   45MOL    H2829156   7.577   0.347   4.046 -0.9843  0.3883  0.6363
   45MOL    H2929157   0.062   0.430   3.934  1.4679  2.5247 -0.7850
   45MOL    H3029158   7.672   0.520   3.822  0.4600  0.2347  0.5819
   45MOL    H3129159   0.063   0.295   3.722  1.1274 -0.9395  1.6003
   45MOL    H3229160   7.668   0.209   3.843  0.4334 -0.0680 -0.2192
   45MOL    H3329161   7.597   0.308   3.715 -1.4941 -0.2509  1.0207
   45MOL    H3429162   7.623   1.305   3.917 -1.2769  2.6440 -0.4502
   45MOL    C3529163   7.405   1.346   3.737 -0.1734  0.3233 -0.3227
   45MOL    C3629164   7.508   1.382   3.630  0.3052 -0.5751  0.5160
   45MOL    C3729165   7.636   1.435   3.697  0.4994 -0.0141 -0.5973
   45MOL    C3829166   0.019   1.523   3.612  0.0942 -0.3170 -0.1863
   45MOL    C3929167   7.673   1.666   3.588 -0.2041  0.0753 -0.3759
   45MOL    C4029168   0.077   1.765   3.533  0.2492 -0.5146  0.7404
   45MOL    C4129169   0.032   1.913   3.502 -0.0513  0.2911 -0.7387
   45MOL    C4229170   0.148   1.997   3.453 -0.8227  0.1699  0.5895
   45MOL    C4329171   0.248   1.936   3.347  0.0824  0.3977 -0.1278
   45MOL    C4429172   0.343   2.046   3.303 -0.0572 -0.0455  0.1189
   45MOL    C4529173   0.464   2.001   3.224 -0.5638  0.0553  0.7808
   45MOL    H4629174   7.368   1.428   3.799  0.1976 -0.9594  1.6422
   45MOL    H4729175   7.313   1.316   3.687 -0.9651  0.3353  1.0917
   45MOL    H4829176   7.474   1.473   3.579 -0.3808 -1.4377 -0.5906
   45MOL    H4929177   7.605   1.490   3.786  1.1567 -0.3370 -0.1658
   45MOL    H5029178   7.695   1.351   3.733  2.1413  0.8625 -1.1660
   45MOL    H5129179   0.041   1.470   3.520 -0.3983  0.0947 -0.5412
   45MOL    H5229180   0.115   1.523   3.664  1.1447 -2.5882 -2.0389
   45MOL    H5329181   7.624   1.711   3.674  1.6005  1.0332  0.2014
   45MOL    H5429182   7.593   1.663   3.514  1.9161 -2.8769 -2.6828
   45MOL    H5529183   0.131   1.715   3.451 -0.2987 -1.8350  1.1705
   45MOL    H5629184   0.156   1.771   3.608  0.0310 -1.1109  1.0259
   45MOL    H5729185   7.665   1.918   3.419  1.8878 -1.1566 -2.5277
   45MOL    H5829186   7.691   1.969   3.585 -0.6695  0.4865 -1.1993
   45MOL    H5929187   0.207   2.020   3.541  1.1602 -1.3231 -0.2922
   45MOL    H6029188   0.103   2.087   3.413 -1.8829 -0.4393  0.3888
   45MOL    H6129189   0.190   1.881   3.273 -1.4108  0.9701  0.6010
   45MOL    H6229190   0.298   1.852   3.394  0.2404  0.5098 -0.0947
   45MOL    H6329191   0.290   2.119   3.241 -0.9939 -1.0183 -0.2513
   45MOL    H6429192   0.373   2.102   3.391  0.6590  0.6832 -0.5849
   45MOL    H6529193   0.434   1.940   3.139 -0.2013 -2.4928  2.4455
   45MOL    H6629194   0.524   2.084   3.187  1.1035 -1.8306 -0.8604
   45MOL    H6729195   0.519   1.939   3.295  1.5252  0.3629 -0.5332
   45MOL    C6829196   7.530   1.270   3.531 -0.0606  0.3228 -0.6961
   45MOL    C6929197   7.421   1.272   3.419  0.1238  0.2266 -0.0033
   45MOL    C7029198   7.464   1.328   3.285  0.3751 -0.4593  0.1572
   45MOL    C7129199   7.519   1.470   3.294  0.2969 -0.3760  0.6775
   45MOL    C7229200   7.584   1.521   3.164  0.3493 -0.9776  1.2017
   45MOL    C7329201   7.591   1.673   3.147  0.0870 -0.8211 -0.3813
   45MOL    C7429202   7.451   1.743   3.128  0.4775  0.2337  0.6443
   45MOL    C7529203   7.459   1.893   3.124 -0.0891 -0.1735  0.0303
   45MOL    C7629204   7.318   1.948   3.074  0.4829 -0.3573 -0.0529
   45MOL    C7729205   7.325   2.098   3.053  0.6558 -0.0577 -0.3058
   45MOL    C7829206   7.197   2.163   2.995 -0.0540  0.3303  0.1530
   45MOL    H7929207   7.544   1.178   3.587 -1.1450  0.8834  0.5398
   45MOL    H8029208   7.622   1.283   3.475 -0.4560 -1.4882 -1.8018
   45MOL    H8129209   7.345   1.336   3.464 -0.3721 -0.0865 -0.4000
   45MOL    H8229210   7.381   1.328   3.215  0.4822 -1.1110  0.0269
   45MOL    H8329211   7.536   1.264   3.235  1.2734  0.8209 -0.2140
   45MOL    H8429212   7.429   1.526   3.320  0.9401  1.3816 -0.7454
   45MOL    H8529213   7.602   1.490   3.362  0.7089  1.3817 -0.3025
   45MOL    H8629214   7.515   1.492   3.085 -0.9633  1.5198  1.3500
   45MOL    H8729215   7.683   1.479   3.149  1.5153  1.8558  0.7201
   45MOL    H8829216   7.632   1.732   3.229 -2.8730 -0.2365  0.7627
   45MOL    H8929217   7.647   1.693   3.055  0.9168  1.2809  0.5599
   45MOL    H9029218   7.381   1.723   3.209 -2.7171 -1.9131 -2.4783
   45MOL    H9129219   7.402   1.690   3.046  1.9547 -1.9961  1.1423
   45MOL    H9229220   7.482   1.931   3.223 -1.0913 -0.3255  0.3307
   45MOL    H9329221   7.545   1.918   3.061 -1.2513  0.7191 -1.2489
   45MOL    H9429222   7.292   1.896   2.982  0.0290  1.3293 -0.8949
   45MOL    H9529223   7.235   1.933   3.142 -1.7764  0.3516 -2.5749
   45MOL    H9629224   7.345   2.148   3.148  4.0606 -0.2615 -0.8661
   45MOL    H9729225   7.400   2.119   2.977 -1.1267  0.8863 -1.8282
   45MOL    H9829226   7.134   2.104   2.929  0.7581 -0.1012 -0.2490
   45MOL    H9929227   7.227   2.248   2.933 -0.9279  0.4495 -0.1185
   45MOL   H10029228   7.129   2.201   3.070 -1.4363 -0.0590 -0.8833
   45MOL   C10129229   7.370   1.126   3.398 -0.0559 -1.0392 -0.3405
   45MOL   C10229230   7.236   1.101   3.473  0.1921 -0.4390  0.4050
   45MOL   C10329231   7.246   0.953   3.514 -0.0941 -0.2368  0.1940
   45MOL   C10429232   7.265   0.846   3.412 -0.5669  0.6146  0.2290
   45MOL   C10529233   7.252   0.710   3.465 -0.5339  0.0135 -0.2411
   45MOL   C10629234   7.117   0.678   3.531  0.3303 -0.6581  0.3311
   45MOL   C10729235   7.105   0.532   3.572  0.5211 -0.4702  0.9833
   45MOL   C10829236   7.192   0.495   3.700 -0.4439  0.8621 -0.2846
   45MOL   C10929237   7.181   0.346   3.737 -0.5433 -0.4612 -0.6125
   45MOL   C11029238   7.183   0.305   3.885 -0.0670 -0.4018 -0.1332
   45MOL   C11129239   7.036   0.317   3.944  0.0534 -0.1580 -0.9604
   45MOL   H11229240   7.345   1.113   3.293 -1.9922 -0.7004  0.0481
   45MOL   H11329241   7.435   1.040   3.415 -1.1357 -1.7295  0.4199
   45MOL   H11429242   7.223   1.164   3.561 -2.2773 -1.2743  0.6685
   45MOL   H11529243   7.324   0.936   3.588 -1.3526 -3.0065  0.9761
   45MOL   H11629244   7.149   0.935   3.560 -0.8651  1.2935 -0.8002
   45MOL   H11729245   7.189   0.853   3.335 -1.5249 -0.6227  1.0462
   45MOL   H11829246   7.360   0.855   3.358 -0.3316  3.1311  1.0131
   45MOL   H11929247   7.271   0.645   3.380 -0.3212  1.2590 -1.1613
   45MOL   H12029248   7.331   0.685   3.535  0.1394  0.7690 -0.7172
   45MOL   H12129249   7.084   0.742   3.612 -2.3645 -0.1052 -1.1554
   45MOL   H12229250   7.051   0.705   3.449 -1.0977 -1.7621  1.1039
   45MOL   H12329251   7.143   0.477   3.486  1.1788 -0.0390  1.0018
   45MOL   H12429252   7.002   0.498   3.583  0.7827 -1.9970 -1.0297
   45MOL   H12529253   7.297   0.522   3.691  0.9467 -3.3848  1.9476
   45MOL   H12629254   7.150   0.554   3.782  0.8564 -0.7983  1.6410
   45MOL   H12729255   7.082   0.321   3.698 -0.0816 -0.4506 -1.8165
   45MOL   H12829256   7.261   0.294   3.685  0.0053  0.6353 -0.8812
   45MOL   H12929257   7.252   0.365   3.944 -2.5290  0.2370  2.1486
   45MOL   H13029258   7.224   0.204   3.889  0.7824 -0.2331 -3.1159
   45MOL   H13129259   6.999   0.419   3.936 -3.0577 -1.3666 -3.3537
   45MOL   H13229260   6.964   0.253   3.892  0.2528 -1.0866 -0.1176
   45MOL   H13329261   7.030   0.285   4.048 -0.4743 -1.1695 -1.2987
   45MOL   C13429262   7.121   1.145   3.379  0.0534 -0.4646 -0.3144
   45MOL   C13529263   6.989   1.172   3.454 -0.5014 -0.1004  0.2655
   45MOL   C13629264   6.865   1.155   3.360  0.8894  0.5505 -0.6134
   45MOL   C13729265   6.824   1.012   3.320  0.9180  0.5261  0.4377
   45MOL   C13829266   6.722   0.937   3.408  0.7572  0.0568  0.5766
   45MOL   C13929267   6.718   0.790   3.347 -0.1457  0.2009  0.0458
   45MOL   C14029268   6.622   0.700   3.418  0.5166  0.6839 -0.0985
   45MOL   C14129269   6.676   0.658   3.547  0.3518 -0.0768 -0.5175
   45MOL   C14229270   6.582   0.558   3.619 -0.6248 -0.2616 -0.1405
   45MOL   C14329271   6.614   0.556   3.771  0.4771 -1.1370  0.6639
   45MOL   C14429272   6.743   0.478   3.788 -0.9148 -0.2426  0.4444
   45MOL   H14529273   7.148   1.242   3.338 -1.3807  0.8413  1.7438
   45MOL   H14629274   7.106   1.074   3.297 -0.9139 -1.1384  0.4285
   45MOL   H14729275   6.983   1.094   3.529 -1.8149 -0.7102 -0.4670
   45MOL   H14829276   6.880   1.216   3.272 -1.2112 -0.2057 -1.5196
   45MOL   H14929277   6.782   1.204   3.412 -0.6817 -0.7098 -1.8847
   45MOL   H15029278   6.784   1.026   3.220  1.7510 -0.4115 -0.0334
   45MOL   H15129279   6.910   0.946   3.309 -1.0580 -1.9076 -0.8633
   45MOL   H15229280   6.766   0.933   3.507 -0.7497  0.0995  1.2576
   45MOL   H15329281   6.624   0.985   3.411  0.0688 -1.2950 -0.1145
   45MOL   H15429282   6.681   0.804   3.245  1.2654  1.0767 -0.3614
   45MOL   H15529283   6.821   0.755   3.340 -0.2738 -0.1883  0.1580
   45MOL   H15629284   6.524   0.744   3.430  0.3059  0.7629 -1.9792
   45MOL   H15729285   6.606   0.617   3.349 -2.3598  1.2042 -0.0972
   45MOL   H15829286   6.775   0.614   3.539  0.4346  0.3624 -2.0863
   45MOL   H15929287   6.686   0.744   3.612  2.4395  0.2519 -1.2332
   45MOL   H16029288   6.482   0.596   3.602  0.0476  0.7011 -2.1333
   45MOL   H16129289   6.597   0.466   3.562 -0.0866  0.2457 -0.8212
   45MOL   H16229290   6.622   0.662   3.794 -0.0313 -0.8680 -0.3257
   45MOL   H16329291   6.537   0.502   3.826 -0.4462 -0.9504 -0.4208
   45MOL   H16429292   6.830   0.529   3.747 -1.0773 -1.2556 -1.2309
   45MOL   H16529293   6.731   0.378   3.745 -0.6009 -0.6671  1.3282
   45MOL   H16629294   6.756   0.460   3.895 -2.0087 -1.9427  0.3131
   45MOL   C16729295   6.995   1.308   3.531 -0.4379 -0.0988  0.5032
   45MOL   C16829296   6.962   1.305   3.681 -0.1647  0.1562  0.7499
   45MOL   C16929297   6.810   1.269   3.706 -0.0902  0.9295 -0.4443
   45MOL   C17029298   6.722   1.393   3.664 -0.3442  0.2494  0.0561
   45MOL   C17129299   6.572   1.362   3.672  0.3603 -0.3430  0.0381
   45MOL   C17229300   6.489   1.490   3.685  0.3160 -0.3564  0.3174
   45MOL   C17329301   6.346   1.480   3.666 -0.2372  0.8181  0.4396
   45MOL   C17429302   6.255   1.599   3.703  0.4163 -0.0498 -0.7976
   45MOL   C17529303   6.110   1.561   3.675  0.2962 -0.0147 -0.0126
   45MOL   C17629304   6.063   1.569   3.529 -0.0935 -0.3787  0.3749
   45MOL   C17729305   5.916   1.587   3.513  0.1693  0.4045 -0.2802
   45MOL   H17829306   7.096   1.343   3.510 -0.1433 -0.0198  1.9923
   45MOL   H17929307   6.935   1.377   3.472 -0.4323 -0.9885 -0.5487
   45MOL   H18029308   7.020   1.226   3.728 -0.7863 -1.3238 -0.9065
   45MOL   H18129309   6.809   1.254   3.814  0.5924  1.7850 -0.3089
   45MOL   H18229310   6.780   1.178   3.654  2.7051  0.2523 -0.9707
   45MOL   H18329311   6.738   1.474   3.736 -2.3699  0.4210  0.3425
   45MOL   H18429312   6.755   1.438   3.571 -1.0195  3.9095  1.4931
   45MOL   H18529313   6.552   1.305   3.763  1.0651 -1.5107 -0.5272
   45MOL   H18629314   6.548   1.301   3.585  2.0463 -0.4936 -0.3306
   45MOL   H18729315   6.509   1.552   3.773  3.9108  0.9314 -1.3178
   45MOL   H18829316   6.526   1.558   3.608 -1.9582  0.2619 -0.2645
   45MOL   H18929317   6.308   1.393   3.719 -0.9575  0.8083 -0.0922
   45MOL   H19029318   6.326   1.454   3.562  0.0947 -1.8120  1.0054
   45MOL   H19129319   6.261   1.634   3.807  1.3169 -1.8004 -0.2399
   45MOL   H19229320   6.286   1.681   3.639  1.0321  1.0413  0.8411
   45MOL   H19329321   6.055   1.639   3.728 -0.5974 -0.9266  0.4252
   45MOL   H19429322   6.088   1.465   3.721  0.7582 -0.1702 -0.1168
   45MOL   H19529323   6.091   1.491   3.459  0.0977 -0.2181  0.2731
   45MOL   H19629324   6.112   1.657   3.487 -0.3077 -0.8700 -0.9264
   45MOL   H19729325   5.900   1.581   3.405  3.3790  0.7146 -0.8059
   45MOL   H19829326   5.882   1.682   3.554  1.0499  0.8978 -0.6784
   45MOL   H19929327   5.862   1.513   3.573 -2.8660  2.6762 -0.0746
   45MOL   C20029328   7.010   1.445   3.742  0.2221  0.2354 -0.7536
   45MOL   C20129329   6.981   1.484   3.892  0.4844 -0.7338  0.2637
   45MOL   C20229330   6.995   1.638   3.908 -0.1581 -0.3147  0.1056
   45MOL   C20329331   6.877   1.718   3.843  0.2176 -0.7262 -0.0095
   45MOL   C20429332   6.885   1.865   3.850  0.3437 -0.7503  0.2036
   45MOL   C20529333   6.746   1.934   3.836 -0.1775 -0.5341  0.2237
   45MOL   C20629334   6.752   2.083   3.821 -0.2371  0.5211  0.2586
   45MOL   C20729335   6.616   2.142   3.833 -0.1729 -0.7298  0.8077
   45MOL   C20829336   6.602   2.278   3.761  0.7657  0.6792 -0.2684
   45MOL   C20929337   6.455   2.320   3.754 -0.1845  0.1671 -0.2914
   45MOL   C21029338   6.378   2.251   3.643 -0.1277 -0.0604  0.2138
   45MOL   H21129339   7.115   1.464   3.716  0.2651  1.5003  0.3162
   45MOL   H21229340   6.984   1.529   3.678  2.4734  2.0855  0.6479
   45MOL   H21329341   6.880   1.461   3.925 -0.3248 -0.3851 -1.8666
   45MOL   H21429342   7.088   1.662   3.856  1.0459  0.0260  2.3647
   45MOL   H21529343   7.016   1.669   4.010  1.1847 -0.4383 -0.1130
   45MOL   H21629344   6.782   1.699   3.893  0.5608  0.2882  1.0610
   45MOL   H21729345   6.873   1.683   3.740  1.6774 -0.7245 -0.0829
   45MOL   H21829346   6.941   1.912   3.769 -0.7903  0.1909 -0.0387
   45MOL   H21929347   6.928   1.890   3.948 -1.7003 -0.5311  1.0651
   45MOL   H22029348   6.704   1.896   3.743 -0.2155 -1.5225  0.6408
   45MOL   H22129349   6.684   1.901   3.919  0.8482 -3.4069 -0.0744
   45MOL   H22229350   6.817   2.112   3.738  1.8966  3.5441  2.8639
   45MOL   H22329351   6.813   2.128   3.900 -1.7731  0.1255  1.6953
   45MOL   H22429352   6.571   2.143   3.932 -2.5515 -0.7318 -0.2404
   45MOL   H22529353   6.552   2.066   3.789 -1.4917  1.2283 -0.8197
   45MOL   H22629354   6.656   2.265   3.668  3.1987 -0.6083  1.2672
   45MOL   H22729355   6.662   2.357   3.805 -1.0295  2.3468 -0.7410
   45MOL   H22829356   6.405   2.299   3.849  0.3013  1.5828  0.2991
   45MOL   H22929357   6.449   2.427   3.735 -1.1139  0.1789  0.0143
   45MOL   H23029358   6.273   2.276   3.654 -0.2205 -0.4157  0.1296
   45MOL   H23129359   6.380   2.143   3.651  0.2573 -0.0105  0.7794
   45MOL   H23229360   6.424   2.272   3.546  1.2415 -0.8605  0.6846
   45MOL   C23329361   7.070   1.399   3.977  0.2754 -0.5659  0.1111
   45MOL   C23429362   7.031   1.370   4.122 -0.1046 -0.0495  0.2820
   45MOL   C23529363   7.150   1.314   4.206  0.1206 -0.3223  0.7490
   45MOL   C23629364   7.275   1.406   4.199 -0.3688  0.0989 -0.2793
   45MOL   C23729365   7.380   1.364   4.309 -0.0478 -0.7878  0.9617
   45MOL   C23829366   7.484   1.480   4.306 -0.1227 -0.3620  0.2046
   45MOL   C23929367   7.589   1.467   4.421  0.7992 -0.2787  0.7949
   45MOL   C24029368   7.695   1.574   4.401  0.1483  0.0473  0.1591
   45MOL   C24129369   0.084   1.587   4.521  0.6643  0.3696  0.6007
   45MOL   C24229370   0.183   1.703   4.504 -0.1125  0.2523 -0.2175
   45MOL   C24329371   0.257   1.740   4.629 -0.1604  0.6430  0.0630
   45MOL   H24429372   7.169   1.436   3.953  0.2642 -0.0929  0.7791
   45MOL   H24529373   7.068   1.298   3.935 -0.5835 -1.0561  1.2952
   45MOL   H24629374   7.006   1.461   4.177  1.0282  0.6692 -0.3592
   45MOL   H24729375   7.119   1.310   4.310 -0.4159 -3.2126  0.5242
   45MOL   H24829376   7.182   1.214   4.174 -0.1259 -0.6591  1.5564
   45MOL   H24929377   7.252   1.509   4.224 -1.6335 -0.1114 -0.5418
   45MOL   H25029378   7.314   1.400   4.098 -1.5990  0.6097 -0.7961
   45MOL   H25129379   7.416   1.264   4.286  4.0692  0.7583  0.2868
   45MOL   H25229380   7.344   1.367   4.412  1.4146  1.2621  1.4317
   45MOL   H25329381   7.431   1.575   4.308 -0.5748 -0.6328  2.5673
   45MOL   H25429382   7.534   1.478   4.209 -1.0056  0.3612 -0.2726
   45MOL   H25529383   7.548   1.488   4.519 -2.4189  1.2574 -0.8108
   45MOL   H25629384   7.631   1.366   4.418 -1.7826 -1.3694 -2.4288
   45MOL   H25729385   0.058   1.569   4.315  0.6510 -0.4850  0.5706
   45MOL   H25829386   7.640   1.668   4.392  0.7662  0.6173  2.0083
   45MOL   H25929387   0.025   1.607   4.610 -1.7877  0.8263 -1.0767
   45MOL   H26029388   0.150   1.501   4.534 -0.2014 -0.7007 -1.7735
   45MOL   H26129389   0.134   1.791   4.461  2.5889  1.1562 -1.5196
   45MOL   H26229390   0.241   1.686   4.413 -1.0255  2.2491 -1.2198
   45MOL   H26329391   0.297   1.653   4.681 -2.6949  0.2664  1.4253
   45MOL   H26429392   0.192   1.790   4.701 -0.0233  0.7478  0.1139
   45MOL   H26529393   0.344   1.804   4.611  0.5633  0.0974  1.5955
   45MOL   C26629394   6.908   1.276   4.128  0.5578  0.1924 -1.3192
   45MOL   C26729395   6.811   1.297   4.247 -0.4529  0.1484  0.3570
   45MOL   C26829396   6.723   1.166   4.277  0.3962 -0.0088  0.1182
   45MOL   C26929397   6.634   1.109   4.161 -0.2022 -0.6473 -0.2226
   45MOL   C27029398   6.603   0.967   4.192 -0.2930 -1.2256 -0.4262
   45MOL   C27129399   6.474   0.918   4.126 -0.0101  0.1240 -0.0132
   45MOL   C27229400   6.489   0.927   3.972 -0.4589  0.0529 -0.3423
   45MOL   C27329401   6.365   0.926   3.893 -0.0614 -0.2938  0.1442
   45MOL   C27429402   6.378   0.893   3.742 -0.4213  1.1276  0.1414
   45MOL   C27529403   6.426   1.010   3.655  0.5696  0.6436 -0.2437
   45MOL   C27629404   6.321   1.125   3.653  0.6278  0.2322  0.8246
   45MOL   H27729405   6.933   1.171   4.117 -1.6579 -0.3768 -1.2181
   45MOL   H27829406   6.835   1.289   4.048 -1.0952 -0.8347 -0.0035
   45MOL   H27929407   6.874   1.318   4.334  0.3197 -1.4734  0.1985
   45MOL   H28029408   6.793   1.086   4.302 -0.9528 -1.4305 -0.5191
   45MOL   H28129409   6.670   1.183   4.370  0.4792 -0.7500  0.3054
   45MOL   H28229410   6.686   1.113   4.065  2.2011  0.7431  1.0858
   45MOL   H28329411   6.545   1.171   4.156 -1.0466 -1.9028 -1.0641
   45MOL   H28429412   6.593   0.970   4.301  0.7769 -0.5543 -0.3347
   45MOL   H28529413   6.687   0.900   4.173 -0.9155 -2.1522  0.0310
   45MOL   H28629414   6.387   0.980   4.149  0.0380  0.6993 -1.3193
   45MOL   H28729415   6.449   0.815   4.152  0.3916 -0.2208 -0.9581
   45MOL   H28829416   6.543   1.017   3.941  0.8346 -0.2452  0.9837
   45MOL   H28929417   6.551   0.841   3.946  0.3806  1.0079 -1.5840
   45MOL   H29029418   6.293   1.008   3.898 -1.9951 -1.6854 -3.5624
   45MOL   H29129419   6.312   0.836   3.925  1.2004 -1.2859 -0.5109
   45MOL   H29229420   6.448   0.814   3.713  0.7351  1.8961  0.8108
   45MOL   H29329421   6.284   0.867   3.695 -0.4763 -0.9871  1.3733
   45MOL   H29429422   6.444   0.971   3.555 -0.2875 -0.9201  0.1898
   45MOL   H29529423   6.521   1.052   3.688  1.9910 -2.3453 -0.3422
   45MOL   H29629424   6.217   1.091   3.656  0.2925  1.3033  1.6093
   45MOL   H29729425   6.320   1.187   3.563  1.3682 -1.6908 -0.5386
   45MOL   H29829426   6.336   1.192   3.737  0.7385  1.0312  0.1750
   45MOL   C29929427   6.725   1.422   4.230  0.0817 -0.0662  0.7243
   45MOL   C30029428   6.628   1.475   4.341  0.0312 -0.1568 -0.0163
   45MOL   C30129429   6.528   1.584   4.279 -0.6714 -0.5281  0.0928
   45MOL   C30229430   6.598   1.709   4.221 -0.1585 -0.1243  0.3975
   45MOL   C30329431   6.495   1.817   4.174 -0.4319  0.5008 -1.5863
   45MOL   C30429432   6.400   1.792   4.056 -0.4084  0.1829  0.0595
   45MOL   C30529433   6.319   1.917   4.026  1.0596  0.5439 -0.6602
   45MOL   C30629434   6.266   1.924   3.884 -0.9056 -0.2770 -0.5253
   45MOL   C30729435   6.151   2.025   3.865 -0.2268  0.5252 -0.2103
   45MOL   C30829436   6.092   2.022   3.719  0.4179 -1.0333 -0.6568
   45MOL   C30929437   5.977   2.119   3.702  0.4958 -0.3794 -0.0366
   45MOL   H31029438   6.669   1.411   4.137  1.7285  2.7900 -0.6502
   45MOL   H31129439   6.783   1.513   4.216 -3.0013  1.9537  0.4277
   45MOL   H31229440   6.567   1.393   4.378  1.1805 -1.8839 -1.8827
   45MOL   H31329441   6.470   1.535   4.200 -1.3155  0.7503 -0.2403
   45MOL   H31429442   6.457   1.613   4.357  0.2346 -1.7153  1.3747
   45MOL   H31529443   6.656   1.758   4.298  0.1495 -0.7923  0.5966
   45MOL   H31629444   6.655   1.683   4.132  0.5333  0.6741  0.6073
   45MOL   H31729445   6.431   1.851   4.255  2.6556 -0.4688  1.3533
   45MOL   H31829446   6.559   1.904   4.158  0.6892 -0.2676 -1.3542
   45MOL   H31929447   6.334   1.706   4.065 -2.3215  1.5218 -0.8799
   45MOL   H32029448   6.459   1.760   3.969 -2.2852 -1.9808 -0.4541
   45MOL   H32129449   6.240   1.913   4.101  1.0933 -2.2613 -0.7104
   45MOL   H32229450   6.379   2.008   4.036 -0.5090  1.5609 -0.4055
   45MOL   H32329451   6.234   1.826   3.850  0.8664 -0.3813 -1.9843
   45MOL   H32429452   6.354   1.951   3.825 -0.7711 -1.4539 -0.8790
   45MOL   H32529453   6.188   2.123   3.895 -0.2242  0.2563  0.6637
   45MOL   H32629454   6.072   2.004   3.937  0.1979 -0.2709  0.0238
   45MOL   H32729455   6.056   1.923   3.690  1.9120 -1.2536 -1.8284
   45MOL   H32829456   6.172   2.053   3.651  1.2400  1.5370  1.4087
   45MOL   H32929457   5.913   2.119   3.790  1.1560 -0.1218  0.4436
   45MOL   H33029458   6.021   2.219   3.701  0.7525 -0.5004 -1.0995
   45MOL   H33129459   5.914   2.115   3.614  2.7408  2.3376 -1.8862
   45MOL   C33229460   6.711   1.500   4.469  0.0767 -0.5052  0.0625
   45MOL   C33329461   6.632   1.533   4.596 -0.2794 -0.5148  0.4216
   45MOL   C33429462   6.716   1.603   4.708  0.0495  0.6999 -0.1967
   45MOL   C33529463   6.771   1.741   4.681  0.2001 -0.1807 -0.3726
   45MOL   C33629464   6.669   1.840   4.625  0.0945  0.0167  0.3617
   45MOL   C33729465   6.573   1.885   4.735  0.3093 -0.1441 -0.2497
   45MOL   C33829466   6.464   1.976   4.674  0.0900 -0.0062 -0.1850
   45MOL   C33929467   6.371   2.037   4.779  0.0890  0.1928 -0.1879
   45MOL   C34029468   6.271   2.137   4.717 -0.4761  0.0674 -0.1069
   45MOL   C34129469   6.198   2.225   4.827  0.9919 -0.5268 -0.1372
   45MOL   C34229470   6.081   2.300   4.767  0.1187 -0.3612 -0.1845
   45MOL   H34329471   6.769   1.411   4.491 -2.0864 -2.0536 -0.2992
   45MOL   H34429472   6.787   1.572   4.440 -0.0277 -0.4371 -0.0406
   45MOL   H34529473   6.551   1.601   4.571  1.0784  0.7840 -0.5834
   45MOL   H34629474   6.792   1.545   4.760  0.4760  1.6589  0.2557
   45MOL   H34729475   6.639   1.619   4.783  0.9519 -0.2557  0.9482
   45MOL   H34829476   6.826   1.778   4.768 -1.6335 -1.2148  1.2399
   45MOL   H34929477   6.846   1.727   4.603  1.1802 -1.0584  0.7115
   45MOL   H35029478   6.728   1.927   4.596 -0.8035  1.8305  3.7151
   45MOL   H35129479   6.610   1.808   4.539  0.3019  1.5181 -0.3487
   45MOL   H35229480   6.624   1.946   4.810  0.5767  0.1430 -0.6622
   45MOL   H35329481   6.518   1.800   4.774 -0.3414  1.0604  1.5106
   45MOL   H35429482   6.399   1.916   4.609 -0.6991 -2.9481  3.1955
   45MOL   H35529483   6.516   2.054   4.617 -0.8189  0.8176  0.0931
   45MOL   H35629484   6.320   1.957   4.832  0.9936 -0.8825 -0.9180
   45MOL   H35729485   6.430   2.102   4.844 -2.3959  1.4959  0.8443
   45MOL   H35829486   6.197   2.086   4.655 -1.7671 -1.7912  2.8627
   45MOL   H35929487   6.331   2.199   4.650  1.1559 -0.4170  0.8871
   45MOL   H36029488   6.263   2.295   4.880  0.0425 -0.2047  0.6190
   45MOL   H36129489   6.153   2.149   4.891 -0.9852  0.6054 -0.1309
   45MOL   H36229490   6.002   2.228   4.746  1.3667 -0.7670 -3.8327
   45MOL   H36329491   6.043   2.362   4.848  0.1867 -0.7865  0.1765
   45MOL   H36429492   6.099   2.366   4.682 -1.1545  0.4343  0.1506
   45MOL   C36529493   6.570   1.397   4.648  0.1585  0.1573  0.3863
   45MOL   C36629494   6.413   1.398   4.646  0.5994  0.2609 -0.0932
   45MOL   C36729495   6.356   1.256   4.668  0.2112  0.6788 -1.1458
   45MOL   C36829496   6.367   1.154   4.547  0.0331 -0.1369 -0.0989
   45MOL   C36929497   6.289   1.024   4.572 -0.4567 -0.0406 -0.1697
   45MOL   C37029498   6.281   0.936   4.449  0.3764  0.3433 -1.0552
   45MOL   C37129499   6.178   0.828   4.439  0.1914  0.2798  0.5921
   45MOL   C37229500   6.169   0.765   4.302 -0.3398 -0.1993 -0.2032
   45MOL   C37329501   6.071   0.642   4.291 -0.1026 -0.1752  0.2337
   45MOL   C37429502   6.070   0.601   4.145  0.6499  0.3709 -0.1668
   45MOL   C37529503   6.197   0.544   4.092 -0.2969 -0.7609  0.4038
   45MOL   H37629504   6.606   1.303   4.606  0.6281 -1.0420  3.3409
   45MOL   H37729505   6.600   1.382   4.751  1.7000  2.4209  0.2984
   45MOL   H37829506   6.375   1.432   4.549  1.3195  1.9709  0.2120
   45MOL   H37929507   6.249   1.269   4.687  0.5157  1.6825 -0.0767
   45MOL   H38029508   6.391   1.205   4.758  1.0751  1.5455 -0.9890
   45MOL   H38129509   6.474   1.134   4.540 -0.1782 -0.7001 -1.8643
   45MOL   H38229510   6.345   1.209   4.456 -0.7252  0.3772  0.3904
   45MOL   H38329511   6.191   1.063   4.599 -0.4748 -0.4739  0.4160
   45MOL   H38429512   6.331   0.963   4.653  0.3610 -1.3220 -1.5360
   45MOL   H38529513   6.374   0.879   4.454  1.2015  1.7216 -0.0962
   45MOL   H38629514   6.282   0.987   4.353 -0.2216 -0.8996 -1.7291
   45MOL   H38729515   6.201   0.742   4.503 -2.2763 -1.4092 -0.7174
   45MOL   H38829516   6.087   0.881   4.467  1.0897  0.9784  2.3062
   45MOL   H38929517   6.274   0.751   4.277 -0.2475  0.4438 -0.1853
   45MOL   H39029518   6.131   0.838   4.230  1.3862 -0.0212 -0.9595
   45MOL   H39129519   6.101   0.550   4.341  0.9422 -0.7313 -1.3726
   45MOL   H39229520   5.976   0.663   4.341  0.0096  1.4219 -0.1999
   45MOL   H39329521   5.989   0.529   4.131  1.5231 -0.1761 -2.7055
   45MOL   H39429522   6.033   0.684   4.084  0.3985  0.2812 -0.1358
   45MOL   H39529523   6.273   0.619   4.068 -1.0386  0.1276  0.7842
   45MOL   H39629524   6.170   0.495   3.999  2.2139 -0.4107 -0.5598
   45MOL   H39729525   6.244   0.466   4.152 -0.5896 -1.1363  0.1513
   45MOL   C39829526   6.349   1.514   4.742  0.3015 -0.0046  0.1024
   45MOL   C39929527   6.195   1.539   4.739  0.5758 -0.4517 -0.0506
   45MOL   C40029528   6.142   1.666   4.670 -0.0955 -0.1316 -0.1044
   45MOL   C40129529   6.159   1.662   4.516 -0.2814 -0.3426  0.2704
   45MOL   C40229530   6.084   1.775   4.459  0.8425  0.4885 -0.6184
   45MOL   C40329531   6.083   1.766   4.310 -0.2727  0.0443  0.2841
   45MOL   C40429532   6.018   1.645   4.246 -0.9771  0.3922 -0.7192
   45MOL   C40529533   5.989   1.667   4.097  0.3824 -0.1851  0.0601
   45MOL   C40629534   5.945   1.531   4.025  0.0842  0.3152 -0.2061
   45MOL   C40729535   6.059   1.420   4.021 -0.1587  0.2057 -0.1470
   45MOL   C40829536   6.004   1.284   3.982  0.2922 -0.2526  0.4466
   45MOL   H40929537   6.389   1.611   4.714 -2.3028  1.0584 -0.1390
   45MOL   H41029538   6.376   1.495   4.846 -1.3447 -0.0388  0.5397
   45MOL   H41129539   6.144   1.454   4.696 -2.7613  2.3345 -1.7987
   45MOL   H41229540   6.185   1.759   4.706 -1.3097  1.0808 -1.7035
   45MOL   H41329541   6.033   1.669   4.677 -0.1329 -0.6327 -0.4324
   45MOL   H41429542   6.264   1.676   4.492  0.2100 -0.0810  2.4441
   45MOL   H41529543   6.130   1.562   4.484  1.2101 -1.1137  1.2944
   45MOL   H41629544   5.983   1.771   4.502  0.7881 -0.3649 -0.8058
   45MOL   H41729545   6.113   1.875   4.490 -1.9762  1.0691  0.3408
   45MOL   H41829546   6.181   1.783   4.266 -0.0338  2.7276  1.7226
   45MOL   H41929547   6.022   1.851   4.278 -0.0752  0.0433 -0.0963
   45MOL   H42029548   6.074   1.552   4.262 -0.6598  0.7780  0.5240
   45MOL   H42129549   5.927   1.634   4.305  0.4686 -3.1291  1.0525
   45MOL   H42229550   6.069   1.721   4.047  1.4253 -1.0143  0.8007
   45MOL   H42329551   5.908   1.739   4.086  0.3639 -0.0092  1.2720
   45MOL   H42429552   5.859   1.485   4.074  0.4780  0.5442  0.7037
   45MOL   H42529553   5.909   1.545   3.923  1.2983  3.0821 -0.2765
   45MOL   H42629554   6.106   1.423   4.120 -0.5396  0.0693  0.0378
   45MOL   H42729555   6.137   1.449   3.951 -0.0781  0.8884  0.2200
   45MOL   H42829556   5.949   1.296   3.888  0.7494 -1.3113  0.0339
   45MOL   H42929557   5.936   1.251   4.060  1.9289 -0.0850  1.9682
   45MOL   H43029558   6.085   1.211   3.981  0.6333  0.1079 -1.2654
   45MOL   C43129559   6.132   1.544   4.878 -0.0981 -0.0435 -0.0814
   45MOL   C43229560   6.131   1.405   4.955  0.1071  0.3366 -0.1043
   45MOL   C43329561   5.988   1.357   4.971  0.1455 -0.7351 -0.1578
   45MOL   C43429562   5.920   1.320   4.834  1.0052 -0.0533  0.7253
   45MOL   C43529563   5.768   1.315   4.844  0.1588  0.3091 -0.0990
   45MOL   C43629564   5.696   1.452   4.861  0.5328  1.0912 -0.3255
   45MOL   C43729565   5.544   1.443   4.898 -0.3690  0.3540  0.0474
   45MOL   C43829566   5.465   1.574   4.904  0.5497 -0.4086  0.3299
   45MOL   C43929567   5.496   1.669   5.020  1.3235 -0.6045  0.8648
   45MOL   C44029568   5.454   1.812   4.984 -0.0072 -1.0365  0.2695
   45MOL   C44129569   5.575   1.881   4.914 -0.1397  0.3468  0.4344
   45MOL   H44229570   6.029   1.578   4.872  0.8376  2.9868  0.2502
   45MOL   H44329571   6.191   1.616   4.935  1.0694  0.4511 -1.8788
   45MOL   H44429572   6.180   1.331   4.891 -0.5349 -0.7336  0.6312
   45MOL   H44529573   5.971   1.271   5.035 -1.9533  1.1926  1.9499
   45MOL   H44629574   5.924   1.437   5.008  0.5570 -0.1652 -0.6567
   45MOL   H44729575   5.959   1.229   4.789 -0.2598  0.2808 -1.0972
   45MOL   H44829576   5.937   1.394   4.756 -0.8714 -0.7264 -0.3438
   45MOL   H44929577   5.747   1.254   4.932 -2.3117 -0.6732 -1.3269
   45MOL   H45029578   5.731   1.257   4.759  1.5165  0.3441 -0.7182
   45MOL   H45129579   5.710   1.514   4.773 -1.2976  1.8861 -0.0802
   45MOL   H45229580   5.757   1.509   4.931 -0.6384  2.5937 -0.5052
   45MOL   H45329581   5.525   1.405   4.998 -2.4383  1.1392 -0.0280
   45MOL   H45429582   5.496   1.370   4.834  1.9494  0.0159 -1.3559
   45MOL   H45529583   5.469   1.625   4.807  2.7394 -1.1306  0.0207
   45MOL   H45629584   5.358   1.555   4.915  0.1845  2.0335  1.3205
   45MOL   H45729585   5.604   1.662   5.032  1.3806 -0.7829  0.2819
   45MOL   H45829586   5.451   1.628   5.111 -0.0590  1.3371  1.0645
   45MOL   H45929587   5.423   1.863   5.076 -1.8797 -0.4989 -0.6389
   45MOL   H46029588   5.364   1.816   4.923 -0.0520 -0.1675  0.3738
   45MOL   H46129589   5.536   1.964   4.856 -0.2282 -0.4396 -0.6424
   45MOL   H46229590   5.647   1.932   4.977  1.2442 -0.5410 -0.4127
   45MOL   H46329591   5.631   1.821   4.842 -0.4634  1.3686 -0.6877
   45MOL   C46429592   6.210   1.415   5.088  0.2258 -0.7087 -0.2128
   45MOL   C46529593   6.245   1.284   5.154  0.2733  0.7069  0.1059
   45MOL   C46629594   6.367   1.221   5.086 -0.0769  0.1819  0.0156
   45MOL   C46729595   6.377   1.073   5.113  0.9791  0.3745 -0.3641
   45MOL   C46829596   6.485   1.004   5.028  0.1443  0.7894 -0.1711
   45MOL   C46929597   6.503   0.853   5.058 -0.5256 -0.1437  0.4662
   45MOL   C47029598   6.637   0.796   5.000 -0.7070 -0.1080  0.2722
   45MOL   C47129599   6.644   0.645   4.987  1.0914  0.3879 -1.1705
   45MOL   C47229600   6.775   0.594   4.922 -0.3523  0.1730 -0.4624
   45MOL   C47329601   6.897   0.622   5.005 -0.7036 -0.0119  0.0891
   45MOL   C47429602   7.029   0.555   4.954 -0.0361 -0.5964  0.0034
   45MOL   H47529603   6.156   1.487   5.150  0.7996  0.2320 -0.7834
   45MOL   H47629604   6.296   1.478   5.066 -1.3624  1.5180 -0.2103
   45MOL   H47729605   6.168   1.208   5.140  1.0863 -0.3836  1.4332
   45MOL   H47829606   6.456   1.272   5.123  1.5662 -2.1636 -0.5882
   45MOL   H47929607   6.367   1.249   4.980  3.2975 -0.1368 -0.1315
   45MOL   H48029608   6.404   1.044   5.214  0.3011 -0.5843 -0.4465
   45MOL   H48129609   6.280   1.023   5.104  1.3213 -0.3039 -0.2608
   45MOL   H48229610   6.585   1.048   5.029  1.3319 -1.8757  0.5237
   45MOL   H48329611   6.472   1.016   4.920  3.1745 -3.2529 -1.1002
   45MOL   H48429612   6.485   0.833   5.164  0.0642 -0.2278  0.5518
   45MOL   H48529613   6.422   0.804   5.004 -0.5643 -2.0293  2.1658
   45MOL   H48629614   6.653   0.838   4.901  0.0338  1.9401  1.2499
   45MOL   H48729615   6.721   0.840   5.053 -0.3466 -1.7045  1.0826
   45MOL   H48829616   6.631   0.594   5.082  2.6043  2.8962  0.4296
   45MOL   H48929617   6.560   0.624   4.921  0.2025 -0.5279  0.2454
   45MOL   H49029618   6.755   0.487   4.923 -1.6963  0.4240 -0.6320
   45MOL   H49129619   6.788   0.620   4.817 -1.5130  1.5981 -0.2619
   45MOL   H49229620   6.916   0.729   4.999 -2.6636  0.3550  0.1051
   45MOL   H49329621   6.877   0.601   5.110  0.9428  1.3783  0.6879
   45MOL   H49429622   7.037   0.449   4.976  2.2551 -0.7548 -1.4414
   45MOL   H49529623   7.110   0.606   5.004  0.9693 -0.9752 -1.2044
   45MOL   H49629624   7.052   0.583   4.851 -0.1989 -0.8310 -0.0986
   45MOL   C49729625   6.267   1.298   5.302  0.4093  0.0826  1.2660
   45MOL   C49829626   6.144   1.323   5.387  0.5582 -0.2141  0.5398
   45MOL   C49929627   6.175   1.398   5.520 -0.4594 -0.2690  0.4204
   45MOL   C50029628   6.191   1.551   5.499  0.0556  0.2407 -0.5673
   45MOL   C50129629   6.256   1.616   5.627 -0.4115 -0.2991  0.4352
   45MOL   C50229630   6.282   1.768   5.634 -0.3280  0.5347  0.1466
   45MOL   C50329631   6.413   1.825   5.579 -0.3094 -0.2607  0.3391
   45MOL   C50429632   6.424   1.977   5.574 -0.7168 -0.3886  0.3271
   45MOL   C50529633   6.551   2.015   5.509  0.4325 -0.6611 -0.0513
   45MOL   C50629634   6.583   2.168   5.513  0.3903  0.0799  0.2808
   45MOL   C50729635   6.721   2.194   5.444 -0.8601 -0.3715  0.0065
   45MOL   H50829636   6.302   1.203   5.341 -0.0700 -1.1536 -1.2306
   45MOL   H50929637   6.343   1.375   5.316 -0.5417  0.8303  2.4258
   45MOL   H51029638   6.073   1.387   5.334  1.6133 -0.3550 -1.0767
   45MOL   H51129639   6.266   1.360   5.566 -1.1380 -2.7135 -0.2048
   45MOL   H51229640   6.101   1.388   5.599  0.2470 -2.6157  0.8190
   45MOL   H51329641   6.093   1.597   5.488  0.0936  0.9391  1.6771
   45MOL   H51429642   6.254   1.577   5.415  0.7107  2.3926  0.5421
   45MOL   H51529643   6.197   1.598   5.717 -0.8353  0.4695  0.3133
   45MOL   H51629644   6.356   1.574   5.641  0.2308  0.8316 -0.6427
   45MOL   H51729645   6.205   1.821   5.577 -0.5431 -0.4584 -0.4906
   45MOL   H51829646   6.254   1.796   5.736 -1.2574  1.0338 -0.2368
   45MOL   H51929647   6.481   1.788   5.656 -1.6478  2.3732  2.9246
   45MOL   H52029648   6.425   1.782   5.480 -0.3086 -0.5688  0.4731
   45MOL   H52129649   6.433   2.020   5.674 -3.8279  0.2882  0.3551
   45MOL   H52229650   6.330   2.010   5.530 -0.7136  0.3968  0.9023
   45MOL   H52329651   6.551   1.977   5.407  1.2070 -0.3673 -0.1596
   45MOL   H52429652   6.636   1.964   5.554  0.6700  1.3179  1.8637
   45MOL   H52529653   6.578   2.212   5.613 -1.2754  0.0980  0.2090
   45MOL   H52629654   6.500   2.206   5.453  0.7228 -0.9196 -0.8185
   45MOL   H52729655   6.736   2.301   5.432 -1.1518 -0.3678 -0.3383
   45MOL   H52829656   6.716   2.161   5.340 -0.0921  0.9363 -0.4553
   45MOL   H52929657   6.798   2.141   5.501 -1.1007 -1.7506 -0.9290
   45MOL   C53029658   6.069   1.187   5.425 -0.0902  0.6918 -0.3792
   45MOL   C53129659   5.916   1.207   5.440 -0.4146 -0.6163  0.5018
   45MOL   C53229660   5.847   1.101   5.528  0.0711 -0.2849  0.1604
   45MOL   C53329661   5.861   1.133   5.683 -0.5671 -0.0559 -0.0707
   45MOL   C53429662   5.798   1.030   5.780  0.1896 -0.0368  0.1609
   45MOL   C53529663   5.797   1.070   5.925 -0.7249  1.0318  0.4317
   45MOL   C53629664   5.738   1.214   5.937 -0.0432 -0.0065 -0.9384
   45MOL   C53729665   5.690   1.250   6.079  0.2501 -0.2863 -0.6725
   45MOL   C53829666   5.675   1.400   6.091 -0.6944 -0.6914 -0.0915
   45MOL   C53929667   5.677   1.447   6.236 -0.0954  0.7785  0.2170
   45MOL   C54029668   5.715   1.597   6.233 -0.5225  0.2695 -0.3464
   45MOL   H54129669   6.091   1.109   5.352  1.4234  0.8759 -0.1409
   45MOL   H54229670   6.108   1.151   5.520  0.6431  1.0142 -0.5515
   45MOL   H54329671   5.908   1.297   5.502  0.3717  0.6337 -1.1803
   45MOL   H54429672   5.884   0.999   5.516 -0.1659 -0.4378  0.6758
   45MOL   H54529673   5.740   1.102   5.506 -0.3110 -1.7687  1.7556
   45MOL   H54629674   5.817   1.229   5.710 -2.4730 -1.0118  0.2853
   45MOL   H54729675   5.967   1.144   5.708 -1.1350 -0.0743  2.5234
   45MOL   H54829676   5.834   0.927   5.780 -0.6703 -0.3405  0.8565
   45MOL   H54929677   5.694   1.013   5.753  0.2554 -1.0050  0.4744
   45MOL   H55029678   5.894   1.051   5.971 -1.0894 -0.1828  0.7207
   45MOL   H55129679   5.735   0.990   5.964 -0.5088 -0.7609 -2.7449
   45MOL   H55229680   5.649   1.224   5.874 -0.0003  4.1463 -0.4888
   45MOL   H55329681   5.814   1.285   5.905  0.3377  1.4663  2.9331
   45MOL   H55429682   5.759   1.205   6.150  2.1718  3.6899  0.0624
   45MOL   H55529683   5.592   1.210   6.106  0.5732 -0.0817  0.8331
   45MOL   H55629684   5.595   1.447   6.034 -1.8816  2.0747  3.6487
   45MOL   H55729685   5.762   1.450   6.047 -0.2268 -1.0399  0.4378
   45MOL   H55829686   5.747   1.398   6.304 -2.3067 -2.6645  0.1099
   45MOL   H55929687   5.578   1.438   6.280  0.4171 -2.3236  0.8461
   45MOL   H56029688   5.822   1.613   6.224 -0.2613 -0.8195  0.5799
   45MOL   H56129689   5.666   1.638   6.145 -0.5987  0.6389 -0.1347
   45MOL   H56229690   5.676   1.665   6.310 -0.3144 -2.1598  1.9956
   45MOL   C56329691   5.840   1.228   5.303 -0.4250  1.0133  0.1667
   45MOL   C56429692   5.701   1.297   5.306 -0.0013  0.0246 -0.5182
   45MOL   C56529693   5.587   1.216   5.227 -0.9340  0.1433  0.0219
   45MOL   C56629694   5.448   1.272   5.243  0.6307  0.0225  0.3491
   45MOL   C56729695   5.327   1.203   5.176  0.9990 -0.0980  0.6618
   45MOL   C56829696   5.188   1.269   5.205 -0.8101  0.1241 -0.7024
   45MOL   C56929697   5.170   1.412   5.152 -0.8143 -0.0497  0.7588
   45MOL   C57029698   5.050   1.493   5.196 -0.0383 -0.1252  0.2378
   45MOL   C57129699   5.060   1.642   5.160 -0.2005 -0.5760  0.2011
   45MOL   C57229700   4.925   1.720   5.157  0.0281  0.2482  0.1081
   45MOL   C57329701   4.948   1.874   5.162 -0.2769  0.3528 -0.5445
   45MOL   H57429702   5.821   1.131   5.256  1.3289  0.2339  1.0261
   45MOL   H57529703   5.908   1.270   5.229  1.8557  0.8908  2.1274
   45MOL   H57629704   5.663   1.271   5.405  1.9304 -2.2061 -0.3108
   45MOL   H57729705   5.586   1.113   5.261 -0.3352  0.3378  0.6346
   45MOL   H57829706   5.604   1.201   5.121  0.0386  0.2705  0.1562
   45MOL   H57929707   5.436   1.379   5.224 -0.0563 -0.2969 -1.1429
   45MOL   H58029708   5.432   1.257   5.349  0.8358 -1.3418  0.1946
   45MOL   H58129709   5.332   1.102   5.214  2.2584  0.2788  1.5476
   45MOL   H58229710   5.344   1.179   5.071  1.5513  1.3864  0.3926
   45MOL   H58329711   5.112   1.205   5.159 -0.5964 -1.1163  0.6541
   45MOL   H58429712   5.170   1.271   5.312 -0.4369  2.6517 -0.6561
   45MOL   H58529713   5.253   1.477   5.182  0.0138 -1.1712  0.9389
   45MOL   H58629714   5.168   1.407   5.044  0.1276 -3.3838  0.8528
   45MOL   H58729715   5.041   1.472   5.302  1.2745 -1.7307  0.0528
   45MOL   H58829716   4.963   1.450   5.146  1.3062 -1.3248 -1.1482
   45MOL   H58929717   5.102   1.645   5.059 -1.5512  0.2392 -0.3466
   45MOL   H59029718   5.127   1.693   5.229 -0.3988 -1.7103  1.2405
   45MOL   H59129719   4.861   1.692   5.240 -0.6586  1.1413 -0.1119
   45MOL   H59229720   4.863   1.691   5.073  0.0208 -0.6957  0.4291
   45MOL   H59329721   4.976   1.895   5.265 -0.5972 -1.9597  0.0290
   45MOL   H59429722   5.030   1.910   5.100  1.0890 -2.4721 -0.4641
   45MOL   H59529723   4.858   1.934   5.147 -0.7482 -0.1391  0.3223
   45MOL   C59629724   5.707   1.446   5.262 -0.7353 -0.1270 -0.4295
   45MOL   C59729725   5.784   1.531   5.353 -0.0954 -0.0797 -0.1602
   45MOL   C59829726   5.719   1.539   5.498 -0.0272  0.1351 -0.1570
   45MOL   C59929727   5.815   1.577   5.614 -0.3240 -0.3735  0.0395
   45MOL   C60029728   5.739   1.624   5.743 -0.4294 -0.6793  0.9485
   45MOL   C60129729   5.677   1.761   5.733  0.0296 -0.5024 -0.1911
   45MOL   C60229730   5.781   1.882   5.722 -0.2860  0.2345  0.1431
   45MOL   C60329731   5.861   1.917   5.851  0.7153  0.3592  0.9184
   45MOL   C60429732   5.958   2.033   5.824  0.0165 -0.1691 -0.3761
   45MOL   C60529733   6.046   2.071   5.955  0.2528 -0.4228 -0.1167
   45MOL   C60629734   6.127   2.195   5.918  1.0679  0.0148 -0.2541
   45MOL   H60729735   5.738   1.449   5.157  0.4122  1.1514 -0.0703
   45MOL   H60829736   5.608   1.491   5.260 -0.5824  0.2055 -1.1871
   45MOL   H60929737   5.883   1.486   5.365 -0.7235 -1.7528 -1.1165
   45MOL   H61029738   5.680   1.442   5.526 -0.7353 -0.0684 -1.8372
   45MOL   H61129739   5.629   1.601   5.496 -0.5369 -0.6236 -1.1618
   45MOL   H61229740   5.888   1.652   5.584  0.9993 -1.0969  1.3722
   45MOL   H61329741   5.876   1.488   5.631  0.1005  0.5022  3.3357
   45MOL   H61429742   5.799   1.622   5.834  0.8969 -1.7974  0.0709
   45MOL   H61529743   5.662   1.549   5.763 -2.4243  0.9200 -0.5614
   45MOL   H61629744   5.603   1.759   5.653 -0.5407 -0.2403  0.3328
   45MOL   H61729745   5.625   1.779   5.827  1.6835  0.1422  0.6135
   45MOL   H61829746   5.739   1.978   5.691 -0.2475  0.9811  2.3698
   45MOL   H61929747   5.843   1.850   5.638  0.5458  2.3088 -0.0716
   45MOL   H62029748   5.917   1.825   5.867 -0.1646 -0.3145  0.1786
   45MOL   H62129749   5.796   1.947   5.933  0.2297 -0.2863  0.7670
   45MOL   H62229750   6.019   1.996   5.741  1.1261  0.7599  0.0004
   45MOL   H62329751   5.901   2.122   5.798 -0.4394 -0.4001 -0.1625
   45MOL   H62429752   6.122   1.995   5.971  1.2371  0.5888  0.0930
   45MOL   H62529753   5.981   2.092   6.040  1.0062  1.4285  0.0244
   45MOL   H62629754   6.200   2.234   5.989 -1.1626 -0.0851  2.1979
   45MOL   H62729755   6.188   2.180   5.829  1.4049  0.9707 -0.1904
   45MOL   H62829756   6.065   2.284   5.901  1.9486  0.9745  1.4247
   45MOL   C62929757   5.805   1.677   5.294 -0.3575  0.1558  0.2487
   45MOL   C63029758   5.894   1.704   5.172  0.2383  0.1546  0.3964
   45MOL   C63129759   5.927   1.851   5.129 -0.0475  0.4748  0.2989
   45MOL   C63229760   6.004   1.941   5.224  0.6107  0.2039 -0.4586
   45MOL   C63329761   6.148   1.886   5.263  0.1144  0.3283 -0.0319
   45MOL   C63429762   6.235   1.869   5.139 -0.1113  0.8434 -0.1653
   45MOL   C63529763   6.361   1.791   5.172 -1.3216 -0.0435 -0.5289
   45MOL   C63629764   6.456   1.774   5.053 -0.2118  0.0146 -0.0101
   45MOL   C63729765   6.592   1.713   5.096 -0.3886  0.2341  0.1885
   45MOL   C63829766   6.612   1.560   5.100 -0.1972 -0.9336 -1.3461
   45MOL   C63929767   6.766   1.524   5.114  0.2654  0.3968  0.3885
   45MOL   H64029768   5.704   1.715   5.274 -0.7567 -1.4804 -0.9135
   45MOL   H64129769   5.842   1.751   5.366  0.1873 -0.1014  0.2290
   45MOL   H64229770   5.987   1.648   5.185 -0.8088 -1.9420 -0.8426
   45MOL   H64329771   5.969   1.853   5.028  2.2564 -0.2678  1.1953
   45MOL   H64429772   5.828   1.896   5.116 -1.3214 -1.9648  1.3621
   45MOL   H64529773   5.951   1.948   5.320  2.6741  1.6473  0.6264
   45MOL   H64629774   6.013   2.043   5.187 -1.5524  0.1876 -1.0842
   45MOL   H64729775   6.123   1.787   5.303 -1.6623  1.3799  1.5849
   45MOL   H64829776   6.204   1.951   5.331 -0.9244  3.4524 -2.0446
   45MOL   H64929777   6.256   1.972   5.109  1.6781  1.0142  1.5751
   45MOL   H65029778   6.191   1.821   5.052  1.6839 -0.2787 -0.4920
   45MOL   H65129779   6.344   1.693   5.217  1.2441 -0.2734  0.0048
   45MOL   H65229780   6.414   1.851   5.245 -0.8271  0.6169 -1.4246
   45MOL   H65329781   6.471   1.874   5.011  0.8754 -1.0553 -2.2677
   45MOL   H65429782   6.404   1.719   4.975 -1.9056 -0.0142  1.0912
   45MOL   H65529783   6.627   1.767   5.184  0.6908  1.2055 -0.8210
   45MOL   H65629784   6.656   1.753   5.017 -1.3384  1.6519  0.1155
   45MOL   H65729785   6.582   1.519   5.004  0.1823  0.4582 -2.0833
   45MOL   H65829786   6.555   1.519   5.184  0.6885 -0.6533 -0.5893
   45MOL   H65929787   6.784   1.417   5.122  0.2633  0.4198  0.7119
   45MOL   H66029788   6.811   1.561   5.206  0.9132 -1.8715  1.0189
   45MOL   H66129789   6.833   1.558   5.035  0.1294  2.0106  0.9548
   45MOL   H66229790   5.850   1.655   5.085 -3.4097  3.9532 -0.0891
   46MOL     C129791   2.229   7.536   1.920 -0.4090 -0.9225 -0.4969
   46MOL     C229792   2.072   7.528   1.951  0.1305  0.4360 -0.2287
   46MOL     C329793   2.018   7.595   2.077  0.2299  0.4690 -0.2557
   46MOL     C429794   2.077   7.532   2.214 -0.1991  0.1949  0.2977
   46MOL     C529795   2.016   7.610   2.343 -0.6418  0.3167 -0.1838
   46MOL     C629796   2.070   7.550   2.477 -0.3229  0.5032  0.1431
   46MOL     C729797   2.028   7.634   2.603  0.2217  0.7505  0.1550
   46MOL     C829798   2.091   0.067   2.613  0.2490 -0.2586  0.6862
   46MOL     C929799   2.050   0.136   2.744  0.1570 -0.0157  0.0420
   46MOL    C1029800   2.043   0.283   2.718  0.5224 -0.4002 -0.4176
   46MOL    C1129801   1.967   0.363   2.832 -0.0860 -0.3733  0.3760
   46MOL    H1229802   2.254   7.641   1.926  0.0460 -1.1072  1.2089
   46MOL    H1329803   2.263   7.503   1.822  2.3397  1.3489 -0.3627
   46MOL    H1429804   2.046   7.423   1.964  0.5057  0.3976  0.2365
   46MOL    H1529805   1.910   7.586   2.083  0.0181  0.8650 -2.7382
   46MOL    H1629806   2.031   7.702   2.061 -2.1988  0.8515  0.1590
   46MOL    H1729807   2.185   7.538   2.227 -0.3039  2.8382  0.0593
   46MOL    H1829808   2.048   7.427   2.223 -2.0513  0.5570 -1.1263
   46MOL    H1929809   2.046   0.009   2.325  0.9283 -0.1975 -0.5088
   46MOL    H2029810   1.907   7.613   2.346 -0.5895  2.5758 -0.1237
   46MOL    H2129811   2.177   7.532   2.482 -0.4214 -0.0480  0.2837
   46MOL    H2229812   2.035   7.448   2.493 -1.4853  0.6844 -1.1467
   46MOL    H2329813   1.920   7.644   2.600  0.3368  1.4188 -2.2566
   46MOL    H2429814   2.056   7.572   2.689  0.9954 -1.3834 -1.5756
   46MOL    H2529815   2.078   0.120   2.519 -0.4395 -0.9859  0.3656
   46MOL    H2629816   2.200   0.062   2.616  0.4167  1.2797 -1.4826
   46MOL    H2729817   2.108   0.112   2.832  1.4036  0.6380 -0.5876
   46MOL    H2829818   1.946   0.111   2.769  0.4716 -0.1634  1.2054
   46MOL    H2929819   1.984   0.299   2.628 -3.2892  2.3815  2.4253
   46MOL    H3029820   2.145   0.319   2.706  0.6898  0.0249  1.9441
   46MOL    H3129821   1.867   0.322   2.846 -1.6829  1.7198 -4.1321
   46MOL    H3229822   2.000   0.363   2.936  0.9530 -4.0437  0.1124
   46MOL    H3329823   1.958   0.466   2.797 -2.7348 -0.6325  0.2325
   46MOL    H3429824   2.289   7.493   2.001 -3.0687 -1.7306  1.1091
   46MOL    C3529825   1.984   7.570   1.831  0.1630 -0.2376  0.1518
   46MOL    C3629826   1.999   7.486   1.699  0.0209 -0.3658 -0.4143
   46MOL    C3729827   1.905   7.369   1.708 -0.3785  0.0938  0.3298
   46MOL    C3829828   1.752   7.384   1.710 -0.4263  0.4369 -0.4437
   46MOL    C3929829   1.694   7.244   1.726 -0.0953  0.2366 -0.7546
   46MOL    C4029830   1.546   7.249   1.760  0.2747 -0.0928 -0.4053
   46MOL    C4129831   1.487   7.111   1.790 -0.1860 -0.5111 -0.9269
   46MOL    C4229832   1.342   7.116   1.820  0.9573  0.5087 -0.2066
   46MOL    C4329833   1.279   6.972   1.818 -0.5561  0.3599  0.0745
   46MOL    C4429834   1.131   6.961   1.859 -0.4431  0.2073  0.2788
   46MOL    C4529835   1.081   6.821   1.840  0.0074  0.5444 -0.1295
   46MOL    H4629836   2.005   7.675   1.812 -0.0384  0.0348  1.3630
   46MOL    H4729837   1.880   7.577   1.863  0.6778 -0.3395  1.9321
   46MOL    H4829838   2.101   7.447   1.689  0.8116  1.1537  1.2938
   46MOL    H4929839   1.935   7.306   1.625  0.0386 -0.7492  1.1179
   46MOL    H5029840   1.935   7.308   1.793 -3.2517 -1.9478 -0.0685
   46MOL    H5129841   1.724   7.432   1.616  0.9477  0.9403 -0.6113
   46MOL    H5229842   1.724   7.450   1.792 -0.5730  0.5162 -0.5572
   46MOL    H5329843   1.742   7.195   1.810  0.2412  0.7948 -0.6241
   46MOL    H5429844   1.709   7.198   1.629  0.7721  0.1931 -0.6019
   46MOL    H5529845   1.486   7.285   1.676 -0.1174 -0.0165 -0.0953
   46MOL    H5629846   1.523   7.323   1.837  0.9690 -2.3982  2.0648
   46MOL    H5729847   1.505   7.040   1.709 -0.7023 -1.1297 -0.4957
   46MOL    H5829848   1.537   7.065   1.875  0.4754 -0.8874 -1.5087
   46MOL    H5929849   1.291   7.186   1.754  0.2486 -0.7265 -0.9771
   46MOL    H6029850   1.327   7.162   1.918  2.0813  0.4374  0.0059
   46MOL    H6129851   1.335   6.898   1.875 -1.0041 -0.7018 -0.8431
   46MOL    H6229852   1.273   6.930   1.717  2.4818 -1.3623  0.5562
   46MOL    H6329853   1.120   6.993   1.962 -1.8542  1.3886 -0.2114
   46MOL    H6429854   1.075   7.033   1.799  1.8824 -0.5254 -2.9553
   46MOL    H6529855   0.974   6.819   1.819 -0.6249  1.4727  2.6997
   46MOL    H6629856   1.126   6.765   1.759  0.5078 -1.9662  1.8358
   46MOL    H6729857   1.082   6.764   1.933  0.7926 -1.0830 -1.1158
   46MOL    C6829858   1.973   7.576   1.580 -0.0684  0.7023  0.1214
   46MOL    C6929859   2.084   7.683   1.548  0.1173  0.3362  0.2426
   46MOL    C7029860   2.216   7.623   1.498  0.5463  0.5870  0.4720
   46MOL    C7129861   2.343   0.007   1.511  0.7847 -0.8127 -0.2440
   46MOL    C7229862   2.480   7.640   1.465  0.7119 -0.1276  0.0524
   46MOL    C7329863   2.597   0.031   1.465 -1.0091  0.0384 -0.6953
   46MOL    C7429864   2.731   7.655   1.473 -0.1798 -0.0420  0.2511
   46MOL    C7529865   2.849   0.034   1.521  0.5587 -0.3311  0.4919
   46MOL    C7629866   2.893   0.143   1.429  0.3693  0.3017  0.0871
   46MOL    C7729867   2.944   0.100   1.291  0.0668  0.2508 -0.6289
   46MOL    C7829868   3.002   0.221   1.218 -0.2101  0.0172  0.6271
   46MOL    H7929869   1.876   7.624   1.593 -0.9337 -0.2912 -2.3518
   46MOL    H8029870   1.964   7.524   1.484  0.5361 -0.4299  0.6757
   46MOL    H8129871   2.098   0.043   1.635  1.4037  2.4069 -1.4041
   46MOL    H8229872   2.212   7.595   1.393  0.8375 -1.5492  1.0084
   46MOL    H8329873   2.240   7.535   1.557  1.7363  1.5097  1.3914
   46MOL    H8429874   2.325   0.101   1.459 -1.7047 -0.5802  0.9423
   46MOL    H8529875   2.340   0.026   1.619 -3.2839  0.6863 -0.5260
   46MOL    H8629876   2.475   7.612   1.360 -0.7799 -0.5844  0.2357
   46MOL    H8729877   2.485   7.544   1.517 -1.9657 -0.9914 -1.1615
   46MOL    H8829878   2.595   0.109   1.389 -0.3574  1.0263  0.2944
   46MOL    H8929879   2.580   0.082   1.560  0.8533  1.7673 -1.2708
   46MOL    H9029880   2.750   7.614   1.373 -0.0739 -0.0934  0.2926
   46MOL    H9129881   2.721   7.563   1.530 -1.2920 -0.2257 -0.2269
   46MOL    H9229882   2.824   0.079   1.617 -3.2079 -1.2007  0.0035
   46MOL    H9329883   2.935   7.674   1.543  1.7001  0.9378 -0.3257
   46MOL    H9429884   2.806   0.207   1.418 -0.0571 -0.5280 -1.5695
   46MOL    H9529885   2.966   0.209   1.475  1.3550 -0.1284 -0.8322
   46MOL    H9629886   3.023   0.025   1.303 -0.9428 -0.9530 -1.3702
   46MOL    H9729887   2.877   0.043   1.227 -1.2763  2.4848 -1.2403
   46MOL    H9829888   2.916   0.286   1.202 -0.0293 -0.1851 -1.2371
   46MOL    H9929889   3.045   0.214   1.119  0.3107  2.7175  0.6334
   46MOL   H10029890   3.089   0.264   1.267  0.7566 -0.4993 -0.6114
   46MOL   C10129891   2.031   0.085   1.440 -0.4124 -0.0618 -0.1061
   46MOL   C10229892   1.907   0.173   1.494  0.4062  0.3686 -0.3352
   46MOL   C10329893   1.804   0.193   1.384  0.1787  0.5509 -0.1040
   46MOL   C10429894   1.720   0.062   1.340  0.6106  0.7290  0.7406
   46MOL   C10529895   1.637   0.090   1.214  0.1386  0.7618 -0.3357
   46MOL   C10629896   1.581   7.664   1.158 -0.0345  0.4897  0.1652
   46MOL   C10729897   1.507   7.692   1.024 -0.5823 -0.2132  0.0476
   46MOL   C10829898   1.597   0.025   0.903  0.1415 -0.1061  0.4277
   46MOL   C10929899   1.523   0.070   0.782 -0.5443  0.8336  0.6727
   46MOL   C11029900   1.616   0.145   0.685 -0.3492  0.3679 -0.0598
   46MOL   C11129901   1.534   0.216   0.578  0.3062 -0.2346 -0.4349
   46MOL   H11229902   2.118   0.151   1.430  1.0611 -1.2030  4.2210
   46MOL   H11329903   2.013   0.040   1.342  1.8752  2.7491 -1.9238
   46MOL   H11429904   1.848   0.125   1.572 -0.0698  2.1840  0.4536
   46MOL   H11529905   1.734   0.274   1.405  0.3986  0.5503  0.6488
   46MOL   H11629906   1.860   0.231   1.299  0.9066  0.8524  0.5071
   46MOL   H11729907   1.789   7.682   1.323  1.0646  1.3693 -0.5562
   46MOL   H11829908   1.662   0.042   1.430  0.8412 -1.2316  0.4870
   46MOL   H11929909   1.551   0.152   1.236 -0.0985  0.5072 -0.5397
   46MOL   H12029910   1.697   0.130   1.132 -0.7215  1.5915 -0.5674
   46MOL   H12129911   1.671   7.603   1.145 -0.4046  0.4383 -2.4183
   46MOL   H12229912   1.514   7.606   1.221 -1.5997  1.8468 -0.2403
   46MOL   H12329913   1.440   0.075   1.028 -0.1386  0.1574 -0.4778
   46MOL   H12429914   1.447   7.603   1.006 -1.2390  0.0632  0.8232
   46MOL   H12529915   1.659   0.108   0.936 -0.6442  0.9592 -0.7007
   46MOL   H12629916   1.663   7.649   0.870  0.2708 -0.1906  0.8855
   46MOL   H12729917   1.486   7.689   0.725  1.4709  1.1050 -1.1080
   46MOL   H12829918   1.436   0.130   0.810 -2.1579 -1.6796  1.1675
   46MOL   H12929919   1.681   0.076   0.630 -0.7875  0.7290 -1.0456
   46MOL   H13029920   1.680   0.219   0.734  0.5107  0.8760 -1.8835
   46MOL   H13129921   1.458   0.278   0.626 -1.5207 -1.0422 -2.1797
   46MOL   H13229922   1.602   0.284   0.526 -0.2449 -0.1040 -1.0032
   46MOL   H13329923   1.489   0.154   0.500 -0.1934  1.0852 -1.2280
   46MOL   C13429924   1.961   0.313   1.540 -0.5751 -0.3623  0.7007
   46MOL   C13529925   2.009   0.317   1.683 -0.4656  0.3603 -0.3362
   46MOL   C13629926   1.892   0.296   1.793 -0.4312 -0.2635  0.1074
   46MOL   C13729927   1.932   0.260   1.936 -0.0542 -0.2024 -0.1244
   46MOL   C13829928   1.821   0.192   2.012 -0.4889  0.0229  0.0186
   46MOL   C13929929   1.837   0.207   2.163 -0.0312 -0.2121  0.0567
   46MOL   C14029930   1.720   0.150   2.246 -0.2021 -0.2854  0.2486
   46MOL   C14129931   1.748   0.178   2.392 -0.0116 -0.4066  0.7877
   46MOL   C14229932   1.639   0.128   2.494  0.9891 -0.2384 -0.6211
   46MOL   C14329933   1.665   0.177   2.638  0.3785  0.8915  0.4786
   46MOL   C14429934   1.572   0.111   2.742 -0.1675  0.6633 -0.4094
   46MOL   H14529935   2.036   0.353   1.472  0.7617 -0.4095  2.1254
   46MOL   H14629936   1.882   0.388   1.533  0.1670  0.2355 -2.2233
   46MOL   H14729937   2.085   0.242   1.706 -0.9089  0.3617  1.1772
   46MOL   H14829938   1.830   0.213   1.759 -0.8490  0.6486 -1.4234
   46MOL   H14929939   1.829   0.385   1.791 -3.5374 -2.3388  1.0888
   46MOL   H15029940   2.022   0.198   1.939 -0.3387 -0.6519 -0.7412
   46MOL   H15129941   1.955   0.351   1.990 -2.5645  0.3328  0.1163
   46MOL   H15229942   1.730   0.247   1.985 -1.1838 -0.8225  0.5973
   46MOL   H15329943   1.825   0.090   1.975 -1.5020 -0.6601  1.7455
   46MOL   H15429944   1.926   0.163   2.208  0.0241  1.8521  2.0616
   46MOL   H15529945   1.842   0.312   2.192 -0.8272 -0.1186 -0.1210
   46MOL   H15629946   1.622   0.191   2.223 -0.2865  0.3118  1.6499
   46MOL   H15729947   1.715   0.042   2.230  0.5667  0.1130 -3.0798
   46MOL   H15829948   1.837   0.122   2.422  0.0879 -0.4405  0.4310
   46MOL   H15929949   1.771   0.283   2.411  2.2101 -0.5380 -0.9145
   46MOL   H16029950   1.542   0.168   2.463  2.5642  1.6978 -3.1652
   46MOL   H16129951   1.613   0.023   2.489 -2.3532  0.5576 -1.4441
   46MOL   H16229952   1.764   0.141   2.664 -0.2902 -2.1103 -0.9196
   46MOL   H16329953   1.683   0.284   2.650  0.1418  0.8556  1.1796
   46MOL   H16429954   1.599   0.005   2.741 -0.1473  0.6673 -0.2675
   46MOL   H16529955   1.467   0.113   2.714 -0.9564 -0.1742  2.2672
   46MOL   H16629956   1.586   0.141   2.846 -1.5993  0.2414 -0.0860
   46MOL   C16729957   2.085   0.454   1.709  0.0359 -0.1180 -1.6043
   46MOL   C16829958   2.235   0.452   1.687  0.0035 -0.3595  0.3881
   46MOL   C16929959   2.268   0.457   1.536  0.3672  0.8581  1.2049
   46MOL   C17029960   2.414   0.515   1.491 -0.5235 -0.5218  0.2808
   46MOL   C17129961   2.435   0.515   1.336 -0.6075  0.6563  0.3008
   46MOL   C17229962   2.407   0.378   1.275  0.5885  0.2514  0.3278
   46MOL   C17329963   2.467   0.362   1.139 -0.3841  0.4249  0.2070
   46MOL   C17429964   2.475   0.215   1.093 -0.1073 -0.5363  0.2565
   46MOL   C17529965   2.599   0.181   1.008  0.2876 -0.2572 -0.4956
   46MOL   C17629966   2.591   0.036   0.969 -0.4283  0.8383  0.0202
   46MOL   C17729967   2.602   7.631   1.086 -0.2639 -0.1243 -0.2598
   46MOL   H17829968   2.034   0.535   1.657  0.6017  1.1142 -0.2434
   46MOL   H17929969   2.072   0.476   1.815 -0.2574 -0.8225 -1.4867
   46MOL   H18029970   2.268   0.548   1.727 -1.0694  0.3359 -0.3921
   46MOL   H18129971   2.197   0.529   1.496  0.2300 -0.0337 -0.1747
   46MOL   H18229972   2.247   0.360   1.491 -1.4128  2.3682 -1.3035
   46MOL   H18329973   2.437   0.614   1.532  0.5836 -0.5813 -0.1946
   46MOL   H18429974   2.490   0.445   1.523  1.2866  1.4859  0.5139
   46MOL   H18529975   2.538   0.545   1.320 -0.3972 -1.3208 -2.3704
   46MOL   H18629976   2.374   0.594   1.291  0.8506  1.3291 -0.5218
   46MOL   H18729977   2.449   0.297   1.335 -0.4190 -1.8085 -1.6582
   46MOL   H18829978   2.299   0.362   1.276  0.2621  2.2050 -0.9941
   46MOL   H18929979   2.562   0.416   1.139  0.6829 -1.3810 -1.5278
   46MOL   H19029980   2.409   0.408   1.059  0.9877  2.1857  0.1920
   46MOL   H19129981   2.477   0.156   1.185 -3.2884 -1.9379 -0.5226
   46MOL   H19229982   2.378   0.184   1.055  0.5744 -0.8641 -1.2470
   46MOL   H19329983   2.685   0.210   1.068  0.4168 -1.1522 -0.2368
   46MOL   H19429984   2.598   0.249   0.923 -0.4920 -0.9632 -1.0642
   46MOL   H19529985   2.673   0.003   0.905 -0.9789 -1.2575  0.3675
   46MOL   H19629986   2.499   0.011   0.916 -0.7658 -1.4405  1.6350
   46MOL   H19729987   2.593   7.528   1.054  0.6550 -0.5137  0.7065
   46MOL   H19829988   2.527   7.637   1.165  0.9963 -1.8917  1.0942
   46MOL   H19929989   2.686   7.649   1.153 -0.2850 -1.0131  0.0034
   46MOL   C20029990   2.315   0.342   1.763 -0.0157 -1.0866  0.3637
   46MOL   C20129991   2.448   0.388   1.821  0.3057  0.1395 -0.2089
   46MOL   C20229992   2.554   0.278   1.814  0.0503  0.2624 -0.1203
   46MOL   C20329993   2.522   0.145   1.885  0.1503  0.8134  0.2798
   46MOL   C20429994   2.627   0.038   1.888 -0.2340  0.6267 -0.5368
   46MOL   C20529995   2.592   7.613   1.971 -0.6245 -0.7136  0.1611
   46MOL   C20629996   2.644   7.621   2.115 -0.6050  0.0311  0.2442
   46MOL   C20729997   2.606   7.511   2.208  0.0862  0.4066  0.0843
   46MOL   C20829998   2.657   7.510   2.353  0.2820  0.3835  0.5011
   46MOL   C20929999   2.554   7.451   2.453  0.2532  0.0140  0.4774
   46MOL   C21030000   2.604   7.398   2.591  0.6604  0.3752  0.4292
   46MOL   H21130001   2.254   0.305   1.846 -2.3619 -1.6643 -1.5610
   46MOL   H21230002   2.321   0.261   1.691  2.7483 -0.3440 -0.2855
   46MOL   H21330003   2.479   0.469   1.755  0.3477 -1.0823 -1.7269
   46MOL   H21430004   2.654   0.310   1.842  0.1839  0.4576 -0.8144
   46MOL   H21530005   2.574   0.263   1.708  2.4024  0.6456  0.2553
   46MOL   H21630006   2.431   0.110   1.835  0.9641 -0.6862 -0.1955
   46MOL   H21730007   2.485   0.157   1.987 -0.8543  1.3348 -0.1330
   46MOL   H21830008   2.725   0.075   1.919  1.1315 -2.7391 -0.6443
   46MOL   H21930009   2.633   7.693   1.790 -1.3144 -0.0402 -0.2830
   46MOL   H22030010   2.490   7.576   1.964 -1.1322  0.8004 -0.9014
   46MOL   H22130011   2.668   7.543   1.937 -0.1166  0.3085 -0.8422
   46MOL   H22230012   2.615   0.015   2.153  0.0692 -0.8220  3.0509
   46MOL   H22330013   2.753   7.616   2.113 -0.5862 -0.6933  2.1293
   46MOL   H22430014   2.636   7.421   2.154 -1.3789  1.5377 -2.7752
   46MOL   H22530015   2.499   7.493   2.215  0.0875  1.1260  2.0785
   46MOL   H22630016   2.689   7.609   2.387 -1.2397  1.3179 -0.7533
   46MOL   H22730017   2.741   7.440   2.358  0.4311  0.3113 -2.5266
   46MOL   H22830018   2.475   7.525   2.463  1.3893  1.3206 -0.1525
   46MOL   H22930019   2.514   7.366   2.397 -2.3131  2.0511 -0.8385
   46MOL   H23030020   2.524   7.356   2.652  1.9709  0.9886  2.6279
   46MOL   H23130021   2.670   7.461   2.650  2.7091 -1.0324 -0.3004
   46MOL   H23230022   2.671   7.314   2.575  0.2509 -0.1635  1.4631
   46MOL   C23330023   2.430   0.444   1.965 -0.3815  0.0092 -0.6859
   46MOL   C23430024   2.555   0.533   2.013 -0.1209 -0.7983  0.8359
   46MOL   C23530025   2.603   0.488   2.155  0.2813 -0.5481 -0.1238
   46MOL   C23630026   2.688   0.360   2.171 -0.0265 -0.0102  0.0229
   46MOL   C23730027   2.753   0.357   2.312 -0.7134 -0.6395  0.4643
   46MOL   C23830028   2.830   0.230   2.345  0.5242 -0.8845  0.1393
   46MOL   C23930029   2.934   0.251   2.456 -0.0441 -0.2602 -0.4475
   46MOL   C24030030   3.006   0.126   2.504  0.3735  0.1109  0.3184
   46MOL   C24130031   3.073   0.145   2.644  0.4672 -0.0661 -0.0470
   46MOL   C24230032   2.995   0.097   2.763 -0.0633 -0.4491 -0.9081
   46MOL   C24330033   3.057   0.137   2.897  0.2101 -0.5607  1.3750
   46MOL   H24430034   2.415   0.360   2.032  2.1864 -1.4151 -1.8143
   46MOL   H24530035   2.337   0.500   1.966  1.0411  2.4583  0.2468
   46MOL   H24630036   2.637   0.531   1.942 -0.3101  3.8797  0.3216
   46MOL   H24730037   2.668   0.570   2.186  3.4288 -3.3674  1.0879
   46MOL   H24830038   2.529   0.490   2.234  1.3694 -0.2092  0.9053
   46MOL   H24930039   2.766   0.366   2.094  1.4760 -0.9143  1.4387
   46MOL   H25030040   2.624   0.275   2.148  1.2441 -1.8068  2.7771
   46MOL   H25130041   2.682   0.367   2.395 -2.7860  0.0608 -1.3342
   46MOL   H25230042   2.820   0.442   2.324 -1.4454  0.1256 -0.6643
   46MOL   H25330043   2.883   0.192   2.257  0.2454 -0.9285 -0.0100
   46MOL   H25430044   2.756   0.154   2.370 -1.6979  0.6612 -1.4866
   46MOL   H25530045   3.002   0.328   2.421 -0.1592  1.0181  2.0334
   46MOL   H25630046   2.876   0.294   2.538 -0.4496 -0.1812 -0.7715
   46MOL   H25730047   2.941   0.039   2.497 -0.7542  0.9076  0.6947
   46MOL   H25830048   3.089   0.104   2.437  1.0369 -0.5929  1.3530
   46MOL   H25930049   3.164   0.087   2.652  0.9145  0.2533 -2.4953
   46MOL   H26030050   3.105   0.248   2.652  1.5106 -0.5024  1.5291
   46MOL   H26130051   2.998   7.692   2.756  1.3188 -0.5478  0.8242
   46MOL   H26230052   2.894   0.140   2.766  0.6895  1.2729  0.7608
   46MOL   H26330053   3.093   0.240   2.899  1.3804 -0.8591 -1.6286
   46MOL   H26430054   3.141   0.078   2.933  0.4425 -1.5274 -0.6653
   46MOL   H26530055   2.981   0.109   2.970 -0.1107 -2.3804  0.3756
   46MOL   C26630056   2.515   0.685   2.016 -0.2793 -0.3503 -0.7025
   46MOL   C26730057   2.505   0.753   1.881  0.4775 -0.2095 -0.0071
   46MOL   C26830058   2.628   0.837   1.848 -0.5175 -0.0615 -0.2428
   46MOL   C26930059   2.670   0.863   1.701 -1.0463 -0.0371 -0.2678
   46MOL   C27030060   2.798   0.952   1.702  0.9613  0.0744  0.1506
   46MOL   C27130061   2.857   0.972   1.560  0.0898 -0.2627  0.3118
   46MOL   C27230062   3.000   1.025   1.551  0.0955  0.1199  0.4700
   46MOL   C27330063   3.012   1.171   1.604  0.5516  0.3935 -0.1521
   46MOL   C27430064   3.147   1.241   1.587  0.1960  0.3776 -0.3479
   46MOL   C27530065   3.146   1.375   1.649 -0.7398  0.3668 -0.5493
   46MOL   C27630066   3.263   1.470   1.633 -0.6607  0.6145 -0.2183
   46MOL   H27730067   2.583   0.740   2.080 -1.7269  0.6555 -0.0035
   46MOL   H27830068   2.425   0.694   2.076  0.2636  1.4651 -0.1216
   46MOL   H27930069   2.524   0.671   1.811  1.3320  0.5161 -0.6473
   46MOL   H28030070   2.611   0.931   1.901 -2.3569  0.9986 -2.6498
   46MOL   H28130071   2.718   0.797   1.896 -1.6244 -0.3592  1.6304
   46MOL   H28230072   2.594   0.921   1.651 -1.3540  0.4858  0.7962
   46MOL   H28330073   2.681   0.769   1.647 -0.4105 -0.4780  0.6054
   46MOL   H28430074   2.879   0.901   1.754  0.4293 -1.3839 -0.4358
   46MOL   H28530075   2.772   1.047   1.749 -0.9431  1.0490 -2.7388
   46MOL   H28630076   2.788   1.031   1.499  2.2731  2.2300  0.1636
   46MOL   H28730077   2.847   0.878   1.506 -0.2296  0.7311 -1.4204
   46MOL   H28830078   3.072   0.964   1.606  1.4096  1.2108 -0.0166
   46MOL   H28930079   3.018   1.024   1.443 -1.1223 -2.2077  0.2465
   46MOL   H29030080   2.997   1.166   1.712 -1.1143  1.4042 -0.3245
   46MOL   H29130081   2.927   1.229   1.567  0.6579 -0.1428 -1.2467
   46MOL   H29230082   3.228   1.184   1.632 -0.0917  1.3407  1.4511
   46MOL   H29330083   3.176   1.260   1.484 -0.3165 -0.0152 -0.5623
   46MOL   H29430084   3.138   1.345   1.754 -0.6008  0.3493 -0.5433
   46MOL   H29530085   3.054   1.429   1.627 -1.4824 -1.6116 -2.4792
   46MOL   H29630086   3.241   1.546   1.709 -1.2980  0.8236 -0.6060
   46MOL   H29730087   3.266   1.513   1.533  1.3099  2.1376  0.4589
   46MOL   H29830088   3.358   1.421   1.649 -1.1014 -0.0153  0.4663
   46MOL   C29930089   2.373   0.817   1.836 -0.9164 -0.3925 -0.3949
   46MOL   C30030090   2.336   0.967   1.884  0.6402 -0.2586  0.2300
   46MOL   C30130091   2.330   0.988   2.039  0.2226 -0.7837 -0.3025
   46MOL   C30230092   2.215   0.915   2.114 -0.0572  0.6423  0.2787
   46MOL   C30330093   2.230   0.945   2.267  0.2083  0.5359  0.5741
   46MOL   C30430094   2.192   1.093   2.305  0.0340  0.0294 -0.2237
   46MOL   C30530095   2.188   1.126   2.462 -0.3746  0.1139  0.0011
   46MOL   C30630096   2.327   1.135   2.533  0.4778  0.2845  0.6699
   46MOL   C30730097   2.309   1.193   2.675 -0.1847  0.6166 -0.2418
   46MOL   C30830098   2.433   1.200   2.762  0.0222  0.8301 -0.2626
   46MOL   C30930099   2.416   1.298   2.882 -1.0053  0.6565  0.5075
   46MOL   H31030100   2.289   0.755   1.866 -1.3365  0.8256  0.9574
   46MOL   H31130101   2.374   0.812   1.727 -0.0056 -1.7843 -0.3384
   46MOL   H31230102   2.427   1.022   1.860  0.2945  1.5838  2.8774
   46MOL   H31330103   2.425   0.953   2.082  0.8482  2.5166  1.1512
   46MOL   H31430104   2.330   1.096   2.055 -0.6556 -0.8976  0.4958
   46MOL   H31530105   2.123   0.960   2.076 -0.1622  0.6766  0.5673
   46MOL   H31630106   2.207   0.807   2.107  1.4175  0.5804 -0.4952
   46MOL   H31730107   2.164   0.873   2.316  0.4500  0.1404  0.3244
   46MOL   H31830108   2.330   0.915   2.299 -0.2990 -0.9571  0.8186
   46MOL   H31930109   2.088   1.096   2.271  0.0977 -1.2326 -0.5265
   46MOL   H32030110   2.249   1.169   2.251 -0.6225  0.9752  0.3986
   46MOL   H32130111   2.141   1.224   2.475 -0.9425 -0.3351  1.3361
   46MOL   H32230112   2.128   1.047   2.507  1.7955  0.2733  3.3107
   46MOL   H32330113   2.378   1.203   2.464  0.5991 -1.2749 -0.8126
   46MOL   H32430114   2.383   1.042   2.531  1.4335  0.8676 -1.4730
   46MOL   H32530115   2.235   1.129   2.723  1.8389 -0.1552  1.9400
   46MOL   H32630116   2.263   1.290   2.656 -2.0750 -0.8914 -3.9470
   46MOL   H32730117   2.512   1.250   2.705 -0.4343  1.5844 -0.2473
   46MOL   H32830118   2.470   1.099   2.779 -1.2872  0.3220 -0.3769
   46MOL   H32930119   2.405   1.403   2.855  2.1413  0.2502 -2.6224
   46MOL   H33030120   2.336   1.272   2.952 -1.1881  1.7009  0.6947
   46MOL   H33130121   2.511   1.289   2.934  0.3318 -1.1950 -2.1618
   46MOL   C33230122   2.203   1.017   1.817 -0.0338  0.1135 -0.2690
   46MOL   C33330123   2.158   1.162   1.826 -0.5417 -0.5093 -0.2432
   46MOL   C33430124   2.274   1.257   1.804 -0.0564 -0.3749  0.2236
   46MOL   C33530125   2.358   1.236   1.681 -0.6503 -0.3463  0.2308
   46MOL   C33630126   2.451   1.356   1.653  0.1848 -0.4703  0.4752
   46MOL   C33730127   2.570   1.367   1.753 -0.4025  0.1260 -0.2599
   46MOL   C33830128   2.658   1.488   1.708  0.3863  0.4259  0.3842
   46MOL   C33930129   2.798   1.487   1.767  0.2400 -0.4077  1.1714
   46MOL   C34030130   2.793   1.545   1.915  0.5485 -0.5034  0.0375
   46MOL   C34130131   2.936   1.569   1.980 -0.3403 -0.1040  0.3224
   46MOL   C34230132   2.916   1.614   2.130  0.1744  0.0317  0.2798
   46MOL   H34330133   2.204   0.999   1.710 -0.3680  2.9648 -0.7959
   46MOL   H34430134   2.115   0.964   1.853  0.7411 -0.3631  0.9499
   46MOL   H34530135   2.092   1.183   1.741  0.4989  2.2512 -0.4453
   46MOL   H34630136   2.339   1.243   1.891 -1.8533 -1.0635  1.4729
   46MOL   H34730137   2.237   1.360   1.802 -0.0107 -0.3712 -0.6958
   46MOL   H34830138   2.410   1.140   1.686  0.9565  0.4157 -1.4136
   46MOL   H34930139   2.292   1.215   1.597 -0.5101  1.1109 -0.2512
   46MOL   H35030140   2.507   1.355   1.559  0.4143 -0.0007  0.6068
   46MOL   H35130141   2.399   1.452   1.649  1.2146  0.1210  1.2337
   46MOL   H35230142   2.617   1.269   1.762 -2.2370 -0.9206 -1.6173
   46MOL   H35330143   2.527   1.394   1.849  1.3825 -1.0422  0.9109
   46MOL   H35430144   2.596   1.576   1.727  1.6384  1.4036 -0.0019
   46MOL   H35530145   2.678   1.477   1.601  0.2607  0.4345  0.3603
   46MOL   H35630146   2.857   1.396   1.759  2.6801  1.0647  1.7436
   46MOL   H35730147   2.846   1.565   1.707  0.7663  1.4960  3.9570
   46MOL   H35830148   2.730   1.474   1.968  2.1203 -1.6919  0.3518
   46MOL   H35930149   2.754   1.646   1.905  3.4491  0.5548 -1.3686
   46MOL   H36030150   2.993   1.642   1.922 -0.4547 -1.8220 -2.0066
   46MOL   H36130151   2.988   1.477   1.954 -0.8823  0.4087 -2.8073
   46MOL   H36230152   2.866   1.537   2.190  3.0308 -1.0812  1.3028
   46MOL   H36330153   3.014   1.620   2.177  1.7382 -0.8771 -2.7167
   46MOL   H36430154   2.860   1.707   2.132 -3.0902 -1.8489 -0.0391
   46MOL   C36530155   2.086   1.219   1.950 -0.0935  0.2255 -0.4023
   46MOL   C36630156   1.991   1.348   1.931  0.1643 -0.3763 -0.6062
   46MOL   C36730157   1.883   1.327   1.833 -0.6496  0.4005  0.9749
   46MOL   C36830158   1.777   1.218   1.858 -0.0363 -1.0667 -0.5138
   46MOL   C36930159   1.664   1.228   1.756  0.1016  0.5377 -0.1108
   46MOL   C37030160   1.557   1.124   1.773  0.2502 -0.4539  0.3635
   46MOL   C37130161   1.457   1.167   1.880 -0.1900  0.3963 -0.2908
   46MOL   C37230162   1.382   1.048   1.942  0.5512  0.4828 -0.4415
   46MOL   C37330163   1.293   1.087   2.062 -0.3572  0.2708  0.0760
   46MOL   C37430164   1.220   0.968   2.121  0.1578 -0.5113 -0.4514
   46MOL   C37530165   1.294   0.874   2.205 -0.3371  0.5399 -0.5468
   46MOL   H37630166   2.021   1.146   1.998 -3.2297  2.5175 -0.9883
   46MOL   H37730167   2.154   1.246   2.031 -0.0340 -2.2128  0.4032
   46MOL   H37830168   2.054   1.431   1.897 -0.5872  0.7897  0.7986
   46MOL   H37930169   1.937   1.311   1.739 -1.8956  0.4584  0.2337
   46MOL   H38030170   1.828   1.420   1.820  1.3983  1.3614 -1.3199
   46MOL   H38130171   1.734   1.235   1.957  0.8794 -0.0477 -0.2806
   46MOL   H38230172   1.820   1.118   1.869 -0.0743 -1.2013 -1.6136
   46MOL   H38330173   1.709   1.211   1.659  2.4287  1.6596  0.7308
   46MOL   H38430174   1.624   1.329   1.755  0.2543  0.6607  2.2003
   46MOL   H38530175   1.601   1.027   1.797  0.2856  0.1582  2.9388
   46MOL   H38630176   1.501   1.111   1.680  0.4549  1.6871 -0.0850
   46MOL   H38730177   1.520   1.214   1.957 -0.4264 -0.8928  0.7000
   46MOL   H38830178   1.377   1.232   1.844 -2.5888 -1.8628  0.8133
   46MOL   H38930179   1.448   0.967   1.972  0.0224  0.7023  1.4313
   46MOL   H39030180   1.325   1.006   1.859 -1.8676  2.1749  0.2899
   46MOL   H39130181   1.345   1.143   2.141  2.1671 -1.1947 -0.4998
   46MOL   H39230182   1.227   1.158   2.013 -0.1987 -0.2477 -0.9077
   46MOL   H39330183   1.145   1.009   2.189  0.7473 -2.1271  1.1965
   46MOL   H39430184   1.175   0.912   2.038  0.8356 -0.7843 -0.6409
   46MOL   H39530185   1.355   0.812   2.139 -0.1123  1.8706 -1.6168
   46MOL   H39630186   1.226   0.801   2.248  1.1374 -0.0937  0.7190
   46MOL   H39730187   1.367   0.921   2.271 -1.5200  2.0039 -0.2422
   46MOL   C39830188   1.951   1.397   2.071  0.0859 -0.7122 -0.4481
   46MOL   C39930189   1.880   1.540   2.083 -0.4671 -0.0835  0.6439
   46MOL   C40030190   1.994   1.646   2.075 -0.7842  0.6391  0.2877
   46MOL   C40130191   1.936   1.776   2.028 -0.0848 -0.2343 -0.0598
   46MOL   C40230192   2.030   1.890   2.056 -0.8584 -1.0742 -0.2944
   46MOL   C40330193   1.983   2.021   1.995 -0.0026  0.0789  1.2882
   46MOL   C40430194   2.093   2.130   1.961 -0.2002  0.7066  0.0788
   46MOL   C40530195   2.022   2.258   1.934  0.1931  0.4462 -0.1960
   46MOL   C40630196   2.110   2.362   1.861  0.5560 -0.0396  0.2781
   46MOL   C40730197   2.073   2.514   1.872 -0.1417  0.0783  0.3542
   46MOL   C40830198   2.122   2.589   1.744 -0.3221 -0.0066  0.3324
   46MOL   H40930199   2.039   1.393   2.136 -0.3421  2.2189  0.4099
   46MOL   H41030200   1.885   1.324   2.117 -1.5857  0.4630 -0.9350
   46MOL   H41130201   1.823   1.551   1.991  0.8420 -0.9875 -0.3080
   46MOL   H41230202   2.063   1.615   1.997 -0.6772  0.4666  0.4511
   46MOL   H41330203   2.052   1.659   2.166 -2.3928 -0.2140  1.4510
   46MOL   H41430204   1.927   1.762   1.920 -2.0806 -2.9643  0.3812
   46MOL   H41530205   1.841   1.808   2.072 -1.0817 -0.5150 -1.9322
   46MOL   H41630206   2.036   1.907   2.163 -0.8893 -2.0395 -0.1373
   46MOL   H41730207   2.130   1.876   2.014 -0.5163  0.7215 -0.1522
   46MOL   H41830208   1.901   2.056   2.056 -1.1876 -1.7415  0.7722
   46MOL   H41930209   1.937   2.008   1.897  0.2742 -0.9825  1.2900
   46MOL   H42030210   2.164   2.137   2.044 -1.5521 -3.6897  1.7336
   46MOL   H42130211   2.152   2.115   1.871 -0.2859 -0.1070  0.1499
   46MOL   H42230212   1.978   2.293   2.027 -1.7419 -3.5873  0.5253
   46MOL   H42330213   1.934   2.234   1.875 -0.4146 -2.0363  1.6053
   46MOL   H42430214   2.211   2.341   1.896  0.7801 -0.9222 -0.8470
   46MOL   H42530215   2.124   2.329   1.758  0.0445  0.3520  0.0808
   46MOL   H42630216   2.118   2.560   1.960  0.3411  2.0977 -0.9024
   46MOL   H42730217   1.964   2.523   1.873 -0.1866 -0.2133  3.9329
   46MOL   H42830218   2.229   2.604   1.731 -0.7776  0.6580 -3.3646
   46MOL   H42930219   2.082   2.690   1.737  0.3357  0.2973  0.9836
   46MOL   H43030220   2.104   2.527   1.656  0.8327  0.5157 -0.2881
   46MOL   C43130221   1.793   1.557   2.217  0.2201  0.3644  0.2042
   46MOL   C43230222   1.675   1.469   2.249  0.4821  0.2511  0.6239
   46MOL   C43330223   1.577   1.454   2.120  0.1882  0.1812  0.7061
   46MOL   C43430224   1.498   1.583   2.090 -0.4902  0.4534  0.1146
   46MOL   C43530225   1.417   1.592   1.957  0.3730 -0.1607 -0.0318
   46MOL   C43630226   1.277   1.526   1.952 -0.3366  0.7663 -0.3758
   46MOL   C43730227   1.209   1.562   1.823 -0.2316 -0.8223  0.2933
   46MOL   C43830228   1.086   1.473   1.795  0.4548 -0.1194 -0.3310
   46MOL   C43930229   0.960   1.558   1.792 -0.3850  0.6034 -0.0023
   46MOL   C44030230   0.830   1.477   1.762 -0.7788  0.0958 -0.0405
   46MOL   C44130231   0.713   1.555   1.704  0.1081  0.0988 -0.9342
   46MOL   H44230232   1.752   1.656   2.202  3.6627  1.6467 -1.2106
   46MOL   H44330233   1.851   1.555   2.309  1.3825  0.0636 -0.5230
   46MOL   H44430234   1.725   1.374   2.270 -2.8962 -1.3718  1.6328
   46MOL   H44530235   1.623   1.413   2.029 -1.0883  0.6404 -0.1578
   46MOL   H44630236   1.513   1.368   2.140 -0.6412  1.0622  1.9139
   46MOL   H44730237   1.572   1.663   2.084  0.8128 -0.5755  1.7792
   46MOL   H44830238   1.430   1.605   2.172 -0.1141 -0.6437  0.7333
   46MOL   H44930239   1.474   1.552   1.873  0.0370  0.9041 -0.7774
   46MOL   H45030240   1.410   1.697   1.929 -1.6318 -0.0182  0.9757
   46MOL   H45130241   1.218   1.554   2.039 -1.8582 -1.6419 -0.5676
   46MOL   H45230242   1.296   1.419   1.968 -0.7284  0.5354 -1.4295
   46MOL   H45330243   1.282   1.535   1.747  1.4999 -0.5869  1.8523
   46MOL   H45430244   1.185   1.668   1.834 -0.9383 -0.4623 -3.9880
   46MOL   H45530245   1.092   1.419   1.701 -0.8218 -2.5761  0.9471
   46MOL   H45630246   1.063   1.400   1.872  2.1242 -0.8822 -0.5428
   46MOL   H45730247   0.991   1.624   1.711 -0.6830  1.4860  0.5918
   46MOL   H45830248   0.937   1.624   1.876 -0.1754 -1.7587  1.9653
   46MOL   H45930249   0.793   1.444   1.859 -0.9254 -0.1384 -0.1739
   46MOL   H46030250   0.856   1.394   1.696  1.9927 -0.9156  2.2117
   46MOL   H46130251   0.715   1.562   1.595  0.1582 -2.3675 -1.1241
   46MOL   H46230252   0.627   1.491   1.721  0.3722 -0.1657 -0.5805
   46MOL   H46330253   0.695   1.650   1.754 -0.0005  0.5446 -1.8085
   46MOL   C46430254   1.595   1.501   2.374  0.1806 -0.7063  0.1001
   46MOL   C46530255   1.507   1.392   2.438 -0.0599  0.0332  0.5470
   46MOL   C46630256   1.592   1.272   2.477  0.6257  0.4539 -0.4807
   46MOL   C46730257   1.589   1.148   2.380  0.0515  0.7044 -0.7420
   46MOL   C46830258   1.719   1.062   2.410 -0.0640 -0.9987 -0.0844
   46MOL   C46930259   1.723   0.929   2.330 -0.2307  0.2671 -0.1430
   46MOL   C47030260   1.712   0.934   2.176 -0.2369 -0.1096 -0.4522
   46MOL   C47130261   1.727   0.798   2.109 -0.0975  0.2194  0.1701
   46MOL   C47230262   1.758   0.815   1.965 -0.9324  0.0567 -0.5625
   46MOL   C47330263   1.773   0.689   1.881  0.1046  0.2951  0.5144
   46MOL   C47430264   1.806   0.713   1.734 -0.3804  0.1900 -0.1580
   46MOL   H47530265   1.527   1.585   2.358 -0.3799 -1.1657  0.0294
   46MOL   H47630266   1.670   1.531   2.447 -1.1177 -0.7264  1.4722
   46MOL   H47730267   1.428   1.360   2.370  0.6610  0.6944 -0.6291
   46MOL   H47830268   1.566   1.227   2.572  0.3856  1.4537 -0.0692
   46MOL   H47930269   1.699   1.291   2.487  1.0808 -0.7262 -2.6462
   46MOL   H48030270   1.504   1.080   2.393  0.2190  0.4869 -0.7908
   46MOL   H48130271   1.580   1.175   2.275  0.1032  2.3839 -0.3327
   46MOL   H48230272   1.710   1.042   2.517  3.1963  0.1516  0.4515
   46MOL   H48330273   1.813   1.113   2.388 -0.5880  0.1377  0.2783
   46MOL   H48430274   1.814   0.884   2.370  0.0285  0.5950 -0.3663
   46MOL   H48530275   1.637   0.874   2.370  0.4538  0.0942  1.1037
   46MOL   H48630276   1.622   0.988   2.149  0.8205  1.9410  0.0170
   46MOL   H48730277   1.795   0.995   2.139 -0.7202 -0.8402 -2.8200
   46MOL   H48830278   1.805   0.733   2.149  0.5549  0.4798 -0.6679
   46MOL   H48930279   1.643   0.734   2.132  0.6029 -0.2965  1.3625
   46MOL   H49030280   1.679   0.877   1.924 -0.4954  1.9462  1.3661
   46MOL   H49130281   1.845   0.880   1.955  0.4685 -1.8466 -1.0495
   46MOL   H49230282   1.848   0.619   1.918  0.9393  1.3636  0.8709
   46MOL   H49330283   1.673   0.648   1.874  0.0798  0.4072  0.1974
   46MOL   H49430284   1.826   0.621   1.679 -0.2876  0.2126 -0.1619
   46MOL   H49530285   1.893   0.774   1.712 -0.5170  0.1730 -0.7552
   46MOL   H49630286   1.721   0.759   1.684  0.7507  1.9889 -0.4506
   46MOL   C49730287   1.420   1.460   2.547 -0.1963  0.3522  0.1955
   46MOL   C49830288   1.323   1.360   2.612 -0.6684  0.0001  0.4137
   46MOL   C49930289   1.225   1.299   2.508  0.7101  0.0797 -0.7395
   46MOL   C50030290   1.139   1.398   2.426 -0.1727  0.0333 -0.1540
   46MOL   C50130291   1.026   1.320   2.358 -0.6922 -0.3241  0.1279
   46MOL   C50230292   0.961   1.405   2.249  0.7960 -0.5394 -0.0035
   46MOL   C50330293   0.832   1.345   2.179  0.1689  0.8078  0.2737
   46MOL   C50430294   0.856   1.221   2.097  0.3044 -0.6140  0.2843
   46MOL   C50530295   0.734   1.180   2.018  0.1031  0.1553  0.4754
   46MOL   C50630296   0.781   1.086   1.901  0.0178  0.1125 -0.0191
   46MOL   C50730297   0.879   0.971   1.937 -0.5762  0.1461 -0.5127
   46MOL   H50830298   1.489   1.494   2.624  0.4280 -1.7079  0.5743
   46MOL   H50930299   1.370   1.551   2.513 -0.2704  0.5923  0.9167
   46MOL   H51030300   1.380   1.273   2.643  0.6640  1.0583  0.9869
   46MOL   H51130301   1.149   1.241   2.560  0.4133 -0.2788 -1.5728
   46MOL   H51230302   1.283   1.231   2.446 -0.2808  0.6162 -2.2790
   46MOL   H51330303   1.199   1.446   2.349 -2.0261 -1.1991 -2.4745
   46MOL   H51430304   1.091   1.462   2.500 -1.3768  0.5602 -1.3720
   46MOL   H51530305   1.057   1.230   2.305 -0.2024  0.8402 -1.5811
   46MOL   H51630306   0.956   1.276   2.430 -0.7455 -1.5272 -0.6304
   46MOL   H51730307   0.923   1.500   2.287 -0.2569 -1.8064  2.1945
   46MOL   H51830308   1.037   1.432   2.175 -1.0597  0.0690 -1.7235
   46MOL   H51930309   0.766   1.318   2.261 -0.3959 -0.8308 -0.7047
   46MOL   H52030310   0.790   1.427   2.121  1.0652  2.8672  2.4547
   46MOL   H52130311   0.881   1.130   2.151 -1.4984 -1.3249 -0.0496
   46MOL   H52230312   0.938   1.250   2.032  1.0247 -0.9209  1.0476
   46MOL   H52330313   0.673   1.266   1.992 -0.2004  0.9140  3.4526
   46MOL   H52430314   0.682   1.135   2.103  1.4331 -4.3916 -0.9339
   46MOL   H52530315   0.821   1.154   1.826 -0.7077 -0.3309 -0.8246
   46MOL   H52630316   0.689   1.042   1.859  0.5802  0.1090 -1.2743
   46MOL   H52730317   0.824   0.899   1.998 -1.6382  2.2541  1.0966
   46MOL   H52830318   0.967   1.003   1.992  0.1652 -0.5185 -1.3073
   46MOL   H52930319   0.909   0.909   1.852  0.1077  0.8104 -0.7559
   46MOL   C53030320   1.251   1.420   2.736  0.3654 -0.4941  0.2417
   46MOL   C53130321   1.337   1.452   2.857 -0.1479  0.2120 -0.0869
   46MOL   C53230322   1.413   1.326   2.918 -0.9422 -0.8986 -0.1190
   46MOL   C53330323   1.506   1.347   3.041  0.2888  0.2272 -0.1332
   46MOL   C53430324   1.562   1.214   3.083 -0.4286  0.5450  0.3235
   46MOL   C53530325   1.632   1.212   3.213  0.6594  0.9782 -0.2347
   46MOL   C53630326   1.556   1.255   3.336  0.2350  0.3252 -0.0381
   46MOL   C53730327   1.438   1.167   3.380 -0.7805 -0.1057  0.1631
   46MOL   C53830328   1.432   1.144   3.535 -0.3910  0.2363  0.7069
   46MOL   C53930329   1.310   1.068   3.574  0.5573 -0.3574 -1.2726
   46MOL   C54030330   1.318   1.037   3.718  0.4698  0.1949 -0.0484
   46MOL   H54130331   1.184   1.502   2.709 -0.3268 -1.0193  0.3568
   46MOL   H54230332   1.182   1.343   2.772  1.6003 -2.4543 -1.4701
   46MOL   H54330333   1.420   1.518   2.833 -0.5147  0.8415  0.3595
   46MOL   H54430334   1.485   1.306   2.838  0.0451  0.8532  0.3067
   46MOL   H54530335   1.345   1.245   2.943 -0.5092 -0.7930  1.4677
   46MOL   H54630336   1.439   1.383   3.119 -0.4369 -1.0794 -0.1315
   46MOL   H54730337   1.581   1.424   3.023  0.8758  0.0895  1.6514
   46MOL   H54830338   1.634   1.184   3.007 -0.5794  1.2287 -0.0878
   46MOL   H54930339   1.476   1.149   3.096 -0.9457  1.4986  1.8662
   46MOL   H55030340   1.718   1.279   3.205  0.7349  0.8717 -0.2985
   46MOL   H55130341   1.666   1.111   3.236 -1.2801  0.1278 -1.0327
   46MOL   H55230342   1.524   1.358   3.322 -0.8360  0.0006 -0.0839
   46MOL   H55330343   1.624   1.246   3.421  0.3252  2.0226  0.0923
   46MOL   H55430344   1.463   1.071   3.335  1.3546  0.6011 -0.2226
   46MOL   H55530345   1.347   1.207   3.334 -0.7672 -1.5556 -1.1687
   46MOL   H55630346   1.424   1.239   3.589  0.4755 -0.0109  1.2715
   46MOL   H55730347   1.524   1.091   3.555  0.6447  2.0640  0.9492
   46MOL   H55830348   1.294   0.977   3.517 -1.8785 -0.4726 -0.4664
   46MOL   H55930349   1.217   1.118   3.547 -1.2459 -2.7999  0.2400
   46MOL   H56030350   1.341   1.134   3.760  0.3225 -0.1624  0.8749
   46MOL   H56130351   1.223   0.997   3.754  0.3149 -1.1400 -1.8257
   46MOL   H56230352   1.404   0.974   3.743 -0.1222 -0.6856 -0.2093
   46MOL   C56330353   1.245   1.520   2.957  0.8600 -0.8388 -0.7213
   46MOL   C56430354   1.306   1.629   3.049 -0.0179 -0.3322 -0.3669
   46MOL   C56530355   1.215   1.650   3.170  0.5437  0.7438 -0.5774
   46MOL   C56630356   1.233   1.529   3.266  0.0895 -0.2062  0.1951
   46MOL   C56730357   1.190   1.555   3.417 -0.3078  0.1434  0.4109
   46MOL   C56830358   1.172   1.430   3.498  0.2893 -0.3627  0.3593
   46MOL   C56930359   1.136   1.453   3.639  0.0375 -0.4712  0.0322
   46MOL   C57030360   0.997   1.514   3.660 -0.2603 -0.4502 -0.8791
   46MOL   C57130361   0.943   1.522   3.802  0.6588  0.2055 -0.9395
   46MOL   C57230362   0.822   1.617   3.819 -0.0543 -0.3035  0.3247
   46MOL   C57330363   0.770   1.596   3.960 -0.2212 -0.0293  0.3311
   46MOL   H57430364   1.181   1.455   3.017  0.0330  1.3097  0.7685
   46MOL   H57530365   1.173   1.583   2.906 -0.6121 -1.5272  0.4438
   46MOL   H57630366   1.406   1.600   3.082  0.6217  1.8725 -0.2576
   46MOL   H57730367   1.109   1.665   3.152 -0.1309 -0.5320  2.0244
   46MOL   H57830368   1.249   1.739   3.223  0.5793  2.5428 -3.5012
   46MOL   H57930369   1.332   1.483   3.272  0.7508  1.3484  1.9049
   46MOL   H58030370   1.173   1.447   3.229  0.8953  0.9105 -3.8107
   46MOL   H58130371   1.097   1.612   3.412 -0.1222  0.5668  1.6396
   46MOL   H58230372   1.262   1.618   3.468  0.2912  1.5247 -2.0911
   46MOL   H58330373   1.095   1.373   3.445 -0.5731  0.1141  1.1034
   46MOL   H58430374   1.265   1.373   3.490  1.5337  1.8877 -1.9280
   46MOL   H58530375   1.135   1.353   3.682 -1.1013 -0.3340  0.3373
   46MOL   H58630376   1.211   1.504   3.700 -1.3802  0.3736  1.1080
   46MOL   H58730377   0.923   1.472   3.592  0.4559  0.1431 -2.0504
   46MOL   H58830378   1.012   1.614   3.618  0.2332 -0.0020  0.3514
   46MOL   H58930379   1.020   1.552   3.874 -1.6329  0.0669  1.6551
   46MOL   H59030380   0.914   1.420   3.826  1.8337  0.2604  0.8044
   46MOL   H59130381   0.741   1.600   3.748 -0.9179  0.3023  1.1514
   46MOL   H59230382   0.851   1.721   3.804 -1.5077  0.2289  1.0698
   46MOL   H59330383   0.826   1.664   4.024  3.2318 -1.4475 -1.0700
   46MOL   H59430384   0.671   1.643   3.966 -0.2668 -0.1628  0.6164
   46MOL   H59530385   0.771   1.493   3.995 -2.8504  0.6726  2.6066
   46MOL   C59630386   1.334   1.760   2.970  0.0784 -0.3555  1.4688
   46MOL   C59730387   1.421   1.869   3.039  0.1084  0.2451  0.0040
   46MOL   C59830388   1.392   2.006   2.981  0.2970  1.2704 -0.2877
   46MOL   C59930389   1.486   2.116   3.026 -0.0622  0.1776 -0.0895
   46MOL   C60030390   1.419   2.250   2.995  0.5286 -0.5010  0.2433
   46MOL   C60130391   1.509   2.370   3.018  0.0835  0.0813 -0.1952
   46MOL   C60230392   1.605   2.386   2.902 -0.6525 -0.0265 -0.2435
   46MOL   C60330393   1.646   2.529   2.892 -0.0497  0.6025 -0.4256
   46MOL   C60430394   1.773   2.556   2.807 -0.3689  0.3018  0.5584
   46MOL   C60530395   1.821   2.698   2.819 -0.2124 -0.0985 -0.0290
   46MOL   C60630396   1.849   2.736   2.967 -0.0749  0.0608  0.1073
   46MOL   H60730397   1.359   1.739   2.866 -2.8962  0.1665  0.6074
   46MOL   H60830398   1.233   1.799   2.956  0.4024 -0.3468 -0.9513
   46MOL   H60930399   1.383   1.878   3.141  0.5368 -0.3391  0.2178
   46MOL   H61030400   1.287   2.032   2.994 -0.6534 -2.8012  0.7819
   46MOL   H61130401   1.388   1.999   2.872  1.2115  0.3950 -0.2708
   46MOL   H61230402   1.579   2.120   2.968  0.3346 -2.3023  0.3356
   46MOL   H61330403   1.506   2.107   3.133 -1.1639 -0.5998  0.0541
   46MOL   H61430404   1.333   2.256   3.063  0.5935  0.6332  0.2339
   46MOL   H61530405   1.389   2.257   2.891  2.2159 -1.1964 -0.2981
   46MOL   H61630406   1.453   2.464   3.017  1.4338  0.9342  1.0811
   46MOL   H61730407   1.567   2.358   3.110 -0.6085  0.6526  0.3199
   46MOL   H61830408   1.561   2.357   2.806 -1.4696 -0.2440  0.1945
   46MOL   H61930409   1.690   2.319   2.912 -3.0924 -2.9752  1.3932
   46MOL   H62030410   1.664   2.584   2.984  2.2791  0.2063 -0.6032
   46MOL   H62130411   1.564   2.590   2.855  0.3094  0.3990 -1.5865
   46MOL   H62230412   1.847   2.476   2.812 -0.5179  0.3172  4.3011
   46MOL   H62330413   1.735   2.556   2.705  0.2679  1.0968  0.3139
   46MOL   H62430414   1.741   2.763   2.784  0.0560  0.9012  1.1659
   46MOL   H62530415   1.912   2.716   2.762 -1.3706  1.1902 -1.4914
   46MOL   H62630416   1.760   2.773   3.018  1.1636  2.3229  0.6960
   46MOL   H62730417   1.897   2.658   3.024  1.3484  0.4467 -0.5399
   46MOL   H62830418   1.919   2.820   2.974  2.6556 -2.1265 -0.1395
   46MOL   C62930419   1.575   1.843   3.051  0.1796 -0.0760 -0.3330
   46MOL   C63030420   1.645   1.817   2.912 -0.2025 -0.4159  0.1445
   46MOL   C63130421   1.788   1.762   2.915 -0.2097  0.6057 -0.1998
   46MOL   C63230422   1.855   1.773   2.778  0.7578  0.1705 -0.0096
   46MOL   C63330423   2.001   1.740   2.788  0.3429 -0.1652  0.8388
   46MOL   C63430424   2.054   1.717   2.643 -0.6500  0.4796  0.5865
   46MOL   C63530425   2.187   1.651   2.630  0.0485  0.2561 -0.5691
   46MOL   C63630426   2.254   1.665   2.484  0.8572  0.0779 -0.3289
   46MOL   C63730427   2.382   1.579   2.457  0.6407  0.3950  0.4436
   46MOL   C63830428   2.431   1.582   2.318  0.1474  0.2619  0.3984
   46MOL   C63930429   2.560   1.502   2.287  0.1639  0.0955  0.0305
   46MOL   H64030430   1.623   1.925   3.104  0.1645 -1.0813  1.2737
   46MOL   H64130431   1.587   1.757   3.117 -0.4711 -1.1254 -1.5519
   46MOL   H64230432   1.584   1.756   2.844 -0.3858 -1.2990  1.0879
   46MOL   H64330433   1.845   1.806   2.997  1.0454  0.7204 -1.1142
   46MOL   H64430434   1.766   1.656   2.927 -0.7829  0.7883  0.4303
   46MOL   H64530435   1.837   1.874   2.743 -1.8010 -0.2472 -0.0008
   46MOL   H64630436   1.802   1.703   2.714 -0.6217 -0.0313  1.3208
   46MOL   H64730437   2.027   1.663   2.861  1.7817  1.9858  2.6988
   46MOL   H64830438   2.038   1.834   2.831  0.6506 -0.1773  0.6019
   46MOL   H64930439   2.045   1.807   2.581 -0.7218 -0.0248 -0.1439
   46MOL   H65030440   1.979   1.653   2.597 -0.5795  0.2158  0.8390
   46MOL   H65130441   2.169   1.548   2.662  1.1212  0.3323  0.2864
   46MOL   H65230442   2.265   1.690   2.695  1.6856 -1.9272 -1.1610
   46MOL   H65330443   2.261   1.772   2.463 -1.8572  0.5520  0.8762
   46MOL   H65430444   2.177   1.619   2.422  0.2475  1.0701 -0.3204
   46MOL   H65530445   2.357   1.478   2.492 -0.7696  0.1999 -1.1027
   46MOL   H65630446   2.464   1.613   2.521  0.2979  0.4658  0.8454
   46MOL   H65730447   2.456   1.682   2.282  1.5507 -0.1607  0.1811
   46MOL   H65830448   2.348   1.561   2.250  0.6433  2.2929 -0.8810
   46MOL   H65930449   2.589   1.508   2.182  0.6948 -0.1104  0.1668
   46MOL   H66030450   2.563   1.395   2.309  0.4057 -0.0669 -0.7775
   46MOL   H66130451   2.645   1.550   2.335 -0.1714  1.5498 -0.7910
   46MOL   H66230452   1.635   1.917   2.870 -0.0380 -1.3896 -2.3370
   47MOL     C130453   2.756   5.390   4.555 -0.0003 -0.1203  0.0263
   47MOL     C230454   2.641   5.291   4.541 -1.0081 -0.0626  0.7028
   47MOL     C330455   2.578   5.297   4.399  0.2881 -0.0784 -0.2869
   47MOL     C430456   2.439   5.225   4.383 -0.8918  0.2364 -0.3343
   47MOL     C530457   2.386   5.239   4.243  0.5398 -0.2670  0.3700
   47MOL     C630458   2.278   5.144   4.190  0.2134  0.0887  0.9678
   47MOL     C730459   2.338   5.010   4.155  0.4538 -0.4003 -0.3899
   47MOL     C830460   2.259   4.927   4.049  0.4016  0.3244  0.1683
   47MOL     C930461   2.141   4.847   4.097  0.1336  0.4990  0.3028
   47MOL    C1030462   2.059   4.792   3.972 -0.5391  0.9976  0.2059
   47MOL    C1130463   1.969   4.888   3.904 -0.0945  0.4700  0.3346
   47MOL    H1230464   2.824   5.365   4.473 -0.3947  1.3648 -0.7634
   47MOL    H1330465   2.805   5.384   4.652 -0.6946  2.5102  0.5639
   47MOL    H1430466   2.571   5.317   4.619 -3.1359 -1.6650 -0.5924
   47MOL    H1530467   2.643   5.263   4.318 -0.7952  1.8119 -2.0015
   47MOL    H1630468   2.554   5.403   4.386 -1.3343 -0.2309  1.2529
   47MOL    H1730469   2.375   5.263   4.463 -2.0490  0.6837 -1.4667
   47MOL    H1830470   2.453   5.117   4.393  1.3217  0.4931 -0.3595
   47MOL    H1930471   2.337   5.336   4.237 -1.9303 -1.5613 -0.8066
   47MOL    H2030472   2.464   5.242   4.167  0.7453  0.9136  0.6093
   47MOL    H2130473   2.242   5.188   4.096  1.6728 -2.4071 -0.8293
   47MOL    H2230474   2.184   5.143   4.244  0.2486  0.5378  1.0415
   47MOL    H2330475   2.439   5.020   4.115  0.0319 -4.0954 -2.7185
   47MOL    H2430476   2.354   4.954   4.247  0.0967  2.3504  1.4130
   47MOL    H2530477   2.334   4.857   4.011 -0.7876 -1.2629  0.6869
   47MOL    H2630478   2.220   4.992   3.970  0.0775  1.2104  1.0584
   47MOL    H2730479   2.085   4.909   4.166 -1.7940 -1.2014  0.3193
   47MOL    H2830480   2.186   4.770   4.160  0.1375  0.2667  0.0214
   47MOL    H2930481   2.008   4.703   4.007 -0.0605  0.2463 -0.9710
   47MOL    H3030482   2.123   4.745   3.898  0.5925  0.9555  1.1922
   47MOL    H3130483   2.026   4.975   3.873 -0.0400 -0.2272 -1.5507
   47MOL    H3230484   1.910   4.851   3.820  0.6494 -1.4294  0.6352
   47MOL    H3330485   1.897   4.933   3.973 -0.5531  1.0702 -0.5335
   47MOL    H3430486   2.717   5.491   4.548  0.8060  0.1021 -1.4706
   47MOL    C3530487   2.691   5.142   4.578 -0.8714 -0.0713 -0.5708
   47MOL    C3630488   2.585   5.059   4.653 -0.1753 -0.0964  0.0989
   47MOL    C3730489   2.603   4.914   4.620  0.3945  0.4893 -0.1689
   47MOL    C3830490   2.529   4.864   4.496  0.6959 -0.1224  0.3049
   47MOL    C3930491   2.530   4.714   4.479 -0.1368 -0.1179 -0.4474
   47MOL    C4030492   2.462   4.661   4.349  0.1428 -0.5194 -0.3879
   47MOL    C4130493   2.468   4.508   4.340 -0.2695  0.0839 -0.4135
   47MOL    C4230494   2.387   4.453   4.214 -0.2583 -1.0311  0.4330
   47MOL    C4330495   2.230   4.466   4.224  0.2654  0.0792 -0.5116
   47MOL    C4430496   2.157   4.414   4.097 -0.3880 -0.5841 -1.0217
   47MOL    C4530497   2.020   4.345   4.127 -0.0697  0.6230  0.1621
   47MOL    H4630498   2.786   5.140   4.631 -0.9258  0.8693 -0.4279
   47MOL    H4730499   2.720   5.097   4.483  0.7447  0.7169 -0.4636
   47MOL    H4830500   2.486   5.085   4.614  0.7541  0.7980 -1.7245
   47MOL    H4930501   2.710   4.891   4.617  0.1866 -0.5954  0.6397
   47MOL    H5030502   2.565   4.864   4.709  0.3707  1.3408  0.3122
   47MOL    H5130503   2.579   4.900   4.406 -1.2328 -0.2081 -0.8388
   47MOL    H5230504   2.429   4.908   4.489  0.8067  0.2391  0.9954
   47MOL    H5330505   2.482   4.666   4.564  1.4176 -0.5472  0.2166
   47MOL    H5430506   2.633   4.678   4.483  0.2425  0.7170 -2.1801
   47MOL    H5530507   2.499   4.699   4.254  1.7496  1.0313  0.8347
   47MOL    H5630508   2.363   4.709   4.350  0.6944  0.6278  0.3470
   47MOL    H5730509   2.571   4.476   4.320 -0.3591 -0.5724  0.1260
   47MOL    H5830510   2.421   4.462   4.427  1.1073  0.9626  0.8192
   47MOL    H5930511   2.419   4.352   4.187  0.5012 -1.2238  1.9761
   47MOL    H6030512   2.421   4.509   4.128 -0.1316 -0.2336  0.9967
   47MOL    H6130513   2.201   4.570   4.238  2.6481  0.4496  2.0837
   47MOL    H6230514   2.207   4.431   4.325 -0.7701  3.1727  0.3991
   47MOL    H6330515   2.146   4.494   4.024  1.2100  0.8110  0.2136
   47MOL    H6430516   2.222   4.340   4.050  2.0257  0.1901  1.0022
   47MOL    H6530517   2.035   4.264   4.199  0.8504  0.8012  0.1800
   47MOL    H6630518   1.956   4.417   4.178 -0.7719 -0.3966  0.7494
   47MOL    H6730519   1.961   4.318   4.039 -1.1469  1.0482  0.7510
   47MOL    C6830520   2.585   5.092   4.810  0.2071  0.2026  0.1400
   47MOL    C6930521   2.718   5.051   4.892  0.0546  0.6794 -0.2966
   47MOL    C7030522   2.822   5.165   4.910  0.2131  0.2154 -0.2878
   47MOL    C7130523   2.962   5.107   4.910  0.0885  0.0768 -0.4941
   47MOL    C7230524   3.073   5.213   4.931  0.1059 -0.2077  0.5687
   47MOL    C7330525   3.218   5.164   4.972 -0.1378 -0.7472 -0.4493
   47MOL    C7430526   3.301   5.117   4.854  0.0421  0.0074  0.2035
   47MOL    C7530527   3.454   5.114   4.880 -0.4515  0.0260 -0.1530
   47MOL    C7630528   3.548   5.067   4.760  0.1887 -0.5075  0.2374
   47MOL    C7730529   3.536   5.142   4.633 -0.5589  0.0867 -0.3380
   47MOL    C7830530   3.554   5.287   4.642 -0.1078  0.0758  0.0362
   47MOL    H7930531   2.501   5.043   4.860 -0.6715 -1.0517 -2.4782
   47MOL    H8030532   2.555   5.196   4.824 -0.0184  0.2230 -0.4924
   47MOL    H8130533   2.775   4.983   4.829 -1.4052 -0.0688 -0.8285
   47MOL    H8230534   2.807   5.231   4.996 -0.6293  0.9476 -0.9853
   47MOL    H8330535   2.813   5.239   4.830 -2.9305  1.0083  0.7110
   47MOL    H8430536   2.978   5.041   4.996  0.1155 -1.2556 -1.5111
   47MOL    H8530537   2.994   5.049   4.824 -0.0437 -1.6618  0.6033
   47MOL    H8630538   3.049   5.280   5.013  0.6001 -0.0345  0.5708
   47MOL    H8730539   3.078   5.275   4.842 -0.2415 -0.2028  0.5563
   47MOL    H8830540   3.264   5.253   5.015  0.9932 -0.6974 -1.7259
   47MOL    H8930541   3.222   5.098   5.058  1.9285 -0.8496 -0.5949
   47MOL    H9030542   3.287   5.175   4.763 -1.5962 -1.0145 -0.2093
   47MOL    H9130543   3.278   5.012   4.841 -0.8003  0.0416  1.3284
   47MOL    H9230544   3.480   5.215   4.912 -0.4551 -0.4141  1.2550
   47MOL    H9330545   3.470   5.047   4.965 -0.0417 -1.0322 -1.0596
   47MOL    H9430546   3.653   5.066   4.790  0.5455 -2.8071 -1.0027
   47MOL    H9530547   3.522   4.961   4.754  0.3486 -0.6175  1.3701
   47MOL    H9630548   3.602   5.107   4.554 -1.3177 -2.0679 -0.0291
   47MOL    H9730549   3.437   5.129   4.590 -0.3164 -0.9087 -0.6015
   47MOL    H9830550   3.547   5.334   4.544 -2.3059 -0.1831  0.0568
   47MOL    H9930551   3.647   5.313   4.693 -0.5745 -0.1388  1.0062
   47MOL   H10030552   3.477   5.329   4.706 -0.8632 -0.8130 -0.2716
   47MOL   C10130553   2.681   4.979   5.023 -0.0331  0.3840 -0.4811
   47MOL   C10230554   2.670   4.829   5.008  0.0828  0.9556 -0.3934
   47MOL   C10330555   2.573   4.753   5.105  0.3290 -0.0561  0.0602
   47MOL   C10430556   2.597   4.789   5.248 -0.2951 -0.1744  0.4947
   47MOL   C10530557   2.546   4.680   5.347 -0.5929 -0.3391  0.1777
   47MOL   C10630558   2.392   4.645   5.331  0.0570  0.0888 -0.8151
   47MOL   C10730559   2.298   4.763   5.368 -0.1439 -0.9214  0.2981
   47MOL   C10830560   2.154   4.740   5.342 -0.6080 -0.5426 -0.2886
   47MOL   C10930561   2.066   4.837   5.411 -0.0838 -0.4408 -0.6166
   47MOL   C11030562   1.914   4.822   5.399 -0.0035  0.3666  0.4884
   47MOL   C11130563   1.855   4.831   5.257 -0.2508 -0.6023  0.5290
   47MOL   H11230564   2.752   5.008   5.100 -1.0845 -0.2881  0.7534
   47MOL   H11330565   2.589   5.020   5.064  0.6473  0.4791  0.9560
   47MOL   H11430566   2.622   4.816   4.910 -0.1962 -0.1091 -0.1199
   47MOL   H11530567   2.472   4.785   5.081 -0.2402 -2.2823 -0.6597
   47MOL   H11630568   2.566   4.644   5.094 -3.6886 -0.0097  1.5018
   47MOL   H11730569   2.706   4.796   5.260 -0.4018 -0.4658  1.7862
   47MOL   H11830570   2.556   4.885   5.282 -0.4589 -0.5338  1.3312
   47MOL   H11930571   2.607   4.593   5.320 -0.2146  0.4326 -1.5211
   47MOL   H12030572   2.579   4.701   5.448  2.5549 -1.3806 -0.5744
   47MOL   H12130573   2.372   4.612   5.229  1.6235  1.9503 -1.7465
   47MOL   H12230574   2.371   4.562   5.399  0.7393 -0.4158 -1.2131
   47MOL   H12330575   2.328   4.854   5.316  0.6191 -0.0699  2.1746
   47MOL   H12430576   2.321   4.784   5.473  0.8363 -0.7605  0.0533
   47MOL   H12530577   2.132   4.737   5.235  0.1071  1.1680 -0.5010
   47MOL   H12630578   2.124   4.642   5.380 -1.9746 -0.7235 -1.7771
   47MOL   H12730579   2.087   4.809   5.515  0.2474 -0.6842 -0.7482
   47MOL   H12830580   2.082   4.944   5.402  0.7826 -0.5696 -0.6626
   47MOL   H12930581   1.855   4.889   5.461  0.6815  0.2409  1.2790
   47MOL   H13030582   1.877   4.735   5.453 -0.9045 -0.3201 -1.1833
   47MOL   H13130583   1.899   4.750   5.198  1.0856  0.0068  0.6768
   47MOL   H13230584   1.748   4.812   5.247 -0.5784  1.1511  0.6539
   47MOL   H13330585   1.891   4.923   5.213  0.4709 -0.3697  1.6044
   47MOL   C13430586   2.810   4.757   4.990 -0.3454 -0.3379 -0.3393
   47MOL   C13530587   2.811   4.601   4.971 -0.0295  0.6331 -0.0095
   47MOL   C13630588   2.718   4.547   4.863 -0.4106  0.0602 -0.1100
   47MOL   C13730589   2.760   4.411   4.797 -1.1064 -0.1569  0.0090
   47MOL   C13830590   2.763   4.405   4.645  0.0117  0.3215  1.0157
   47MOL   C13930591   2.751   4.261   4.598 -0.6649  0.0594  0.3257
   47MOL   C14030592   2.786   4.246   4.446  0.0291 -0.0510 -0.3183
   47MOL   C14130593   2.749   4.105   4.398  0.4609 -0.1814 -0.2719
   47MOL   C14230594   2.817   4.068   4.262 -0.2961 -0.0261  0.2932
   47MOL   C14330595   2.783   3.929   4.203 -0.9044 -0.8752  0.2779
   47MOL   C14430596   2.866   3.890   4.083 -0.3215  0.2281 -0.3238
   47MOL   H14530597   2.873   4.800   4.913  2.4424 -3.1882  0.2786
   47MOL   H14630598   2.874   4.771   5.077 -1.6607 -2.0630  0.9467
   47MOL   H14730599   2.913   4.573   4.944  0.1459  2.2962 -1.2009
   47MOL   H14830600   2.726   4.611   4.775  0.0718 -1.0632 -0.8857
   47MOL   H14930601   2.617   4.543   4.904  0.4819 -0.4464  2.1268
   47MOL   H15030602   2.863   4.391   4.827 -0.1400  1.2113 -2.2908
   47MOL   H15130603   2.696   4.330   4.833 -1.0801  0.4114  1.3746
   47MOL   H15230604   2.690   4.466   4.592 -0.3510 -0.9017  0.0761
   47MOL   H15330605   2.858   4.446   4.612 -1.3136  1.3393 -1.6602
   47MOL   H15430606   2.822   4.184   4.630 -0.2569  0.3538  0.1288
   47MOL   H15530607   2.659   4.215   4.634 -0.0526 -0.1135  1.6934
   47MOL   H15630608   2.738   4.326   4.390  0.8853 -0.8419 -2.2263
   47MOL   H15730609   2.890   4.269   4.426  0.8193 -3.0315  0.0257
   47MOL   H15830610   2.790   4.042   4.477 -0.2534  1.5937  1.5698
   47MOL   H15930611   2.641   4.105   4.387  0.3759  2.8431  0.0169
   47MOL   H16030612   2.791   4.137   4.182  0.3275 -0.0475  0.0699
   47MOL   H16130613   2.924   4.085   4.268 -0.0310 -2.0181  1.8240
   47MOL   H16230614   2.802   3.856   4.281  1.3699  0.0673  0.6403
   47MOL   H16330615   2.678   3.924   4.175 -1.1905  1.7758  0.6872
   47MOL   H16430616   2.835   3.794   4.042  3.2143 -1.8524  1.6714
   47MOL   H16530617   2.964   3.871   4.128 -0.8737  1.4635  1.4378
   47MOL   H16630618   2.882   3.961   4.001  2.8943  0.4384  0.4292
   47MOL   C16730619   2.801   4.519   5.104 -0.5572 -0.6922 -0.6599
   47MOL   C16830620   2.914   4.413   5.132 -0.3176 -0.1248 -0.1800
   47MOL   C16930621   2.858   4.268   5.124  0.3437 -0.2023  0.2568
   47MOL   C17030622   2.964   4.157   5.080 -0.3274  0.9853  0.1777
   47MOL   C17130623   2.905   4.014   5.056  0.2349 -0.5488  0.0590
   47MOL   C17230624   2.835   3.997   4.922 -0.2632 -0.2938 -0.4173
   47MOL   C17330625   2.729   3.885   4.910 -0.1630  0.0332 -0.1045
   47MOL   C17430626   2.674   3.855   4.770  0.4506  0.3849  0.4405
   47MOL   C17530627   2.552   3.766   4.776 -0.1505  0.7604  0.2442
   47MOL   C17630628   2.513   3.714   4.635  0.3301  0.1802  0.6375
   47MOL   C17730629   2.396   3.614   4.641 -0.1929 -0.3609  0.4960
   47MOL   H17830630   2.799   4.589   5.187  2.6041 -0.5135 -0.6459
   47MOL   H17930631   2.707   4.468   5.121  1.2049 -3.8900 -0.0773
   47MOL   H18030632   2.991   4.410   5.055  0.6456 -1.7365  0.8053
   47MOL   H18130633   2.782   4.278   5.047  0.8382 -0.7513 -0.3123
   47MOL   H18230634   2.815   4.246   5.221  1.8305 -0.2971  0.9131
   47MOL   H18330635   3.008   4.183   4.984  0.6633  0.3769  0.4611
   47MOL   H18430636   3.039   4.148   5.159  1.5315 -0.9745 -1.7496
   47MOL   H18530637   2.831   3.989   5.132 -0.0317 -1.3185 -0.4546
   47MOL   H18630638   2.990   3.948   5.046 -0.2333 -1.0406 -0.7253
   47MOL   H18730639   2.787   4.089   4.889 -0.1665 -0.5746 -1.3471
   47MOL   H18830640   2.913   3.986   4.847  1.0710  1.4694  0.6938
   47MOL   H18930641   2.646   3.913   4.974  0.0002 -1.6683  0.8892
   47MOL   H19030642   2.762   3.791   4.953  0.6549  0.3854  0.0540
   47MOL   H19130643   2.650   3.947   4.717  1.2243 -0.2758 -1.0866
   47MOL   H19230644   2.755   3.804   4.718  0.0315  0.4255 -0.2483
   47MOL   H19330645   2.468   3.818   4.821 -1.3691 -0.6262 -0.3918
   47MOL   H19430646   2.563   3.686   4.850 -1.4482  0.7086  0.3902
   47MOL   H19530647   2.601   3.665   4.591 -1.6329 -2.1755 -0.7944
   47MOL   H19630648   2.485   3.792   4.564  0.6485 -1.3532 -1.2157
   47MOL   H19730649   2.430   3.521   4.686  0.9627 -0.6920 -1.0229
   47MOL   H19830650   2.373   3.587   4.538 -1.2342 -0.6133  0.7892
   47MOL   H19930651   2.305   3.657   4.684 -0.3571 -0.1949 -0.0144
   47MOL   C20030652   2.993   4.430   5.266  0.3032 -0.7192  0.1992
   47MOL   C20130653   3.086   4.553   5.273 -0.2215 -0.2848 -0.0882
   47MOL   C20230654   3.227   4.520   5.208  0.6791 -0.2299 -0.2041
   47MOL   C20330655   3.304   4.638   5.150 -0.2883  0.3383 -0.3184
   47MOL   C20430656   3.228   4.717   5.036 -0.1005 -0.2029 -0.6226
   47MOL   C20530657   3.206   4.623   4.911  0.1763 -0.6200  0.0625
   47MOL   C20630658   3.167   4.713   4.795 -0.2143  0.2582  0.0148
   47MOL   C20730659   3.141   4.640   4.662  0.6461  0.2617  0.0873
   47MOL   C20830660   3.110   4.737   4.545 -0.1762  0.5465 -0.1061
   47MOL   C20930661   3.078   4.652   4.417  0.3048  0.1187  0.7575
   47MOL   C21030662   3.084   4.721   4.286 -0.3843 -0.3431 -0.6906
   47MOL   H21130663   2.935   4.439   5.357 -1.2351 -0.9545 -0.7427
   47MOL   H21230664   3.045   4.336   5.284  1.4380 -0.3173 -0.8840
   47MOL   H21330665   3.035   4.629   5.213  1.5037  0.4873 -0.5963
   47MOL   H21430666   3.202   4.452   5.127  0.1059 -0.3938  0.1091
   47MOL   H21530667   3.282   4.467   5.285 -0.6565 -2.3138 -0.6589
   47MOL   H21630668   3.401   4.603   5.114 -1.2364 -0.8081 -1.8576
   47MOL   H21730669   3.329   4.707   5.231 -0.7132  0.7293 -0.5217
   47MOL   H21830670   3.270   4.814   5.012  0.1352  0.3298  1.8194
   47MOL   H21930671   3.127   4.747   5.062 -0.4377 -1.4553 -0.4415
   47MOL   H22030672   3.293   4.560   4.892  0.5971  0.2330 -0.8945
   47MOL   H22130673   3.124   4.552   4.927  0.5269 -1.3124 -1.1707
   47MOL   H22230674   3.251   4.782   4.780 -0.8040  1.2015  0.9805
   47MOL   H22330675   3.086   4.780   4.824 -1.9464 -1.7155 -0.2246
   47MOL   H22430676   3.056   4.574   4.680  1.5922 -0.9190  0.2487
   47MOL   H22530677   3.228   4.578   4.644  0.8346  1.3385 -3.2090
   47MOL   H22630678   3.181   4.818   4.527 -2.0339  2.2681  0.0473
   47MOL   H22730679   3.024   4.796   4.576 -0.8616 -0.6982  0.4035
   47MOL   H22830680   3.145   4.566   4.407  1.3871  0.9864  0.4418
   47MOL   H22930681   2.977   4.621   4.442  0.3097 -0.1198  0.4838
   47MOL   H23030682   3.006   4.797   4.285 -1.6869 -1.6086 -4.3892
   47MOL   H23130683   3.062   4.657   4.201 -0.1572 -0.0781 -0.9502
   47MOL   H23230684   3.183   4.766   4.280 -0.5176 -0.2290 -2.2137
   47MOL   C23330685   3.100   4.597   5.420 -0.4375  0.3840  0.3595
   47MOL   C23430686   2.981   4.700   5.470  0.4694 -0.6198  0.5663
   47MOL   C23530687   3.027   4.845   5.454 -0.1316 -0.1801  0.4425
   47MOL   C23630688   2.921   4.958   5.488  0.6359  0.2789 -0.1733
   47MOL   C23730689   2.941   5.084   5.406 -0.2269  0.8158 -0.0096
   47MOL   C23830690   2.870   5.210   5.451 -0.2038 -0.3127 -0.1764
   47MOL   C23930691   2.915   5.334   5.369  0.8436  0.6775 -0.0607
   47MOL   C24030692   2.862   5.473   5.411  0.2459 -0.2637  0.5201
   47MOL   C24130693   2.920   5.585   5.330 -0.5810  0.8215 -0.1193
   47MOL   C24230694   2.853   5.723   5.358 -0.0282 -0.1413  0.0376
   47MOL   C24330695   2.939   5.845   5.348 -0.3871 -0.5170 -0.2981
   47MOL   H24430696   3.192   4.648   5.449  0.2206 -0.6549  0.1074
   47MOL   H24530697   3.103   4.505   5.478  0.9014  0.9547  1.2160
   47MOL   H24630698   2.891   4.695   5.409 -1.3831 -1.4646  3.3279
   47MOL   H24730699   3.114   4.872   5.514  0.6782  1.4901 -1.4125
   47MOL   H24830700   3.063   4.858   5.352 -1.1199  4.0868  0.5372
   47MOL   H24930701   2.923   4.991   5.592 -1.1638  0.8168 -0.2867
   47MOL   H25030702   2.824   4.911   5.470  1.4455 -1.0098 -1.3310
   47MOL   H25130703   2.915   5.058   5.303 -0.4718 -0.8640  0.4557
   47MOL   H25230704   3.047   5.104   5.416  0.0186 -0.4568  0.0141
   47MOL   H25330705   2.885   5.235   5.556 -0.1531 -0.9948 -0.0200
   47MOL   H25430706   2.762   5.205   5.436 -0.2963 -0.6685  0.5633
   47MOL   H25530707   3.023   5.341   5.376  0.9030 -1.9933  2.6570
   47MOL   H25630708   2.896   5.321   5.262 -3.1298 -1.6729  0.8254
   47MOL   H25730709   2.755   5.469   5.392  0.3828  1.0127 -0.5740
   47MOL   H25830710   2.870   5.487   5.519 -0.8194 -1.3432  0.7424
   47MOL   H25930711   3.026   5.593   5.352 -0.6310  1.1832 -0.0131
   47MOL   H26030712   2.897   5.577   5.224 -0.8903  1.3419 -0.0964
   47MOL   H26130713   2.823   5.728   5.462 -0.5819 -1.2887 -0.0555
   47MOL   H26230714   2.764   5.741   5.297 -1.1038 -3.1057  0.6495
   47MOL   H26330715   2.892   5.937   5.381 -0.3306 -1.4490  2.4546
   47MOL   H26430716   2.951   5.855   5.240 -0.0053  1.1054 -0.1094
   47MOL   H26530717   3.037   5.831   5.394  0.1166  0.6859 -0.9719
   47MOL   C26630718   2.942   4.678   5.621  0.2914  0.0591  0.3389
   47MOL   C26730719   2.897   4.530   5.670 -0.1407 -0.1944 -0.2056
   47MOL   C26830720   2.757   4.506   5.607  0.6973  0.3968  0.5478
   47MOL   C26930721   2.673   4.390   5.661 -0.1446  0.4261  0.5110
   47MOL   C27030722   2.543   4.361   5.581  0.2568 -0.1733  0.4541
   47MOL   C27130723   2.467   4.231   5.604  0.0697 -0.1262 -0.1510
   47MOL   C27230724   2.424   4.215   5.751  0.0792  0.0700 -0.5899
   47MOL   C27330725   2.356   4.078   5.780 -0.1598 -0.3515  0.3196
   47MOL   C27430726   2.334   4.044   5.928 -0.1461  0.7423  0.5761
   47MOL   C27530727   2.454   4.049   6.018  0.0210  0.1981  0.0075
   47MOL   C27630728   2.446   3.977   6.158 -0.3253  0.3110 -0.2156
   47MOL   H27730729   2.871   4.752   5.658 -0.3584 -0.0801 -0.6210
   47MOL   H27830730   3.030   4.709   5.678  0.3798 -0.2549  0.3733
   47MOL   H27930731   2.970   4.453   5.642  1.6643  0.9960  1.1208
   47MOL   H28030732   2.689   4.591   5.623  0.7373  0.0406  2.7889
   47MOL   H28130733   2.775   4.501   5.500  1.1769  0.5943  0.6180
   47MOL   H28230734   2.651   4.406   5.766  2.3552  0.2433  1.0906
   47MOL   H28330735   2.734   4.300   5.666 -0.4136  0.3325  2.1653
   47MOL   H28430736   2.568   4.361   5.475 -0.4751  0.9745  0.2653
   47MOL   H28530737   2.468   4.440   5.592 -0.8848 -1.2631  0.5584
   47MOL   H28630738   2.539   4.149   5.594 -1.2116 -1.3578  0.4154
   47MOL   H28730739   2.392   4.208   5.528  0.9667 -0.5270 -0.9253
   47MOL   H28830740   2.512   4.231   5.813  1.1908 -0.3750 -2.0111
   47MOL   H28930741   2.343   4.282   5.779  0.0449 -0.2948  0.1986
   47MOL   H29030742   2.417   4.009   5.722 -2.7345 -2.2979 -0.1998
   47MOL   H29130743   2.259   4.069   5.731  0.6359  0.3522 -1.4270
   47MOL   H29230744   2.253   4.109   5.962 -0.2271  0.9272  0.0357
   47MOL   H29330745   2.293   3.943   5.927  0.3613  0.5205 -1.8831
   47MOL   H29430746   2.485   4.152   6.035  1.9675 -0.3877  0.2351
   47MOL   H29530747   2.541   4.004   5.968  0.6459 -0.3064  1.5238
   47MOL   H29630748   2.547   3.968   6.198 -0.7179 -2.2576  0.2755
   47MOL   H29730749   2.405   3.878   6.136 -1.5181  0.8355 -0.4106
   47MOL   H29830750   2.383   4.028   6.231 -0.6524  1.1514 -1.0732
   47MOL   C29930751   2.900   4.517   5.829  0.3753 -0.9281 -0.6020
   47MOL   C30030752   3.037   4.539   5.898 -0.4044 -0.0392 -0.4311
   47MOL   C30130753   3.133   4.427   5.867 -0.2617 -0.0860  0.3303
   47MOL   C30230754   3.282   4.447   5.907  0.1481  0.3295  0.4479
   47MOL   C30330755   3.376   4.352   5.838  0.1475  0.2263  0.2216
   47MOL   C30430756   3.512   4.346   5.901 -0.3040  0.4326 -0.6323
   47MOL   C30530757   3.579   4.212   5.879 -0.3951  0.4132 -0.1190
   47MOL   C30630758   3.698   4.204   5.981 -0.3498 -0.4617 -0.0066
   47MOL   C30730759   3.787   4.078   5.965  0.5805 -0.1175 -0.8017
   47MOL   C30830760   3.916   4.070   6.049  0.7064 -0.4583  0.0686
   47MOL   C30930761   4.021   4.167   6.000  0.0722  0.2239  0.0504
   47MOL   H31030762   2.878   4.417   5.864 -0.9666  0.2375  2.0343
   47MOL   H31130763   2.821   4.576   5.878  1.0216 -0.4917 -0.0796
   47MOL   H31230764   3.087   4.628   5.861 -0.8408  0.8608  1.1074
   47MOL   H31330765   3.093   4.331   5.900  1.6742 -0.9000  0.3425
   47MOL   H31430766   3.136   4.411   5.760 -2.4092  1.3965  0.0091
   47MOL   H31530767   3.311   4.547   5.874  2.2518  0.6199  2.9746
   47MOL   H31630768   3.299   4.456   6.014 -2.0850 -1.1715  0.9766
   47MOL   H31730769   3.341   4.253   5.866  0.1164  0.0587 -0.4169
   47MOL   H31830770   3.383   4.349   5.730  3.4732  0.6522  0.3831
   47MOL   H31930771   3.513   4.376   6.006  3.0119  1.0006 -0.7760
   47MOL   H32030772   3.570   4.426   5.854  0.1338  1.1045  1.0153
   47MOL   H32130773   3.520   4.124   5.904  0.0760  0.9688  3.1913
   47MOL   H32230774   3.612   4.203   5.776 -1.5668  4.0704 -0.8916
   47MOL   H32330775   3.667   4.219   6.084  0.1513  0.4164  0.0208
   47MOL   H32430776   3.761   4.291   5.960 -0.8920 -0.2513 -0.8139
   47MOL   H32530777   3.812   4.071   5.859 -2.8919 -2.4530 -1.5439
   47MOL   H32630778   3.724   3.993   5.991  0.8965 -0.3861 -0.9167
   47MOL   H32730779   3.954   3.968   6.045  0.3423 -0.7442  3.0475
   47MOL   H32830780   3.894   4.084   6.155  0.1572 -1.3406  0.0751
   47MOL   H32930781   4.046   4.134   5.899  1.4565  0.0726  0.4288
   47MOL   H33030782   3.988   4.271   6.000  1.4080  0.6612 -1.1968
   47MOL   H33130783   4.113   4.149   6.056  0.9816 -3.2428 -2.3881
   47MOL   C33230784   3.018   4.548   6.051  0.2231 -0.8853 -0.3133
   47MOL   C33330785   3.082   4.679   6.104 -0.5743  0.2718  0.1887
   47MOL   C33430786   3.097   4.681   6.258 -0.8326  0.3736  0.1447
   47MOL   C33530787   3.214   4.599   6.315  0.2969 -0.6445 -0.5296
   47MOL   C33630788   3.365   4.643   6.276 -0.1893  0.8761 -0.1781
   47MOL   C33730789   3.468   4.538   6.314 -0.1950  0.0431 -0.0154
   47MOL   C33830790   3.614   4.581   6.303 -0.4500 -0.5739  0.8592
   47MOL   C33930791   3.705   4.470   6.342 -0.3923 -0.1496  1.1201
   47MOL   C34030792   3.855   4.500   6.308 -0.0680  0.4200 -0.1858
   47MOL   C34130793   3.943   4.368   6.327  0.4810  0.3931  0.4433
   47MOL   C34230794   4.081   4.387   6.262 -0.7944  0.4398  0.4834
   47MOL   H34330795   2.911   4.560   6.072 -0.0838 -3.3606 -0.2048
   47MOL   H34430796   3.050   4.463   6.112 -0.0713 -1.0980 -0.4548
   47MOL   H34530797   3.178   4.685   6.052  0.1464  0.0976  1.4818
   47MOL   H34630798   3.008   4.640   6.306 -0.7976 -2.7761 -2.3053
   47MOL   H34730799   3.115   4.780   6.298 -3.5051  0.9479  0.0086
   47MOL   H34830800   3.203   4.591   6.423  2.2863 -3.6834 -0.4722
   47MOL   H34930801   3.202   4.497   6.278  0.4061 -0.2759 -1.6206
   47MOL   H35030802   3.363   4.647   6.167  0.3521  0.9938 -0.1833
   47MOL   H35130803   3.405   4.734   6.321  0.6958  0.6289 -0.4531
   47MOL   H35230804   3.463   4.454   6.245 -1.0974 -0.3380  0.4948
   47MOL   H35330805   3.438   4.507   6.415 -1.0501 -1.8836 -0.8228
   47MOL   H35430806   3.631   4.669   6.364 -1.4509  0.7141 -0.6590
   47MOL   H35530807   3.642   4.608   6.201  0.2865 -1.0308  0.9345
   47MOL   H35630808   3.696   4.440   6.447 -0.5766  0.7971  1.3793
   47MOL   H35730809   3.688   4.382   6.280  0.5003  0.5014 -0.0586
   47MOL   H35830810   3.900   4.571   6.378 -0.0357  1.5512 -1.3593
   47MOL   H35930811   3.870   4.544   6.210 -2.1885  0.8761 -0.3306
   47MOL   H36030812   3.897   4.276   6.292 -1.4282  1.6797 -0.5155
   47MOL   H36130813   3.965   4.353   6.433  0.8959 -2.8584 -0.0667
   47MOL   H36230814   4.072   4.418   6.158 -0.8247 -0.4582  0.2191
   47MOL   H36330815   4.136   4.468   6.310 -0.2184  1.1955 -1.3907
   47MOL   H36430816   4.136   4.295   6.279  0.0415  1.1750  1.8125
   47MOL   C36530817   3.004   4.804   6.059  0.1856  0.4665  0.1492
   47MOL   C36630818   3.097   4.898   5.973  0.7517  0.6577  0.2828
   47MOL   C36730819   3.017   5.001   5.895 -0.5485  0.2078 -0.2502
   47MOL   C36830820   2.913   5.088   5.979  0.1513  0.2023 -1.1651
   47MOL   C36930821   2.828   5.172   5.888 -0.5763  0.1504 -0.0228
   47MOL   C37030822   2.730   5.273   5.958  0.0498 -0.7161  0.0698
   47MOL   C37130823   2.672   5.376   5.864 -0.4037  0.4867 -0.6152
   47MOL   C37230824   2.572   5.474   5.931  0.5517  0.0213 -0.2784
   47MOL   C37330825   2.524   5.583   5.840 -0.3571 -1.1041  0.0476
   47MOL   C37430826   2.615   5.634   5.727  0.3836  0.0449 -0.0894
   47MOL   C37530827   2.567   5.771   5.676 -0.1759  0.2653 -0.0871
   47MOL   H37630828   2.913   4.769   6.010  0.9134 -1.5499  0.1771
   47MOL   H37730829   2.971   4.856   6.148  0.5530  2.4748 -0.8509
   47MOL   H37830830   3.146   4.839   5.895  0.4665 -0.8942  1.2463
   47MOL   H37930831   2.955   4.943   5.826 -3.8593  2.1346  0.9992
   47MOL   H38030832   3.086   5.061   5.836  0.1909 -0.7742 -0.4026
   47MOL   H38130833   2.978   5.156   6.033  1.3736 -2.0898  0.3275
   47MOL   H38230834   2.855   5.029   6.050  0.6675 -0.8076 -1.5627
   47MOL   H38330835   2.777   5.103   5.822  1.6465 -0.2161 -1.4056
   47MOL   H38430836   2.885   5.243   5.827 -1.4149  1.5019  0.7268
   47MOL   H38530837   2.771   5.322   6.046 -0.3926 -1.1028  0.4981
   47MOL   H38630838   2.658   5.212   6.013 -0.5456 -0.6042 -0.5705
   47MOL   H38730839   2.759   5.429   5.825 -1.1769  1.3638 -1.1786
   47MOL   H38830840   2.617   5.326   5.785 -0.8785 -0.7712  0.5054
   47MOL   H38930841   2.619   5.531   6.011 -2.6864 -0.8281  2.3312
   47MOL   H39030842   2.491   5.415   5.974 -0.3657  0.2061 -1.7156
   47MOL   H39130843   2.427   5.551   5.802  0.1758 -0.9069 -1.5166
   47MOL   H39230844   2.495   5.672   5.896  2.3020  0.6722 -1.3041
   47MOL   H39330845   2.720   5.635   5.755  0.9311 -1.3914 -1.9717
   47MOL   H39430846   2.604   5.568   5.641 -2.5208 -0.2186  0.4507
   47MOL   H39530847   2.637   5.816   5.605  1.8827  0.6221  2.1076
   47MOL   H39630848   2.546   5.835   5.762 -0.0186  1.7064 -1.0848
   47MOL   H39730849   2.471   5.746   5.631  0.7378 -1.1529 -1.2784
   47MOL   C39830850   3.198   4.960   6.080 -0.1829 -0.2549  0.6199
   47MOL   C39930851   3.297   5.065   6.030 -0.8330  0.2806 -0.2929
   47MOL   C40030852   3.397   5.006   5.919 -0.0444  1.0909  0.0310
   47MOL   C40130853   3.485   4.889   5.967  0.5110 -0.1209  0.0963
   47MOL   C40230854   3.595   4.857   5.861  0.3745  0.0987 -0.2538
   47MOL   C40330855   3.688   4.754   5.925 -0.3923  0.1419  0.7041
   47MOL   C40430856   3.803   4.711   5.841 -0.3179 -0.2569  0.7388
   47MOL   C40530857   3.878   4.589   5.896  0.0783  0.2119  0.8032
   47MOL   C40630858   4.006   4.562   5.822 -0.2496  0.0915 -0.2075
   47MOL   C40730859   3.984   4.482   5.691 -0.0609 -0.2750 -0.0746
   47MOL   C40830860   4.092   4.479   5.593 -0.2166  0.7167  0.5042
   47MOL   H40930861   3.260   4.887   6.131  2.1328  0.9325 -0.3888
   47MOL   H41030862   3.140   5.008   6.159  0.4976 -0.3638  1.1898
   47MOL   H41130863   3.243   5.145   5.980 -0.1204  0.7468 -0.3187
   47MOL   H41230864   3.455   5.094   5.892  0.9998  0.6920  0.9479
   47MOL   H41330865   3.340   4.976   5.832  0.8460  0.8549 -0.4729
   47MOL   H41430866   3.526   4.915   6.064  0.3876 -0.0829  0.1387
   47MOL   H41530867   3.426   4.803   5.999  1.5557 -1.4295 -1.4057
   47MOL   H41630868   3.542   4.825   5.771  1.9616  1.3959 -1.7035
   47MOL   H41730869   3.650   4.947   5.832  0.5628  0.7950  2.1651
   47MOL   H41830870   3.623   4.669   5.947 -0.0789 -0.0835  0.7729
   47MOL   H41930871   3.722   4.790   6.022  1.2465 -1.2488  0.6684
   47MOL   H42030872   3.770   4.689   5.740  1.0671  0.3381  0.1449
   47MOL   H42130873   3.872   4.796   5.847  0.2531 -0.6226 -0.5604
   47MOL   H42230874   3.824   4.496   5.878 -0.3527  0.5835  0.1734
   47MOL   H42330875   3.898   4.605   6.002  1.6743 -4.4753  1.3252
   47MOL   H42430876   4.066   4.649   5.796 -1.0827  0.3167 -1.3945
   47MOL   H42530877   4.064   4.503   5.893 -0.4423 -1.3380 -1.2210
   47MOL   H42630878   3.899   4.527   5.638 -0.5172 -1.6333 -0.5054
   47MOL   H42730879   3.956   4.380   5.713  3.5508 -1.5261 -0.9514
   47MOL   H42830880   4.055   4.469   5.491  1.0240 -0.3696  0.1601
   47MOL   H42930881   4.137   4.382   5.612  1.3633  0.7461 -2.7364
   47MOL   H43030882   4.154   4.569   5.586  2.2968 -0.7729  2.9939
   47MOL   C43130883   3.373   5.124   6.154  0.2670  0.4042  0.0779
   47MOL   C43230884   3.301   5.240   6.225 -0.3280 -0.1759 -0.7347
   47MOL   C43330885   3.283   5.358   6.138  0.7669  0.7629  0.4111
   47MOL   C43430886   3.187   5.468   6.200  0.2240  0.5150  0.0606
   47MOL   C43530887   3.185   5.596   6.113  0.2016 -0.8740  0.5772
   47MOL   C43630888   3.069   5.686   6.142 -0.3311  0.5857  0.4781
   47MOL   C43730889   3.057   5.755   6.271 -0.3289 -0.5232  0.0203
   47MOL   C43830890   3.140   5.885   6.291  0.6297  0.5931  0.9107
   47MOL   C43930891   3.085   6.012   6.217 -0.2037 -0.3812 -0.3162
   47MOL   C44030892   3.180   6.134   6.226 -0.2142  0.8555  0.6502
   47MOL   C44130893   3.128   6.261   6.153 -0.4544 -0.1686 -0.7726
   47MOL   H44230894   3.469   5.154   6.114  0.5088 -1.3331 -0.7271
   47MOL   H44330895   3.399   5.048   6.227 -0.6376  0.0723  0.0663
   47MOL   H44430896   3.198   5.208   6.244  0.3639 -2.3716 -0.5307
   47MOL   H44530897   3.379   5.407   6.118  1.5100 -1.5397 -1.8569
   47MOL   H44630898   3.235   5.335   6.044  0.1236  2.0051  0.4239
   47MOL   H44730899   3.207   5.499   6.303 -1.6508  0.7903  0.3637
   47MOL   H44830900   3.086   5.427   6.204 -0.9126  3.1437 -0.4804
   47MOL   H44930901   3.182   5.580   6.005 -1.7126  2.7664  0.0033
   47MOL   H45030902   3.279   5.648   6.133 -0.2938  0.2369  0.0564
   47MOL   H45130903   2.972   5.644   6.116 -0.5263  0.5121  1.3123
   47MOL   H45230904   3.080   5.764   6.067 -0.8716  1.6598  1.4929
   47MOL   H45330905   3.074   5.690   6.357 -0.1857 -0.7868 -0.2071
   47MOL   H45430906   2.950   5.770   6.288 -0.9011 -1.8613 -2.0724
   47MOL   H45530907   3.138   5.908   6.398 -0.3453  1.4227  0.7179
   47MOL   H45630908   3.242   5.856   6.264  0.4461 -2.4464  3.2031
   47MOL   H45730909   2.991   6.047   6.260  0.8327  0.8031  1.0371
   47MOL   H45830910   3.067   5.994   6.111 -1.3596  0.3925 -0.2695
   47MOL   H45930911   3.283   6.107   6.204 -0.7687 -1.7119  1.0812
   47MOL   H46030912   3.190   6.166   6.329  1.2547  2.3305  0.0667
   47MOL   H46130913   3.191   6.346   6.176  1.2907 -1.8202  0.6870
   47MOL   H46230914   3.117   6.243   6.046 -0.4360 -1.3341 -0.5863
   47MOL   H46330915   3.028   6.289   6.187  0.3211  0.0768  1.3697
   47MOL   C46430916   3.366   5.291   6.364 -0.6205 -1.1188 -0.6398
   47MOL   C46530917   3.274   5.280   6.486  0.1468 -0.1478 -0.2046
   47MOL   C46630918   3.247   5.127   6.502 -0.1599  0.6797  0.5627
   47MOL   C46730919   3.158   5.094   6.629  0.5179  0.6902  0.0349
   47MOL   C46830920   3.132   4.944   6.641  0.0283  1.0223  0.5037
   47MOL   C46930921   3.031   4.916   6.754  0.6109 -0.0629 -0.0984
   47MOL   C47030922   2.970   4.778   6.737  0.3775  0.3135  0.1691
   47MOL   C47130923   2.833   4.763   6.806 -0.1861  0.7235  0.6433
   47MOL   C47230924   2.806   4.608   6.826 -0.3833  0.0817  0.1507
   47MOL   C47330925   2.655   4.573   6.849 -0.2727 -0.0403  0.2112
   47MOL   C47430926   2.620   4.421   6.863 -0.2067  0.4610  0.2990
   47MOL   H47530927   3.399   5.394   6.356 -0.2730 -1.3149 -1.7478
   47MOL   H47630928   3.460   5.238   6.376  0.3851  1.2683  2.7877
   47MOL   H47730929   3.181   5.324   6.452 -0.4027 -0.9856  0.1852
   47MOL   H47830930   3.334   5.062   6.512 -1.2326 -1.0821 -1.2107
   47MOL   H47930931   3.178   5.088   6.428  2.0002 -0.0041 -1.1405
   47MOL   H48030932   3.203   5.133   6.720  0.8295  0.5937 -0.0773
   47MOL   H48130933   3.058   5.140   6.630  0.0055 -0.4218  0.2637
   47MOL   H48230934   3.223   4.885   6.652  0.6354  1.9189  0.2555
   47MOL   H48330935   3.083   4.913   6.549 -0.7959  2.8925  0.3001
   47MOL   H48430936   3.071   4.921   6.855 -1.1990  0.8464  0.5837
   47MOL   H48530937   2.960   4.998   6.754 -0.1196 -0.6599  2.2919
   47MOL   H48630938   2.955   4.743   6.635 -3.3511 -2.0975  1.4654
   47MOL   H48730939   3.035   4.704   6.784 -0.8511 -0.3244  0.8623
   47MOL   H48830940   2.853   4.806   6.905 -0.0766  0.0705  0.9054
   47MOL   H48930941   2.752   4.810   6.751 -0.3174  0.9068  0.9869
   47MOL   H49030942   2.828   4.554   6.734  0.1579  0.3782  0.1082
   47MOL   H49130943   2.870   4.559   6.899  0.9906  0.3268 -0.8736
   47MOL   H49230944   2.618   4.622   6.939 -1.2261  1.6070 -1.0434
   47MOL   H49330945   2.594   4.604   6.764  1.7971 -0.2422 -1.3982
   47MOL   H49430946   2.611   4.368   6.769  2.8997  1.0324 -0.3673
   47MOL   H49530947   2.525   4.420   6.917 -0.3001 -1.1985  0.1071
   47MOL   H49630948   2.691   4.369   6.928 -1.6858  0.1590  1.7024
   47MOL   C49730949   3.310   5.358   6.612  0.2074 -0.4311 -0.3172
   47MOL   C49830950   3.426   5.293   6.691  0.7171  0.7374 -0.5222
   47MOL   C49930951   3.407   5.333   6.840 -0.1876 -0.0544 -0.3194
   47MOL   C50030952   3.516   5.284   6.932  0.1797  0.4646 -1.0626
   47MOL   C50130953   3.495   5.317   7.082  0.0780 -0.3265  0.8635
   47MOL   C50230954   3.612   5.294   7.177 -0.7339  1.2349 -0.1889
   47MOL   C50330955   3.648   5.144   7.184  0.2902  0.3165 -0.0207
   47MOL   C50430956   3.767   5.105   7.269  0.0694 -0.7091  0.4748
   47MOL   C50530957   3.786   4.951   7.273 -0.2098  0.5927  0.5798
   47MOL   C50630958   3.913   4.910   7.353  0.3058 -0.1253  0.2880
   47MOL   C50730959   3.930   4.757   7.346  1.1960 -0.2156 -1.1256
   47MOL   H50830960   3.335   5.461   6.586  0.0659  0.3188  2.3712
   47MOL   H50930961   3.219   5.368   6.671  0.0715 -1.9574 -0.2441
   47MOL   H51030962   3.422   5.185   6.685  2.0228  0.5901  0.9556
   47MOL   H51130963   3.309   5.301   6.875 -0.0268  0.8993  1.0629
   47MOL   H51230964   3.392   5.441   6.837 -1.0863  0.0053  3.8369
   47MOL   H51330965   3.612   5.329   6.907  0.8340 -1.3002 -1.8008
   47MOL   H51430966   3.530   5.177   6.916 -0.0564  0.1881  0.5705
   47MOL   H51530967   3.480   5.425   7.091 -0.1517 -0.1731 -1.0448
   47MOL   H51630968   3.405   5.266   7.115 -0.3055  0.7544  1.5287
   47MOL   H51730969   3.691   5.360   7.142  0.7221 -0.4552 -0.1595
   47MOL   H51830970   3.582   5.331   7.275 -1.3274  2.9112 -0.9810
   47MOL   H51930971   3.561   5.085   7.211  0.8326 -0.0959  0.8596
   47MOL   H52030972   3.672   5.106   7.085 -1.2913 -1.6172  0.3107
   47MOL   H52130973   3.741   5.154   7.363 -0.0687 -0.7877  0.4799
   47MOL   H52230974   3.856   5.151   7.227  1.7738 -4.2463  0.0316
   47MOL   H52330975   3.782   4.896   7.179 -0.3089  0.3031  0.7527
   47MOL   H52430976   3.706   4.904   7.331 -0.3301  2.1404  1.6984
   47MOL   H52530977   3.897   4.943   7.456  2.3336 -2.0204  1.2607
   47MOL   H52630978   3.998   4.966   7.313 -0.5260  1.0898  0.1956
   47MOL   H52730979   4.000   4.726   7.424 -0.5501  1.0381  1.0146
   47MOL   H52830980   3.955   4.720   7.247  0.0357 -1.0929 -1.1088
   47MOL   H52930981   3.834   4.717   7.377  1.4950 -1.0058 -1.2026
   47MOL   C53030982   3.566   5.341   6.640 -0.3669  0.1711 -0.4769
   47MOL   C53130983   3.687   5.238   6.635  0.2837 -0.0981 -0.8062
   47MOL   C53230984   3.814   5.322   6.609 -0.3345 -0.0978  0.3256
   47MOL   C53330985   3.865   5.375   6.742 -0.6664 -0.4902 -0.0468
   47MOL   C53430986   4.005   5.425   6.727 -0.2277  0.0030  0.0937
   47MOL   C53530987   4.108   5.318   6.690 -0.2859 -0.2666  0.5130
   47MOL   C53630988   4.253   5.354   6.730 -0.0655  0.3098 -0.1631
   47MOL   C53730989   4.358   5.245   6.688 -0.4678  0.7081 -0.3417
   47MOL   C53830990   4.498   5.292   6.711 -0.4515  0.3019 -0.2872
   47MOL   C53930991   4.610   5.182   6.687 -0.0048  0.0320 -0.8495
   47MOL   C54030992   4.745   5.228   6.743 -0.0365 -0.7059 -0.5250
   47MOL   H54130993   3.553   5.372   6.537 -0.4509  1.9082  0.0353
   47MOL   H54230994   3.600   5.437   6.680  1.5373 -1.2672  1.4780
   47MOL   H54330995   3.705   5.192   6.732  0.9887 -0.1578 -0.9625
   47MOL   H54430996   3.798   5.409   6.545  4.0789  0.2485 -0.4902
   47MOL   H54530997   3.894   5.282   6.546 -0.8002 -0.2024 -0.2015
   47MOL   H54630998   3.871   5.304   6.824  1.1615  1.1277  1.2741
   47MOL   H54730999   3.810   5.460   6.783 -0.1570 -0.9164  1.5524
   47MOL   H54831000   4.027   5.475   6.822 -0.2819  0.0784  0.0669
   47MOL   H54931001   4.019   5.504   6.653 -0.0689  0.6810  0.8252
   47MOL   H55031002   4.103   5.303   6.583  0.6958  2.2452  0.0705
   47MOL   H55131003   4.074   5.228   6.740 -0.1899 -0.7546 -0.3018
   47MOL   H55231004   4.258   5.377   6.836  0.1355  1.1535 -0.3565
   47MOL   H55331005   4.274   5.453   6.690 -0.9277  0.0946 -1.1815
   47MOL   H55431006   4.346   5.226   6.581  0.8810  0.4306 -0.4528
   47MOL   H55531007   4.335   5.155   6.745  0.2020 -0.9019 -2.5312
   47MOL   H55631008   4.505   5.318   6.817  2.2256  0.3561 -0.4383
   47MOL   H55731009   4.503   5.379   6.645 -2.1462 -1.2525 -2.5158
   47MOL   H55831010   4.622   5.165   6.580  0.1399 -0.8901 -0.6874
   47MOL   H55931011   4.590   5.083   6.727 -0.0677 -0.3945 -1.9315
   47MOL   H56031012   4.744   5.257   6.848 -2.0150 -0.1158 -0.6907
   47MOL   H56131013   4.814   5.144   6.734  0.6802 -0.3101  1.1273
   47MOL   H56231014   4.783   5.317   6.693  0.5901 -1.7862 -2.0173
   47MOL   C56331015   3.682   5.121   6.540 -0.1006  0.2027  0.3462
   47MOL   C56431016   3.796   5.012   6.567 -0.1987 -0.9107  0.3173
   47MOL   C56531017   3.835   4.919   6.451 -0.1310  0.4721 -0.1496
   47MOL   C56631018   3.910   4.989   6.332  0.2085  0.5384  0.4986
   47MOL   C56731019   4.044   5.057   6.380 -0.1009  0.0289 -0.0065
   47MOL   C56831020   4.130   5.114   6.265  0.6447  0.0864 -0.6467
   47MOL   C56931021   4.052   5.214   6.180 -0.6334 -0.0747  0.2305
   47MOL   C57031022   3.987   5.325   6.269 -0.3277 -0.4593  0.1778
   47MOL   C57131023   3.940   5.444   6.175 -1.0338  1.0948  0.1130
   47MOL   C57231024   3.854   5.396   6.055 -0.7683 -0.1543  0.7176
   47MOL   C57331025   3.730   5.315   6.090 -0.3627 -0.4299 -0.4776
   47MOL   H57431026   3.703   5.159   6.440  0.2444  1.3053  0.8346
   47MOL   H57531027   3.580   5.083   6.536  0.8356 -2.6627  2.2128
   47MOL   H57631028   3.880   5.065   6.611 -2.3795  1.3093  1.9585
   47MOL   H57731029   3.746   4.866   6.417  0.4753  0.0110 -1.0319
   47MOL   H57831030   3.893   4.836   6.490 -0.5531 -0.0705 -0.6601
   47MOL   H57931031   3.838   5.063   6.299 -2.4749 -1.2095  2.2053
   47MOL   H58031032   3.924   4.912   6.255  1.3824  1.2671 -0.0327
   47MOL   H58131033   4.101   4.985   6.438 -2.0579 -1.6230 -0.0627
   47MOL   H58231034   4.025   5.139   6.449 -1.5317  0.8731 -1.3516
   47MOL   H58331035   4.217   5.160   6.312 -0.6028 -0.0005  1.8759
   47MOL   H58431036   4.157   5.032   6.200  0.6060 -0.3520 -0.1143
   47MOL   H58531037   4.124   5.259   6.113  0.3536 -0.9989  0.6483
   47MOL   H58631038   3.995   5.148   6.115  0.3638  0.6287 -1.3781
   47MOL   H58731039   4.065   5.366   6.333 -1.7564  0.7344  1.1730
   47MOL   H58831040   3.902   5.287   6.326 -1.0872  0.6619 -0.2053
   47MOL   H58931041   4.021   5.502   6.131 -0.4327  0.7621  0.7682
   47MOL   H59031042   3.879   5.512   6.235  0.4729  2.0446  0.5953
   47MOL   H59131043   3.915   5.352   5.976 -1.8295 -1.4961  0.6330
   47MOL   H59231044   3.823   5.489   6.008  0.4968 -0.0929 -0.0258
   47MOL   H59331045   3.748   5.224   6.148  0.1182 -0.3039 -0.4250
   47MOL   H59431046   3.668   5.376   6.156 -0.5989 -2.5956  1.3760
   47MOL   H59531047   3.677   5.299   5.997 -0.0989  0.8018 -0.8498
   47MOL   C59631048   3.758   4.924   6.689 -0.4006 -0.7868 -0.3859
   47MOL   C59731049   3.877   4.864   6.771  0.0654  0.4055 -0.3619
   47MOL   C59831050   3.835   4.730   6.849  1.0291  0.0849  0.2308
   47MOL   C59931051   3.791   4.617   6.753  0.4906  0.4528 -0.8012
   47MOL   C60031052   3.756   4.490   6.834 -0.5927 -0.0301 -0.7124
   47MOL   C60131053   3.866   4.380   6.851  0.6369 -0.4156 -0.1733
   47MOL   C60231054   3.812   4.241   6.901 -0.2610  0.3383  0.7772
   47MOL   C60331055   3.920   4.143   6.953 -0.2033  0.0815 -0.8365
   47MOL   C60431056   3.850   4.014   6.994  0.6460  0.5425  0.4711
   47MOL   C60531057   3.944   3.892   7.017  0.2994 -0.1845  0.4188
   47MOL   C60631058   3.886   3.778   7.097 -0.3191 -0.3329  0.0758
   47MOL   H60731059   3.682   4.969   6.753  1.1329  0.4098  0.6305
   47MOL   H60831060   3.701   4.841   6.647 -2.0560 -0.4686  1.1785
   47MOL   H60931061   3.962   4.848   6.705  1.6527 -0.5904  1.8820
   47MOL   H61031062   3.755   4.753   6.918 -0.6765  2.3728 -2.4034
   47MOL   H61131063   3.916   4.706   6.917  0.3947 -0.2918  0.8484
   47MOL   H61231064   3.868   4.605   6.676 -1.8992  0.0808 -3.2022
   47MOL   H61331065   3.704   4.650   6.697 -1.0386 -0.2073  1.1297
   47MOL   H61431066   3.671   4.451   6.777 -0.2940 -1.4994 -0.1662
   47MOL   H61531067   3.706   4.515   6.928  1.8521  1.3828  0.2534
   47MOL   H61631068   3.923   4.376   6.758  3.9298 -0.0705  1.7346
   47MOL   H61731069   3.939   4.423   6.920  0.5646  0.4708 -0.6345
   47MOL   H61831070   3.752   4.197   6.821  0.6979 -0.9523  0.7470
   47MOL   H61931071   3.748   4.255   6.987 -2.1360 -2.6459 -0.0639
   47MOL   H62031072   3.976   4.179   7.039 -2.1618  0.2086  0.4297
   47MOL   H62131073   3.980   4.107   6.869 -0.0487 -0.1307 -0.6363
   47MOL   H62231074   3.800   4.040   7.088  1.7834  1.2200  0.9047
   47MOL   H62331075   3.769   3.988   6.927  1.2587  0.5774 -0.2938
   47MOL   H62431076   4.035   3.932   7.061  0.2934  1.8378 -1.2981
   47MOL   H62531077   3.986   3.856   6.923  1.5149  2.3027 -0.0164
   47MOL   H62631078   3.832   3.813   7.185 -0.2708 -1.6842  0.6522
   47MOL   H62731079   3.814   3.728   7.033  0.3805 -0.1145 -0.8845
   47MOL   H62831080   3.951   3.700   7.137  0.4075 -1.0305 -2.3738
   47MOL   C62931081   3.927   4.966   6.876 -0.0394 -0.3837  0.0230
   47MOL   C63031082   4.060   4.940   6.943 -0.6376 -0.0941  0.7006
   47MOL   C63131083   4.112   5.056   7.029 -0.0313 -0.0275  0.0974
   47MOL   C63231084   4.258   5.032   7.073  0.0058 -0.7362 -0.2488
   47MOL   C63331085   4.332   5.160   7.114  0.3760 -0.1628  0.6344
   47MOL   C63431086   4.482   5.140   7.131  0.2033  0.2584 -0.3076
   47MOL   C63531087   4.548   5.280   7.141  0.4578 -0.1595  0.1152
   47MOL   C63631088   4.688   5.285   7.198  0.4382  0.4008 -0.0068
   47MOL   C63731089   4.702   5.242   7.349 -0.1434  0.5907 -0.4531
   47MOL   C63831090   4.608   5.304   7.460 -0.2245  0.3467 -0.5079
   47MOL   C63931091   4.650   5.264   7.601 -0.0208  0.1550  0.3696
   47MOL   H64031092   3.944   5.048   6.807  1.4677 -0.7212 -0.0419
   47MOL   H64131093   3.847   5.003   6.940 -0.0543  0.8811 -0.7092
   47MOL   H64231094   4.069   4.839   6.982  1.8837 -1.2453 -2.6253
   47MOL   H64331095   4.117   5.146   6.968 -1.0760 -0.6055 -0.8582
   47MOL   H64431096   4.041   5.077   7.108 -2.4631 -0.4191 -1.9259
   47MOL   H64531097   4.308   4.998   6.982  0.3527 -0.7237 -0.0671
   47MOL   H64631098   4.258   4.958   7.153  0.0770 -0.7617 -0.2711
   47MOL   H64731099   4.286   5.218   7.194 -1.8923  0.2165 -0.8935
   47MOL   H64831100   4.319   5.236   7.037  3.1250 -0.0023  0.2683
   47MOL   H64931101   4.518   5.082   7.046 -0.0569 -1.0066  0.4358
   47MOL   H65031102   4.507   5.078   7.217 -1.4944 -0.4190 -0.2723
   47MOL   H65131103   4.490   5.343   7.209  0.9445  1.7658 -1.1885
   47MOL   H65231104   4.538   5.331   7.045 -3.3108  1.1140  1.0781
   47MOL   H65331105   4.713   5.391   7.199  3.3968 -0.2707 -0.1113
   47MOL   H65431106   4.753   5.225   7.135  1.9079  2.7084 -0.7242
   47MOL   H65531107   4.799   5.276   7.385  0.0359  2.3231 -2.5040
   47MOL   H65631108   4.687   5.134   7.356  0.0334  0.6305  0.5960
   47MOL   H65731109   4.507   5.262   7.458  0.1204 -0.4829 -0.4637
   47MOL   H65831110   4.589   5.411   7.458 -0.2621  0.3718  0.6384
   47MOL   H65931111   4.580   5.306   7.673  0.0795  0.3060  0.3795
   47MOL   H66031112   4.748   5.302   7.629  0.2368 -1.1469  1.3029
   47MOL   H66131113   4.651   5.155   7.606  0.9566  0.1751  0.8596
   47MOL   H66231114   4.131   4.942   6.860  0.4093  1.1587  1.6061
   48MOL     C131115   1.423   6.858   7.477 -0.1997  0.0328 -0.4483
   48MOL     C231116   1.396   7.001   7.541  0.8349 -0.2118 -0.2638
   48MOL     C331117   1.249   7.042   7.535  0.2662 -0.5392 -0.3725
   48MOL     C431118   1.172   7.044   7.403 -0.1619  0.0417 -0.0457
   48MOL     C531119   1.022   7.086   7.433  0.7411 -0.0742  0.2858
   48MOL     C631120   1.003   7.236   7.468 -0.3681  0.1567  0.0845
   48MOL     C731121   0.863   7.289   7.486  0.2166  0.4021 -0.0947
   48MOL     C831122   0.855   7.439   7.477  0.3681 -0.3878  0.5155
   48MOL     C931123   0.711   7.483   7.481  0.4936 -0.3722  0.1648
   48MOL    C1031124   0.605   7.419   7.388  0.8060  0.0018  0.3655
   48MOL    C1131125   0.641   7.464   7.250  0.1898  0.2279 -0.2025
   48MOL    H1231126   1.389   6.869   7.374 -0.1214 -1.6867 -0.6594
   48MOL    H1331127   1.372   6.779   7.532  2.8602 -2.5917 -1.2759
   48MOL    H1431128   1.451   7.073   7.481 -1.3253  0.5015 -1.4438
   48MOL    H1531129   1.242   7.131   7.596  2.6402 -0.3049 -0.3997
   48MOL    H1631130   1.195   6.969   7.594 -0.3363 -0.6637 -1.0677
   48MOL    H1731131   1.173   6.947   7.354 -1.3524 -0.9591  1.8142
   48MOL    H1831132   1.220   7.111   7.332 -1.4216  2.4819  1.3409
   48MOL    H1931133   0.979   7.068   7.335  1.1639  0.0878  0.0689
   48MOL    H2031134   0.969   7.023   7.505 -0.2765 -0.9843 -1.2192
   48MOL    H2131135   1.060   7.291   7.393  1.8384  1.2328  2.4260
   48MOL    H2231136   1.057   7.257   7.561  0.9527 -0.6248 -0.4938
   48MOL    H2331137   0.804   7.254   7.401  0.9449  0.0297 -0.4405
   48MOL    H2431138   0.817   7.255   7.579  1.0169 -0.2489  0.0594
   48MOL    H2531139   0.909   7.475   7.389  1.0136  0.2740  1.1763
   48MOL    H2631140   0.906   7.492   7.557 -1.1987  0.7885  0.7625
   48MOL    H2731141   0.687   7.589   7.488  2.3399  0.0717 -0.0449
   48MOL    H2831142   0.667   7.449   7.574 -2.6042  1.5908 -0.5141
   48MOL    H2931143   0.500   7.442   7.409  1.1242  0.8994  0.9833
   48MOL    H3031144   0.608   7.310   7.398 -1.2745 -0.0411  0.9032
   48MOL    H3131145   0.633   7.569   7.224 -0.6890  0.2809  0.2827
   48MOL    H3231146   0.743   7.433   7.226  0.3856  0.4891  0.2920
   48MOL    H3331147   0.572   7.404   7.190  1.5693  0.1395 -1.7300
   48MOL    H3431148   1.528   6.832   7.484  0.2372  1.6100 -0.9219
   48MOL    C3531149   1.456   7.015   7.689  0.7626 -0.1954  0.2086
   48MOL    C3631150   1.612   7.004   7.702  0.5065 -0.4306 -0.2443
   48MOL    C3731151   1.696   7.129   7.692 -0.1083 -0.4883 -0.0532
   48MOL    C3831152   1.689   7.205   7.555  0.9240 -0.0736 -0.9925
   48MOL    C3931153   1.804   7.298   7.531  0.4201 -0.8209  0.0750
   48MOL    C4031154   1.834   7.328   7.387  0.6537 -0.2622  0.7767
   48MOL    C4131155   1.919   7.224   7.309 -0.3584  0.2281  0.2098
   48MOL    C4231156   2.061   7.199   7.354 -0.3560  0.2631  0.1596
   48MOL    C4331157   2.151   7.149   7.231  0.1869  0.6062 -0.6424
   48MOL    C4431158   2.272   7.072   7.274 -0.1742  0.0441 -0.2733
   48MOL    C4531159   2.390   7.085   7.174  0.7959 -0.1122 -0.4626
   48MOL    H4631160   1.403   6.932   0.031 -1.8645  0.8866 -0.7693
   48MOL    H4731161   1.413   7.102   0.036 -0.7759  0.0081 -1.3793
   48MOL    H4831162   1.639   6.934   7.623 -0.6250 -0.7749 -0.3401
   48MOL    H4931163   1.677   7.205   0.064 -0.9973  0.5148 -1.2663
   48MOL    H5031164   1.801   7.102   7.696 -0.0715 -0.4487 -0.6697
   48MOL    H5131165   1.593   7.257   7.555  0.6391 -0.5748  0.3698
   48MOL    H5231166   1.707   7.134   7.475  2.3999 -1.6406  0.6877
   48MOL    H5331167   1.897   7.256   7.569 -0.3292 -2.3778  0.2185
   48MOL    H5431168   1.779   7.397   7.569 -1.7945 -1.0735 -0.6317
   48MOL    H5531169   1.901   7.412   7.371 -0.2469 -0.4520 -4.7906
   48MOL    H5631170   1.739   7.345   7.335 -0.2049 -1.9977  1.7357
   48MOL    H5731171   1.864   7.130   7.304  3.3581 -2.0643 -0.1090
   48MOL    H5831172   1.932   7.253   7.205  0.3573  1.5273  0.6415
   48MOL    H5931173   2.053   7.124   7.433  2.2050  0.0707  0.2475
   48MOL    H6031174   2.101   7.286   7.405  0.5514  0.0964 -0.2719
   48MOL    H6131175   2.181   7.239   7.177  1.5814  0.1590 -0.6483
   48MOL    H6231176   2.102   7.090   7.154 -0.4404  0.7194 -0.3297
   48MOL    H6331177   2.288   7.110   7.375  1.4242  0.0866 -0.5303
   48MOL    H6431178   2.250   6.967   7.290  2.0445 -0.6410 -1.5775
   48MOL    H6531179   2.405   7.186   7.135  0.6340  0.2173  0.3167
   48MOL    H6631180   2.486   7.046   7.205 -0.1359 -2.3073 -0.2571
   48MOL    H6731181   2.357   7.013   7.099 -0.2189  1.8066 -1.9426
   48MOL    C6831182   1.653   6.927   0.125 -0.4926  0.1623 -0.4555
   48MOL    C6931183   1.784   6.845   0.116  0.2431  0.4018 -0.1033
   48MOL    C7031184   1.847   6.816   0.250  0.2443  0.3866  1.1333
   48MOL    C7131185   1.902   6.930   0.331  0.8175  0.4752  0.0995
   48MOL    C7231186   2.010   7.004   0.247  0.7768 -0.1603  0.1683
   48MOL    C7331187   2.139   6.925   0.216 -0.3312  0.3357 -0.7655
   48MOL    C7431188   2.248   7.017   0.148 -0.5098 -0.1864 -0.1575
   48MOL    C7531189   2.365   6.945   0.082  0.3019 -0.0757  0.2142
   48MOL    C7631190   2.319   6.885   7.649  0.2651 -0.8228  0.4846
   48MOL    C7731191   2.412   6.772   7.591 -0.4653 -0.3119 -0.9266
   48MOL    C7831192   2.334   6.690   7.487  0.6783  0.3242 -0.4286
   48MOL    H7931193   1.573   6.860   0.158  1.9184 -1.7660  1.7017
   48MOL    H8031194   1.662   7.000   0.205  1.0802 -0.2275 -0.2602
   48MOL    H8131195   1.854   6.904   0.058  0.9122  0.1729  0.4572
   48MOL    H8231196   1.916   6.732   0.237 -1.6619 -1.0139 -0.2047
   48MOL    H8331197   1.765   6.775   0.310  0.2284 -2.2858 -0.6178
   48MOL    H8431198   1.832   7.004   0.372  2.7920  1.0687  2.4819
   48MOL    H8531199   1.951   6.879   0.413  0.2694  0.0415  0.1583
   48MOL    H8631200   2.039   7.083   0.317  0.8660 -0.3774  0.3772
   48MOL    H8731201   1.976   7.053   0.156 -0.0083 -0.0593  0.5018
   48MOL    H8831202   2.178   6.898   0.314 -0.6486  4.3024  0.5640
   48MOL    H8931203   2.111   6.837   0.159 -4.0595  0.5646  0.5802
   48MOL    H9031204   2.279   7.091   0.222 -0.4194 -0.4193  0.0382
   48MOL    H9131205   2.191   7.068   0.070  1.8756  1.5193 -0.8557
   48MOL    H9231206   2.440   7.023   0.069  1.3420 -1.5647 -3.2493
   48MOL    H9331207   2.405   6.874   0.154  0.9860  0.3545  0.2593
   48MOL    H9431208   2.224   6.840   7.678 -1.4509  2.7120  0.5700
   48MOL    H9531209   2.294   6.960   7.574 -0.0533 -2.0222 -0.6556
   48MOL    H9631210   2.499   6.820   7.545 -0.2085 -0.0672 -0.2011
   48MOL    H9731211   2.451   6.717   7.677  3.0628  0.7909 -1.7078
   48MOL    H9831212   2.251   6.637   7.535 -0.0761  0.5067 -1.4970
   48MOL    H9931213   2.400   6.610   7.454  1.5013  0.7047  0.2952
   48MOL   H10031214   2.290   6.753   7.409  1.4126  0.2744 -0.8858
   48MOL   C10131215   1.753   6.709   0.051 -0.7727 -0.4310 -0.2434
   48MOL   C10231216   1.870   6.644   7.677  0.1619 -0.0408 -0.6633
   48MOL   C10331217   1.867   6.682   7.527 -0.2482 -0.1399 -0.3144
   48MOL   C10431218   1.764   6.610   7.441  0.0967 -0.2967  0.6616
   48MOL   C10531219   1.728   6.667   7.303 -0.2656  0.1490  0.5086
   48MOL   C10631220   1.612   6.580   7.240  0.0479  0.2988 -0.0614
   48MOL   C10731221   1.536   6.638   7.124  0.1058  0.0030  0.7482
   48MOL   C10831222   1.412   6.558   7.104  0.3862  0.4602 -0.0842
   48MOL   C10931223   1.326   6.617   6.989 -0.0330 -0.1288 -0.4567
   48MOL   C11031224   1.199   6.540   6.959 -0.4275  0.2898 -0.1193
   48MOL   C11131225   1.212   6.387   6.947 -0.4184  0.2273 -0.4753
   48MOL   H11231226   1.699   6.652   0.126 -2.8539  0.9001 -0.6625
   48MOL   H11331227   1.667   6.707   7.688 -1.1178 -0.5762  0.2032
   48MOL   H11431228   1.972   6.663   0.005 -0.2464 -0.4844  0.9588
   48MOL   H11531229   1.850   6.790   7.528 -1.2687 -0.2679 -2.3757
   48MOL   H11631230   1.968   6.675   7.485  0.1740 -1.9102  0.9374
   48MOL   H11731231   1.796   6.506   7.429  1.9116  0.3527 -0.2256
   48MOL   H11831232   1.666   6.611   7.490 -0.2249  2.4306  0.0128
   48MOL   H11931233   1.705   6.772   7.315  0.9149  0.1624  2.7522
   48MOL   H12031234   1.814   6.658   7.236  0.5116  0.8770  1.4065
   48MOL   H12131235   1.647   6.481   7.210  0.1702  0.2768  0.1476
   48MOL   H12231236   1.547   6.573   7.327  1.2372  0.3013  0.8426
   48MOL   H12331237   1.612   6.625   7.047  0.7806 -1.3446  1.6327
   48MOL   H12431238   1.524   6.745   7.143 -0.8014  0.4198 -1.8428
   48MOL   H12531239   1.435   6.454   7.082  0.7399 -0.4435  4.2041
   48MOL   H12631240   1.371   6.541   7.203  0.9397  2.3804  0.4898
   48MOL   H12731241   1.295   6.711   7.035 -0.0881  0.2748 -1.3225
   48MOL   H12831242   1.380   6.637   6.897  0.0224  1.6326 -0.0589
   48MOL   H12931243   1.143   6.585   6.876 -1.0973 -0.0611  0.1396
   48MOL   H13031244   1.136   6.562   7.045 -1.2459 -0.2228 -0.5705
   48MOL   H13131245   1.115   6.337   6.947 -0.8023  0.8397  2.6638
   48MOL   H13231246   1.266   6.353   6.859  2.1993  1.2418  0.6681
   48MOL   H13331247   1.277   6.343   7.023  1.6859 -0.3921 -2.5658
   48MOL   C13431248   1.857   6.493   7.687 -0.3129  0.5243 -0.4615
   48MOL   C13531249   1.918   6.437   0.118  0.2379 -0.6710  0.5315
   48MOL   C13631250   2.074   6.428   0.092  0.0939 -0.2707 -0.6071
   48MOL   C13731251   2.160   6.402   0.219  0.6575  0.1643  0.0754
   48MOL   C13831252   2.307   6.365   0.190  0.0641 -0.5558 -0.1380
   48MOL   C13931253   2.395   6.348   0.322  0.4529 -0.5573 -0.7224
   48MOL   C14031254   2.546   6.322   0.300 -0.0690  0.3770  0.5706
   48MOL   C14131255   2.624   6.414   0.207 -0.2930 -0.8876  0.1488
   48MOL   C14231256   2.637   6.568   0.241 -0.0542 -0.2215 -0.5663
   48MOL   C14331257   2.713   6.653   0.140  0.5414 -0.7873  0.2775
   48MOL   C14431258   2.733   6.802   0.176  0.9429  0.0644 -0.4723
   48MOL   H14531259   1.755   6.458   7.673 -0.2505 -0.2041  0.8111
   48MOL   H14631260   1.916   6.440   7.612  0.5762 -0.1865  0.7267
   48MOL   H14731261   1.907   6.506   0.202 -3.6674  1.3700 -1.5244
   48MOL   H14831262   2.102   6.514   0.032  2.0320 -0.8246 -0.5218
   48MOL   H14931263   2.088   6.335   0.036  0.0235 -1.9406  2.0515
   48MOL   H15031264   2.164   6.498   0.271  0.8102 -0.8699  2.0187
   48MOL   H15131265   2.107   6.336   0.289 -0.8303  0.3538 -0.8411
   48MOL   H15231266   2.314   6.273   0.133  1.4774 -1.4622  1.4616
   48MOL   H15331267   2.343   6.445   0.125 -3.3919  2.5723  1.5724
   48MOL   H15431268   2.373   6.414   0.406  2.4077 -2.1322  1.0725
   48MOL   H15531269   2.358   6.265   0.381 -0.8546  1.4074  1.3231
   48MOL   H15631270   2.597   6.299   0.393  1.1508  1.2423  0.1334
   48MOL   H15731271   2.539   6.227   0.246  2.3386  0.1593  0.5758
   48MOL   H15831272   2.728   6.387   0.187 -0.6876 -0.8646 -2.1054
   48MOL   H15931273   2.574   6.396   0.112 -2.6519 -1.3654  1.4534
   48MOL   H16031274   2.535   6.602   0.261 -0.0307 -0.0790 -0.6982
   48MOL   H16131275   2.684   6.571   0.339 -0.4976  2.6973 -0.4076
   48MOL   H16231276   2.811   6.605   0.147  0.4903 -1.4281 -2.5535
   48MOL   H16331277   2.689   6.632   0.035  0.5468 -0.7893  0.2767
   48MOL   H16431278   2.640   6.857   0.165  1.3554  0.3732 -2.6180
   48MOL   H16531279   2.797   6.864   0.113  0.8001  2.5630  1.7734
   48MOL   H16631280   2.777   6.815   0.274  0.7115  1.5297 -0.5524
   48MOL   C16731281   1.848   6.305   0.161  0.2277  0.1844 -0.0247
   48MOL   C16831282   1.701   6.315   0.204 -0.2225  0.4287  0.8727
   48MOL   C16931283   1.680   6.262   0.347  0.1851 -0.5416 -0.6738
   48MOL   C17031284   1.762   6.340   0.458  0.9814  0.4511  0.3200
   48MOL   C17131285   1.684   6.469   0.507 -0.0902  0.4166 -0.0445
   48MOL   C17231286   1.778   6.556   0.603  0.8113 -0.3303  0.4960
   48MOL   C17331287   1.706   6.690   0.644  0.2800  0.5316  0.0746
   48MOL   C17431288   1.796   6.799   0.698 -0.0802 -0.2584  0.6433
   48MOL   C17531289   1.730   6.879   0.816 -0.5376 -0.0602 -0.1252
   48MOL   C17631290   1.803   7.004   0.869  0.5309 -0.0127 -0.4379
   48MOL   C17731291   1.712   7.073   0.968  0.2460 -0.2675 -0.4548
   48MOL   H17831292   1.857   6.232   0.081 -1.5437 -0.8873  0.7108
   48MOL   H17931293   1.907   6.256   0.239 -0.2519 -0.6957 -0.2064
   48MOL   H18031294   1.674   6.420   0.209  2.0047  1.0929 -0.5585
   48MOL   H18131295   1.712   6.158   0.350  0.6043 -0.4296 -1.3412
   48MOL   H18231296   1.578   6.261   0.387  0.6239 -0.5931  0.4603
   48MOL   H18331297   1.776   6.271   0.541  0.2966 -3.5389 -2.7291
   48MOL   H18431298   1.858   6.376   0.424  0.3883 -0.4841 -2.5403
   48MOL   H18531299   1.597   6.434   0.563  0.6783  0.6807  1.3403
   48MOL   H18631300   1.648   6.537   0.430 -1.1322 -0.0765  0.0021
   48MOL   H18731301   1.812   6.498   0.689 -0.3452 -1.0037  0.5191
   48MOL   H18831302   1.856   6.590   0.536  0.5449 -2.5603 -1.0269
   48MOL   H18931303   1.612   6.668   0.694 -0.5170  1.1176 -1.1309
   48MOL   H19031304   1.672   6.739   0.553  1.3401  1.0327 -0.0699
   48MOL   H19131305   1.889   6.757   0.738 -0.7725 -1.5941  0.8687
   48MOL   H19231306   1.828   6.868   0.620 -0.6620 -0.7173 -0.0083
   48MOL   H19331307   1.713   6.816   0.904  0.5589 -0.2317 -0.0298
   48MOL   H19431308   1.631   6.902   0.777 -0.9094  2.2499  2.0656
   48MOL   H19531309   1.833   7.068   0.786  2.6644  1.6042  1.4969
   48MOL   H19631310   1.900   6.977   0.911 -0.0361  0.4567  1.1808
   48MOL   H19731311   1.703   7.016   1.060 -0.9037 -0.8065 -0.8960
   48MOL   H19831312   1.617   7.103   0.923  1.4368  0.7537 -2.3582
   48MOL   H19931313   1.753   7.171   0.992 -1.6562  1.1712 -2.8198
   48MOL   C20031314   1.607   6.237   0.107 -0.2831  0.6545  0.1094
   48MOL   C20131315   1.462   6.275   0.127  0.0909 -0.3210 -0.4534
   48MOL   C20231316   1.369   6.159   0.070 -0.2612 -0.1963 -0.1143
   48MOL   C20331317   1.222   6.184   0.071  0.3164 -0.2484  0.3854
   48MOL   C20431318   1.140   6.062   0.014  0.2571  0.0066 -0.1260
   48MOL   C20531319   0.990   6.088   0.028 -0.3771 -0.3758 -0.2739
   48MOL   C20631320   0.906   5.957   7.693 -0.1544 -0.4519  0.2569
   48MOL   C20731321   0.886   5.847   0.097 -0.3666  0.1378  0.0321
   48MOL   C20831322   0.871   5.708   0.034 -0.5601  1.0253 -0.5366
   48MOL   C20931323   0.995   5.612   0.035  0.3648  0.4518 -0.8089
   48MOL   C21031324   0.980   5.487   7.652 -0.0444 -0.1460 -0.4170
   48MOL   H21131325   1.635   6.262   0.004 -0.2682  1.0004  0.1991
   48MOL   H21231326   1.630   6.131   0.124 -2.5043  0.0812 -0.2265
   48MOL   H21331327   1.440   6.284   0.233 -2.3116  0.8378 -1.0064
   48MOL   H21431328   1.380   6.066   0.127  0.3484  1.3778  2.4005
   48MOL   H21531329   1.406   6.136   7.673  0.9334  1.8607 -0.1689
   48MOL   H21631330   1.193   6.267   0.006  1.5686  0.1510  0.3208
   48MOL   H21731331   1.188   6.213   0.170 -1.3529  0.5111 -0.4069
   48MOL   H21831332   1.167   5.969   0.064  1.1504  0.0455 -0.5362
   48MOL   H21931333   1.169   6.053   7.613  0.1827  1.3497 -0.2729
   48MOL   H22031334   0.957   6.124   0.126 -2.3058  0.0304 -1.0371
   48MOL   H22131335   0.967   6.167   7.660  0.3288 -0.6500 -0.8069
   48MOL   H22231336   0.947   5.917   7.600 -0.7701 -4.0652  1.4494
   48MOL   H22331337   0.809   5.991   7.656  0.2483 -1.9372 -2.3035
   48MOL   H22431338   0.801   5.868   0.162  0.6084 -1.7111  1.9690
   48MOL   H22531339   0.972   5.839   0.164 -0.3339  0.8908  0.0858
   48MOL   H22631340   0.845   5.726   7.634  0.6318 -1.1248 -1.2500
   48MOL   H22731341   0.782   5.665   0.082  0.0378 -0.3317 -0.6281
   48MOL   H22831342   1.079   5.672   0.001  2.7470 -1.8736  0.7493
   48MOL   H22931343   1.014   5.590   0.140 -1.0707 -1.1068 -0.8665
   48MOL   H23031344   0.906   5.422   7.698  0.0358  1.2540  1.7479
   48MOL   H23131345   1.078   5.440   7.644 -0.9179 -1.8282 -1.5160
   48MOL   H23231346   0.966   5.500   7.544  0.8319  0.0972 -0.5064
   48MOL   C23331347   1.432   6.404   0.046  0.9025 -0.1990 -0.7380
   48MOL   C23431348   1.336   6.492   0.121 -0.4649  0.3368 -0.2902
   48MOL   C23531349   1.271   6.592   0.016 -0.6228  0.5534 -0.2802
   48MOL   C23631350   1.155   6.532   7.629  0.2294 -0.6153 -0.1309
   48MOL   C23731351   1.110   6.628   7.506  0.7530  0.3599  0.0211
   48MOL   C23831352   0.983   6.582   7.448  0.3337 -0.2277 -0.0831
   48MOL   C23931353   0.932   6.666   7.325  0.6963  0.2069  0.2382
   48MOL   C24031354   0.811   6.616   7.249 -0.4517 -0.0361  0.1593
   48MOL   C24131355   0.766   6.690   7.120  0.2025 -0.3019 -0.1037
   48MOL   C24231356   0.728   6.832   7.158 -0.2762 -0.1918  0.6873
   48MOL   C24331357   0.659   6.901   7.038 -0.2245  0.5017  0.1314
   48MOL   H24431358   1.388   6.385   7.651 -0.4769 -0.2869 -0.1066
   48MOL   H24531359   1.523   6.465   0.039  1.1835 -0.3583  1.4004
   48MOL   H24631360   1.250   6.437   0.160  1.1083 -1.4309  0.7589
   48MOL   H24731361   1.224   6.674   0.072  0.1520  1.0555 -0.3638
   48MOL   H24831362   1.351   6.651   7.675 -1.1793  2.0497  0.6692
   48MOL   H24931363   1.072   6.513   7.698 -0.3187  2.0912  0.0384
   48MOL   H25031364   1.184   6.436   7.588 -0.2329  0.2440 -2.5611
   48MOL   H25131365   1.184   6.632   7.426 -0.1322 -0.9275 -0.8849
   48MOL   H25231366   1.097   6.730   7.543 -1.7253  0.4093 -0.9470
   48MOL   H25331367   0.907   6.577   7.527  0.6537 -1.4282  0.1694
   48MOL   H25431368   0.995   6.476   7.424  1.5360  0.0612 -0.7346
   48MOL   H25531369   0.934   6.768   7.362 -1.1385 -0.2021  1.5801
   48MOL   H25631370   1.020   6.648   7.263 -0.1724 -0.4564 -0.8508
   48MOL   H25731371   0.820   6.508   7.234  0.3798  0.0486  0.0185
   48MOL   H25831372   0.735   6.619   7.328 -0.2714  0.8095  0.2984
   48MOL   H25931373   0.836   6.686   7.037  1.4272 -1.1845  0.9485
   48MOL   H26031374   0.672   6.644   7.089 -0.3407 -0.1095  1.1881
   48MOL   H26131375   0.824   6.879   7.178 -0.7783  1.0058  0.3842
   48MOL   H26231376   0.659   6.850   7.241 -1.1534  2.1848 -0.4836
   48MOL   H26331377   0.722   6.889   6.949 -1.3726  0.5049 -0.7002
   48MOL   H26431378   0.642   7.007   7.052  3.8662  1.1517  0.7874
   48MOL   H26531379   0.562   6.855   7.017  0.9187 -1.2946 -1.4234
   48MOL   C26631380   1.400   6.560   0.245 -0.7654 -0.7578  0.1346
   48MOL   C26731381   1.302   6.594   0.359 -0.1144 -0.8108  0.0619
   48MOL   C26831382   1.328   6.721   0.445  0.1552 -0.2881 -0.1405
   48MOL   C26931383   1.338   6.857   0.373  0.5860 -0.5405 -0.1669
   48MOL   C27031384   1.336   6.982   0.469 -0.2858  0.6131  0.1059
   48MOL   C27131385   1.379   7.101   0.386  0.2144 -0.1157 -0.3313
   48MOL   C27231386   1.418   7.218   0.477 -0.1591 -0.0959  0.2198
   48MOL   C27331387   1.575   7.216   0.506 -0.4954  0.1413  0.4150
   48MOL   C27431388   1.619   7.329   0.597 -0.0564 -0.1007  0.5205
   48MOL   C27531389   1.778   7.326   0.625  0.3315  0.0816  0.3941
   48MOL   C27631390   1.816   7.453   0.701 -0.4758  0.3091 -0.5207
   48MOL   H27731391   1.454   6.649   0.213 -0.6879 -1.5539 -2.0193
   48MOL   H27831392   1.473   6.498   0.297 -0.5627 -1.4356 -0.9637
   48MOL   H27931393   1.205   6.606   0.311  0.1268 -2.0850 -0.7647
   48MOL   H28031394   1.251   6.731   0.522 -1.3715 -0.5044 -1.6220
   48MOL   H28131395   1.423   6.695   0.491  0.6645  1.4518 -0.1678
   48MOL   H28231396   1.275   6.867   0.285 -0.3266  0.7884  0.6218
   48MOL   H28331397   1.439   6.848   0.333  0.6771  0.0121 -0.0797
   48MOL   H28431398   1.413   6.970   0.545 -0.0367 -0.3636 -0.3021
   48MOL   H28531399   1.238   6.994   0.516 -0.5785 -1.4281  0.0518
   48MOL   H28631400   1.302   7.138   0.318  2.8916  0.4659 -3.1868
   48MOL   H28731401   1.465   7.077   0.323  1.1553  0.0545  0.8796
   48MOL   H28831402   1.397   7.313   0.426  1.8105  1.1136  1.6083
   48MOL   H28931403   1.358   7.223   0.568  0.6388  2.1833  0.6596
   48MOL   H29031404   1.615   7.224   0.405  1.3899 -2.1793  0.9270
   48MOL   H29131405   1.602   7.119   0.550  2.3633  0.4393 -0.5742
   48MOL   H29231406   1.583   7.422   0.552  1.0760 -0.1101 -0.4434
   48MOL   H29331407   1.562   7.321   0.689  1.1949  0.0034  1.3157
   48MOL   H29431408   1.821   7.335   0.526  0.2708 -1.8197  0.1691
   48MOL   H29531409   1.823   7.234   0.664 -1.7415 -1.0916  0.1408
   48MOL   H29631410   1.766   7.451   0.798  2.2306 -1.7580  0.9486
   48MOL   H29731411   1.797   7.544   0.644  0.1093  0.3386 -0.6795
   48MOL   H29831412   1.923   7.449   0.722 -0.6059  0.1425  0.1260
   48MOL   C29931413   1.277   6.474   0.444 -0.2014 -0.2724 -0.0085
   48MOL   C30031414   1.131   6.466   0.499 -0.0168  0.4245 -0.5523
   48MOL   C30131415   1.137   6.361   0.623 -0.0498 -0.6322 -0.5837
   48MOL   C30231416   1.020   6.364   0.730  0.4302  0.2841  0.6895
   48MOL   C30331417   1.065   6.292   0.854 -0.2354  1.4517 -0.6736
   48MOL   C30431418   0.956   6.285   0.964 -0.1412  0.1782 -0.0567
   48MOL   C30531419   0.970   6.168   1.063  0.5319  0.1620  0.2359
   48MOL   C30631420   0.922   6.035   0.997 -0.2812  0.2350 -0.1337
   48MOL   C30731421   0.774   6.023   1.003  0.4728  0.3841 -0.3484
   48MOL   C30831422   0.734   6.001   1.151 -0.6135 -0.0890  0.0529
   48MOL   C30931423   0.586   5.962   1.164 -0.2909  0.4593 -0.0404
   48MOL   H31031424   1.339   6.477   0.533 -1.3149  1.0810  0.7470
   48MOL   H31131425   1.291   6.380   0.391  0.4698 -1.2470  1.8836
   48MOL   H31231426   1.093   6.561   0.535 -0.8659  0.7072 -2.1320
   48MOL   H31331427   1.159   6.260   0.587 -1.1174 -1.6655  1.5533
   48MOL   H31431428   1.226   6.386   0.680 -0.2040  0.1854 -0.7001
   48MOL   H31531429   0.993   6.467   0.752 -1.6657 -0.1383  0.2113
   48MOL   H31631430   0.931   6.329   0.678 -0.9171  0.1715  3.0352
   48MOL   H31731431   1.098   6.197   0.813  2.3674  2.1794 -0.3520
   48MOL   H31831432   1.154   6.336   0.899 -0.5406  0.5751  0.8331
   48MOL   H31931433   0.855   6.294   0.924 -0.6487  1.4238  1.4369
   48MOL   H32031434   0.963   6.376   1.024 -0.3127  0.7578 -0.9092
   48MOL   H32131435   1.076   6.155   1.088  0.2692 -1.3928  0.5841
   48MOL   H32231436   0.918   6.186   1.157 -1.1046 -1.1173 -0.3900
   48MOL   H32331437   0.964   5.943   1.039  0.3514  0.8310  0.5573
   48MOL   H32431438   0.956   6.031   0.893  3.2079 -0.4523  0.9582
   48MOL   H32531439   0.755   5.936   0.940  2.8441 -0.5551  0.1910
   48MOL   H32631440   0.724   6.105   0.951 -0.0551  0.4164  0.2018
   48MOL   H32731441   0.762   6.083   1.217 -0.2629 -0.7479  0.7242
   48MOL   H32831442   0.791   5.921   1.199  0.2916  0.8609  0.5942
   48MOL   H32931443   0.562   5.873   1.105 -1.1970  1.1074 -0.6544
   48MOL   H33031444   0.565   5.936   1.268  3.0358 -0.5773  0.4515
   48MOL   H33131445   0.528   6.046   1.127 -0.1857  0.7411  0.4293
   48MOL   C33231446   1.036   6.410   0.394  0.1209 -0.4440 -0.4313
   48MOL   C33331447   0.882   6.409   0.420  0.7708 -0.6741 -0.2077
   48MOL   C33431448   0.809   6.346   0.300  0.1553  0.0302  0.3632
   48MOL   C33531449   0.712   6.230   0.335 -0.0754  0.1876 -0.6192
   48MOL   C33631450   0.629   6.178   0.213 -0.5384  0.3492  0.0628
   48MOL   C33731451   0.591   6.284   0.114 -0.0710  0.3435  0.2793
   48MOL   C33831452   0.689   6.295   7.702  0.6932 -0.1238  0.3414
   48MOL   C33931453   0.648   6.392   7.587 -0.2641  0.5921  0.1233
   48MOL   C34031454   0.514   6.360   7.521  0.4814  0.0929  0.4469
   48MOL   C34131455   0.502   6.417   7.378 -0.0422  0.0557  0.4606
   48MOL   C34231456   0.383   6.346   7.306 -0.1327 -0.7852  0.3713
   48MOL   H34331457   1.060   6.473   0.308  0.2121  0.5288  0.2912
   48MOL   H34431458   1.071   6.311   0.365 -1.0406 -1.0412  0.1387
   48MOL   H34531459   0.854   6.339   0.498 -0.0670  0.5303  0.5947
   48MOL   H34631460   0.882   6.306   0.229 -0.2316 -1.6231  0.8781
   48MOL   H34731461   0.777   6.423   0.229  0.5994 -0.3438 -0.2507
   48MOL   H34831462   0.764   6.142   0.372  1.8871  0.9162 -1.5976
   48MOL   H34931463   0.654   6.258   0.423  1.5538 -0.7472  0.7605
   48MOL   H35031464   0.683   6.093   0.172  0.6321  0.5522  1.1447
   48MOL   H35131465   0.534   6.151   0.259 -1.6620  2.1747 -1.1387
   48MOL   H35231466   0.580   6.381   0.162 -0.2626  0.4589 -0.0001
   48MOL   H35331467   0.490   6.264   0.079  0.8022 -3.1231 -0.4391
   48MOL   H35431468   0.708   6.192   7.671  1.7293 -0.1847  1.1340
   48MOL   H35531469   0.784   6.325   0.042  1.8327 -4.3961  1.0663
   48MOL   H35631470   0.643   6.496   7.618  0.6861  0.5889  0.3067
   48MOL   H35731471   0.737   6.382   7.524 -0.3127  1.0159 -0.0106
   48MOL   H35831472   0.437   6.396   7.590  0.1352 -0.8116  0.5490
   48MOL   H35931473   0.501   6.252   7.515 -1.0448  0.3329 -1.1007
   48MOL   H36031474   0.590   6.383   7.324 -0.0951 -0.7400  0.8557
   48MOL   H36131475   0.492   6.525   7.371  0.1716  0.0084 -0.6905
   48MOL   H36231476   0.410   6.244   7.279  0.7550  0.0599 -2.1098
   48MOL   H36331477   0.297   6.339   7.373  1.5070  1.5483  2.8061
   48MOL   H36431478   0.358   6.398   7.213 -0.4712  2.3856  2.1389
   48MOL   C36531479   0.827   6.545   0.448  0.1528 -0.4073 -0.7085
   48MOL   C36631480   0.678   6.568   0.479 -0.4374 -0.1521 -0.2595
   48MOL   C36731481   0.638   6.497   0.615 -0.5557  0.3129 -0.3394
   48MOL   C36831482   0.693   6.555   0.743 -0.5346 -0.5476 -0.5052
   48MOL   C36931483   0.622   6.509   0.875  0.4300 -0.0461  0.9308
   48MOL   C37031484   0.697   6.575   1.002 -0.2833 -0.1023 -0.3614
   48MOL   C37131485   0.633   6.533   1.138 -0.9002  0.0387  0.1295
   48MOL   C37231486   0.669   6.386   1.182 -0.2699 -0.1063 -0.9517
   48MOL   C37331487   0.587   6.344   1.308  0.0424 -0.4475  0.2411
   48MOL   C37431488   0.660   6.345   1.437  0.2577  0.1822 -0.1784
   48MOL   C37531489   0.571   6.303   1.548 -0.0421  0.4427  0.6028
   48MOL   H37631490   0.880   6.593   0.530 -0.6032 -0.4328 -0.2046
   48MOL   H37731491   0.854   6.603   0.359 -1.0151  1.9176  0.3944
   48MOL   H37831492   0.628   6.524   0.392 -1.1729 -2.2722  1.1951
   48MOL   H37931493   0.670   6.395   0.597 -2.8990 -0.4992 -0.1531
   48MOL   H38031494   0.530   6.499   0.631 -0.4980 -0.3809  0.1428
   48MOL   H38131495   0.687   6.664   0.751  0.2372 -0.5114 -0.4456
   48MOL   H38231496   0.802   6.555   0.742 -0.5191  0.5889  0.3916
   48MOL   H38331497   0.637   6.402   0.880  0.8728 -0.0489 -0.2666
   48MOL   H38431498   0.515   6.527   0.870  0.5289  0.0518 -1.1477
   48MOL   H38531499   0.696   6.684   1.004 -1.2532 -0.0984 -0.7373
   48MOL   H38631500   0.805   6.560   0.988 -0.2404  0.1594 -0.3076
   48MOL   H38731501   0.667   6.611   1.207 -0.2746  0.5993 -0.8069
   48MOL   H38831502   0.525   6.525   1.132 -0.9728  1.1028 -0.0714
   48MOL   H38931503   0.776   6.371   1.198 -0.1415 -1.8182 -3.1638
   48MOL   H39031504   0.651   6.313   1.103 -1.5935 -1.3088  0.4220
   48MOL   H39131505   0.501   6.408   1.328  1.2151  1.0967  0.5462
   48MOL   H39231506   0.550   6.247   1.276  1.1490 -1.0595  0.7594
   48MOL   H39331507   0.744   6.276   1.442 -0.2119 -0.2216  3.3279
   48MOL   H39431508   0.700   6.444   1.462 -2.2741  0.9332  0.9945
   48MOL   H39531509   0.491   6.376   1.540 -0.8878 -0.4511  0.8403
   48MOL   H39631510   0.619   6.296   1.645 -0.0605 -0.3645  0.5611
   48MOL   H39731511   0.519   6.209   1.528 -1.3240  0.8114  2.1362
   48MOL   C39831512   0.641   6.719   0.479 -1.1752 -0.1619 -0.4299
   48MOL   C39931513   0.491   6.768   0.470  0.0016  0.0334 -0.4364
   48MOL   C40031514   0.432   6.704   0.337 -0.7027 -0.1783 -0.3175
   48MOL   C40131515   0.487   6.736   0.200  0.2331 -0.5917  0.2887
   48MOL   C40231516   0.429   6.661   0.079 -0.2397 -0.3583 -0.1866
   48MOL   C40331517   0.321   6.730   0.004  0.5440  0.0960  1.3321
   48MOL   C40431518   0.289   6.668   7.567 -0.1151 -0.2988 -0.0971
   48MOL   C40531519   0.167   6.732   7.487  0.3276  0.2014 -0.0909
   48MOL   C40631520   0.153   6.675   7.350  0.2672 -0.4151  0.2160
   48MOL   C40731521   0.044   6.754   7.275 -0.8885  0.5676 -0.2119
   48MOL   C40831522   7.606   6.725   7.309 -0.4517 -0.2157  0.0678
   48MOL   H40931523   0.687   6.759   0.389  1.8450  1.2842  1.7010
   48MOL   H41031524   0.684   6.771   0.564 -0.3800 -2.2087  0.4440
   48MOL   H41131525   0.429   6.730   0.551  0.7485  0.5333  0.3806
   48MOL   H41231526   0.325   6.718   0.323 -0.4881  1.1724 -0.6624
   48MOL   H41331527   0.435   6.597   0.355  1.8980 -0.1619 -0.4656
   48MOL   H41431528   0.503   6.842   0.180  1.2205 -0.5322  1.3525
   48MOL   H41531529   0.589   6.697   0.208  1.4116  1.6033 -2.8588
   48MOL   H41631530   0.513   6.646   0.011  0.0095  2.2685 -0.4822
   48MOL   H41731531   0.387   6.561   0.092 -3.9110  1.0887 -0.6111
   48MOL   H41831532   0.361   6.826   7.676  0.2254  0.1461  1.0775
   48MOL   H41931533   0.226   6.754   0.051  0.3373  1.4459  0.2472
   48MOL   H42031534   0.380   6.680   7.508  0.1028  0.8946  0.4747
   48MOL   H42131535   0.283   6.560   7.581  0.5798 -0.0909  1.9753
   48MOL   H42231536   0.171   6.841   7.498  1.0735  0.0046  1.8030
   48MOL   H42331537   0.071   6.713   7.535 -0.6410  0.2792 -1.9688
   48MOL   H42431538   0.247   6.688   7.296 -1.3945  0.7122 -2.4954
   48MOL   H42531539   0.120   6.572   7.363 -3.0043  0.5882  0.2545
   48MOL   H42631540   0.060   6.720   7.172 -1.2789 -2.6148  0.7284
   48MOL   H42731541   0.058   6.862   7.269  0.3768  0.4219 -0.1864
   48MOL   H42831542   7.600   6.711   7.417 -1.9172 -0.5232 -0.0392
   48MOL   H42931543   7.555   6.643   7.258 -1.1364  1.0894 -1.3943
   48MOL   H43031544   7.551   6.815   7.281 -2.2531 -1.5305 -0.7360
   48MOL   C43131545   0.479   6.918   0.482 -0.0415  0.3639  0.2777
   48MOL   C43231546   0.475   6.980   0.625 -0.1847  0.4619 -0.5296
   48MOL   C43331547   0.334   6.987   0.680  0.4937  0.2288  0.1815
   48MOL   C43431548   0.319   6.956   0.828 -0.2655 -0.9626  0.7069
   48MOL   C43531549   0.174   6.952   0.872  0.5169  0.2032 -0.3522
   48MOL   C43631550   0.159   6.875   1.001  0.2568  1.1226 -0.4179
   48MOL   C43731551   0.196   6.724   1.003  0.3500 -0.3041  0.3103
   48MOL   C43831552   0.150   6.639   1.124 -0.6312 -0.3516 -0.1512
   48MOL   C43931553   0.203   6.710   1.254  0.4823  0.1835  0.7717
   48MOL   C44031554   0.169   6.628   1.380 -0.1163 -0.4233 -0.2675
   48MOL   C44131555   0.275   6.526   1.421  0.1165 -0.8337 -0.2205
   48MOL   H44231556   0.390   6.951   0.429 -1.1255  0.0567  1.8985
   48MOL   H44331557   0.560   6.972   0.431 -1.3050  1.8191 -0.2386
   48MOL   H44431558   0.534   6.913   0.688  1.7950  0.9523 -1.8375
   48MOL   H44531559   0.284   7.082   0.659 -0.2449 -0.5904 -1.9216
   48MOL   H44631560   0.273   6.913   0.629  0.8444  2.3272 -3.4939
   48MOL   H44731561   0.376   7.034   0.879  0.3854 -0.0720 -1.3393
   48MOL   H44831562   0.369   6.860   0.843 -0.4119 -0.6110  3.8330
   48MOL   H44931563   0.123   6.903   0.789  2.8802 -2.2275 -0.4402
   48MOL   H45031564   0.134   7.053   0.869  2.0894  0.8304 -1.7639
   48MOL   H45131565   0.053   6.888   1.024 -0.4341  0.5248 -3.0127
   48MOL   H45231566   0.211   6.917   1.086 -1.9429 -1.0125  2.0966
   48MOL   H45331567   0.304   6.714   1.013  0.0581 -0.5572  4.1162
   48MOL   H45431568   0.162   6.674   0.913  0.7396 -1.2586  0.6883
   48MOL   H45531569   0.041   6.636   1.136 -0.6060  2.0937  1.0248
   48MOL   H45631570   0.193   6.539   1.125 -0.2557 -0.1956 -0.5166
   48MOL   H45731571   0.159   6.810   1.258  0.7844  0.3425  0.1437
   48MOL   H45831572   0.307   6.740   1.257  0.9710 -1.5310  1.7702
   48MOL   H45931573   0.069   6.585   1.379 -0.7805  1.1349 -0.7755
   48MOL   H46031574   0.166   6.687   1.471 -1.7843 -1.4596  0.3705
   48MOL   H46131575   0.375   6.568   1.432 -1.1137  2.0289  0.4822
   48MOL   H46231576   0.248   6.480   1.516 -0.8006  0.7552  0.3047
   48MOL   H46331577   0.292   6.445   1.350  2.1361 -0.1295 -0.5978
   48MOL   C46431578   0.558   7.105   0.631  0.7302 -0.2612  0.5459
   48MOL   C46531579   0.602   7.163   0.771  0.0032  0.0867  0.4153
   48MOL   C46631580   0.685   7.054   0.849 -0.1740  0.0404 -1.2682
   48MOL   C46731581   0.730   7.105   0.982 -0.4480 -0.0357 -1.0437
   48MOL   C46831582   0.784   7.007   1.086 -0.2638  0.0342 -0.5731
   48MOL   C46931583   0.842   7.078   1.211 -0.9763 -0.0807 -0.0403
   48MOL   C47031584   0.863   6.988   1.327 -0.0746  0.3403  0.6522
   48MOL   C47131585   0.999   6.905   1.313  0.6095  0.2664  0.0720
   48MOL   C47231586   1.034   6.811   1.431  0.1132 -0.2872 -0.1774
   48MOL   C47331587   0.975   6.672   1.415 -0.2380  0.1395 -0.6899
   48MOL   C47431588   1.010   6.565   1.518 -0.2748  0.8246 -0.0712
   48MOL   H47531589   0.490   7.181   0.591 -0.4995 -2.1517 -1.0593
   48MOL   H47631590   0.651   7.089   0.578  1.0213  0.7384  0.7389
   48MOL   H47731591   0.505   7.190   0.812  0.3531  3.0870 -0.5943
   48MOL   H47831592   0.772   7.016   0.795  1.6006 -0.2739  1.6749
   48MOL   H47931593   0.632   6.961   0.865  0.0822  0.1768  0.5283
   48MOL   H48031594   0.822   7.157   0.955  0.4640 -1.0977 -0.0279
   48MOL   H48131595   0.662   7.176   1.029  0.3818  0.2142 -0.2188
   48MOL   H48231596   0.867   6.943   1.054 -0.1253 -0.2037  0.2519
   48MOL   H48331597   0.705   6.939   1.118  1.7869 -2.1273  0.0334
   48MOL   H48431598   0.919   7.151   1.187 -0.6429 -0.1387  0.8295
   48MOL   H48531599   0.757   7.132   1.253 -2.6918 -1.5665 -1.4907
   48MOL   H48631600   0.878   7.042   1.421 -0.2739  0.5646  0.5548
   48MOL   H48731601   0.779   6.921   1.342  0.8579 -1.1226 -0.5060
   48MOL   H48831602   0.992   6.847   1.220 -0.7041 -0.3747  0.5635
   48MOL   H48931603   1.080   6.977   1.299  0.9059 -0.4023 -1.8835
   48MOL   H49031604   1.143   6.803   1.433  0.1997  0.7747 -0.3835
   48MOL   H49131605   1.006   6.857   1.526  2.2167  0.8769 -0.0824
   48MOL   H49231606   0.866   6.683   1.415 -0.3204 -0.6325 -1.6096
   48MOL   H49331607   1.010   6.622   1.325 -0.1407 -1.1296  0.0373
   48MOL   H49431608   1.112   6.527   1.515 -0.7063 -0.5764  1.7607
   48MOL   H49531609   0.954   6.474   1.497  1.3393 -0.2087 -0.0188
   48MOL   H49631610   0.987   6.586   1.623 -0.2526  0.0931  0.0835
   48MOL   C49731611   0.685   7.296   0.740  0.1927  0.1436  0.6111
   48MOL   C49831612   0.629   7.424   0.803  0.6990  0.1870 -0.1429
   48MOL   C49931613   0.498   7.474   0.736  0.0678 -0.8899 -0.3679
   48MOL   C50031614   0.386   7.525   0.836  0.4502 -0.8021 -0.0840
   48MOL   C50131615   0.276   7.588   0.739  0.2554 -0.2821 -0.1359
   48MOL   C50231616   0.151   7.623   0.823  0.1325 -0.8960 -0.2865
   48MOL   C50331617   0.053   0.014   0.756 -0.3105  0.0466 -0.9650
   48MOL   C50431618   7.675   7.644   0.649  0.1840  1.6885 -0.1085
   48MOL   C50531619   7.583   0.028   0.573 -0.0324 -0.4923  0.4316
   48MOL   C50631620   7.508   7.648   0.462  0.3016  0.1316 -0.1558
   48MOL   C50731621   7.432   0.015   0.348  0.4631  0.1251  0.3546
   48MOL   H50831622   0.786   7.299   0.781  0.7610 -1.0450 -0.6612
   48MOL   H50931623   0.702   7.311   0.633  2.5809 -2.1621  0.6127
   48MOL   H51031624   0.603   7.402   0.907  1.0907 -0.0245 -0.0907
   48MOL   H51131625   0.451   7.395   0.678  2.1797 -1.2185 -1.6691
   48MOL   H51231626   0.528   7.544   0.658 -0.6903 -0.1718 -0.0270
   48MOL   H51331627   0.417   7.600   0.909  1.4332 -1.5376  0.2603
   48MOL   H51431628   0.351   7.437   0.889  2.5654 -2.5599 -1.4826
   48MOL   H51531629   0.304   7.669   0.672  1.1437 -0.7900 -0.3835
   48MOL   H51631630   0.242   7.515   0.666  0.9845 -0.4163 -0.3456
   48MOL   H51731631   0.098   7.540   0.868 -0.2978 -1.0830 -1.1255
   48MOL   H51831632   0.188   7.679   0.909 -0.8621  1.8019 -1.5588
   48MOL   H51931633   7.688   0.044   0.835 -0.1177  0.6172 -1.0125
   48MOL   H52031634   0.103   0.100   0.710  0.9162  1.7819  3.3843
   48MOL   H52131635   7.622   7.566   0.703 -0.5948  2.2018 -0.1388
   48MOL   H52231636   0.035   7.579   0.587  0.1207  0.1427  1.3881
   48MOL   H52331637   7.645   0.107   0.530 -2.1558 -0.2463 -2.3429
   48MOL   H52431638   7.514   0.077   0.642 -0.8891 -0.6124 -0.3350
   48MOL   H52531639   7.434   7.580   0.505  1.0607 -0.1051  0.7817
   48MOL   H52631640   7.583   7.588   0.410  0.1755 -0.5932  0.4881
   48MOL   H52731641   7.354   0.079   0.387 -0.5260 -0.4491 -0.6587
   48MOL   H52831642   7.382   7.649   0.281  1.8688 -0.8957  0.3177
   48MOL   H52931643   7.489   0.081   0.282  0.6304  1.6783  2.0107
   48MOL   C53031644   0.734   7.539   0.804 -0.3046 -0.2147 -0.4383
   48MOL   C53131645   0.829   7.531   0.930  0.2414 -0.0265  0.6919
   48MOL   C53231646   0.757   7.598   1.050  0.7416  0.1035  0.3233
   48MOL   C53331647   0.827   7.560   1.182  0.2883  0.3532 -0.1587
   48MOL   C53431648   0.765   7.614   1.311 -0.0661  0.4084  0.1343
   48MOL   C53531649   0.799   7.540   1.436 -0.4989 -0.4740  0.0539
   48MOL   C53631650   0.739   7.608   1.560 -0.0271 -0.4027 -0.1196
   48MOL   C53731651   0.824   0.021   1.612 -0.1604 -1.4428 -0.7335
   48MOL   C53831652   0.763   0.072   1.742  0.3095 -0.5324  0.2476
   48MOL   C53931653   0.820   0.207   1.789 -0.2084 -0.2477  0.1222
   48MOL   C54031654   0.969   0.203   1.832 -0.1424 -0.3239  0.3439
   48MOL   H54131655   0.800   7.551   0.717  0.8343  0.6023  0.5259
   48MOL   H54231656   0.682   7.634   0.816 -1.4227 -0.9657  0.7761
   48MOL   H54331657   0.855   7.426   0.945  0.8961  0.1999  1.1553
   48MOL   H54431658   0.657   7.555   1.042  0.3646  1.0860 -0.4351
   48MOL   H54531659   0.735   0.002   1.057  3.2073  0.6758 -0.1457
   48MOL   H54631660   0.928   7.598   1.170  0.0075  0.8403 -1.0219
   48MOL   H54731661   0.827   7.451   1.181 -0.8785  0.3231  0.7957
   48MOL   H54831662   0.662   7.588   1.286  0.2420 -0.2778 -0.4330
   48MOL   H54931663   0.770   0.019   1.319 -2.0991  0.6783 -1.7104
   48MOL   H55031664   0.906   7.520   1.438 -0.2480  0.4721 -2.0145
   48MOL   H55131665   0.755   7.441   1.426 -1.6209  0.1191 -1.0951
   48MOL   H55231666   0.735   7.529   1.636 -0.7661 -1.5961 -1.3881
   48MOL   H55331667   0.634   7.634   1.547  0.3313  1.7493  1.0645
   48MOL   H55431668   0.855   0.099   1.543  1.5155 -0.1722  1.4029
   48MOL   H55531669   0.920   7.676   1.634  0.1434 -0.3140  0.4266
   48MOL   H55631670   0.773   0.004   1.826 -1.1390 -1.1333 -0.0583
   48MOL   H55731671   0.657   0.092   1.727  0.1629 -0.8799  0.7883
   48MOL   H55831672   0.760   0.233   1.876  0.1985 -1.6737  0.8369
   48MOL   H55931673   0.811   0.292   1.721  2.6962  0.6210  0.7818
   48MOL   H56031674   0.962   0.144   1.923  0.2543  0.9533  1.2234
   48MOL   H56131675   1.033   0.150   1.761  0.4434 -0.5107  1.0067
   48MOL   H56231676   1.022   0.293   1.864  0.1686 -0.6332  0.6982
   48MOL   C56331677   0.964   7.614   0.907  0.0074 -0.1178 -0.7130
   48MOL   C56431678   1.055   7.547   0.800  0.1462  0.0393  0.1784
   48MOL   C56531679   1.152   7.459   0.880  0.0892  0.1392 -0.4156
   48MOL   C56631680   1.208   7.344   0.794  0.6399 -0.0700 -0.0106
   48MOL   C56731681   1.237   7.224   0.885 -0.4959 -0.1066 -0.5259
   48MOL   C56831682   1.297   7.100   0.819  0.3186 -0.1484  0.3788
   48MOL   C56931683   1.295   6.976   0.911  0.4032 -0.1805 -0.4494
   48MOL   C57031684   1.339   6.844   0.851  0.9314 -0.1774 -0.1433
   48MOL   C57131685   1.378   6.731   0.940 -0.2483  0.1344  0.2320
   48MOL   C57231686   1.254   6.669   1.016 -0.2322 -0.0487  0.2783
   48MOL   C57331687   1.287   6.553   1.105 -0.1762 -0.2180 -0.8375
   48MOL   H57431688   1.013   7.624   1.004  0.6343  0.6711 -1.1095
   48MOL   H57531689   0.928   0.007   0.871  2.1443  1.0433  0.1668
   48MOL   H57631690   0.999   7.479   0.736 -0.8554  0.8678  0.1592
   48MOL   H57731691   1.083   7.408   0.949 -0.9971  1.1438 -0.7384
   48MOL   H57831692   1.226   7.507   0.943 -0.7072  1.6846 -0.6237
   48MOL   H57931693   1.299   7.375   0.741  0.2511  2.4400  0.7430
   48MOL   H58031694   1.135   7.313   0.720 -0.7855  1.8641  0.5495
   48MOL   H58131695   1.152   7.205   0.952  0.2993  0.1002  0.5528
   48MOL   H58231696   1.307   7.263   0.958 -0.7923  0.4601 -0.5350
   48MOL   H58331697   1.223   7.068   0.746  0.3029 -2.3356  1.3164
   48MOL   H58431698   1.402   7.115   0.794  0.1582 -0.2575 -0.3642
   48MOL   H58531699   1.359   6.998   0.996 -0.9336 -2.6485  1.2639
   48MOL   H58631700   1.196   6.968   0.957 -0.1550  2.2771 -1.1231
   48MOL   H58731701   1.435   6.864   0.804  0.1661 -0.7960 -2.0439
   48MOL   H58831702   1.268   6.804   0.777 -2.1222  3.1733  0.8335
   48MOL   H58931703   1.449   6.769   1.013  0.3469 -0.7995  0.1485
   48MOL   H59031704   1.416   6.657   0.870  1.0678  2.2733 -1.3575
   48MOL   H59131705   1.186   6.634   0.939 -1.4909  1.8590  0.5082
   48MOL   H59231706   1.198   6.743   1.072 -0.7370 -2.4780  3.0861
   48MOL   H59331707   1.361   6.570   1.183 -0.4683 -0.2961 -0.5437
   48MOL   H59431708   1.198   6.517   1.155  0.7015 -0.7005  0.3988
   48MOL   H59531709   1.329   6.465   1.056 -0.1292 -0.7951  0.2274
   48MOL   C59631710   1.145   7.642   0.709 -0.6576  0.1225 -0.2454
   48MOL   C59731711   1.058   0.013   0.591  0.3066  0.2448 -0.5216
   48MOL   C59831712   1.008   7.623   0.490 -0.1332  0.4138 -0.6575
   48MOL   C59931713   1.123   7.577   0.392  0.3927 -0.4626  0.4123
   48MOL   C60031714   1.071   7.501   0.262  0.4611  0.2609  0.1639
   48MOL   C60131715   1.039   7.356   0.296  0.0815  0.5307 -0.2238
   48MOL   C60231716   1.003   7.262   0.180  0.2649 -0.3860  0.4575
   48MOL   C60331717   0.969   7.119   0.232 -0.2817  0.1909 -0.4383
   48MOL   C60431718   0.931   7.031   0.117  0.3238  0.3530  0.1679
   48MOL   C60531719   0.910   6.889   0.156 -0.0189  0.2474 -0.3008
   48MOL   C60631720   0.838   6.812   0.044  0.0179 -0.2331 -0.2861
   48MOL   H60731721   1.197   0.004   0.780 -0.9861  0.3148 -0.1806
   48MOL   H60831722   1.228   7.587   0.664 -0.3100  0.9103 -0.5803
   48MOL   H60931723   0.970   0.056   0.638 -0.2092  2.5135 -3.4054
   48MOL   H61031724   0.939   7.683   0.430 -2.3129 -0.3318  1.0398
   48MOL   H61131725   0.957   7.532   0.521 -0.5984  0.6876 -0.6046
   48MOL   H61231726   1.202   7.519   0.440 -0.5873 -2.5573 -0.4367
   48MOL   H61331727   1.170   7.659   0.339  0.7816 -2.2805 -2.1588
   48MOL   H61431728   1.142   7.506   0.180  0.4073 -1.9064 -0.0530
   48MOL   H61531729   0.990   7.569   0.236  2.1251  2.5574  0.8315
   48MOL   H61631730   1.123   7.307   0.347 -0.4279 -1.1210 -0.9556
   48MOL   H61731731   0.956   7.358   0.367  0.7774  2.4581  0.5810
   48MOL   H61831732   1.089   7.267   0.112 -0.4799  1.0786 -0.4174
   48MOL   H61931733   0.927   7.312   0.119  3.0309  1.9826 -1.1835
   48MOL   H62031734   0.896   7.126   0.313  0.1207 -0.7520  0.0109
   48MOL   H62131735   1.052   7.073   0.286 -0.7144  1.7362  1.5935
   48MOL   H62231736   0.829   7.064   0.099  0.5203  0.9394  0.1210
   48MOL   H62331737   1.003   7.051   0.037  0.1898  0.8672  0.1743
   48MOL   H62431738   0.864   6.895   0.255 -0.2786  0.8112 -0.4528
   48MOL   H62531739   1.001   6.830   0.168  0.1625 -0.0147 -2.7319
   48MOL   H62631740   0.740   6.854   0.020  0.6221 -0.0471 -2.5229
   48MOL   H62731741   0.902   6.799   7.660 -1.5103 -0.8151 -1.3486
   48MOL   H62831742   0.824   6.712   0.086 -0.0907 -0.4128 -0.7412
   48MOL   C62931743   1.130   0.141   0.545  0.0679  0.8440 -0.5473
   48MOL   C63031744   1.044   0.230   0.450 -0.2833  0.5720 -0.0852
   48MOL   C63131745   0.915   0.286   0.502 -0.2349  0.5783  0.6128
   48MOL   C63231746   0.857   0.402   0.420 -0.9258 -0.0551 -0.6175
   48MOL   C63331747   0.708   0.434   0.452  0.0105  0.3629 -0.0220
   48MOL   C63431748   0.650   0.540   0.353  0.3123  0.2380  0.2486
   48MOL   C63531749   0.509   0.598   0.380  0.8856  0.2112  0.6425
   48MOL   C63631750   0.441   0.667   0.263 -0.5390  0.3337  0.4158
   48MOL   C63731751   0.495   0.812   0.218  0.2541  0.2430 -0.4460
   48MOL   C63831752   0.454   0.862   0.081  0.3941  0.1163 -0.1408
   48MOL   C63931753   0.492   1.013   0.072  0.0561 -0.0053  0.1638
   48MOL   H64031754   1.160   0.204   0.628 -1.1986  0.5189  0.1715
   48MOL   H64131755   1.215   0.108   0.485 -1.0026 -1.2133 -0.9911
   48MOL   H64231756   1.109   0.307   0.407  2.1058 -1.7996 -0.8764
   48MOL   H64331757   0.845   0.204   0.491 -0.2873  0.9541 -2.2897
   48MOL   H64431758   0.925   0.305   0.609 -2.6489 -1.6416  1.2804
   48MOL   H64531759   0.863   0.370   0.316  1.5506  0.6643 -0.7478
   48MOL   H64631760   0.918   0.490   0.442  1.1558 -2.6363  4.9835
   48MOL   H64731761   0.681   0.460   0.554 -2.0112  0.3155 -0.5267
   48MOL   H64831762   0.652   0.341   0.444 -1.9181  1.5022 -0.2379
   48MOL   H64931763   0.647   0.489   0.257  0.4707  3.0306 -1.2952
   48MOL   H65031764   0.721   0.622   0.343 -0.4161  1.0786  1.7838
   48MOL   H65131765   0.520   0.657   0.471  0.2063  0.0907  0.8065
   48MOL   H65231766   0.440   0.520   0.413  0.0439  1.0986  1.0208
   48MOL   H65331767   0.333   0.673   0.268 -0.5765  1.6328 -1.4558
   48MOL   H65431768   0.443   0.607   0.172  0.9527  0.7818  0.1391
   48MOL   H65531769   0.604   0.819   0.222  0.2739  0.9652 -1.8020
   48MOL   H65631770   0.466   0.880   0.298  1.3527  0.0483  0.1412
   48MOL   H65731771   0.345   0.863   0.076  0.1965 -1.3241  2.5987
   48MOL   H65831772   0.494   0.799   0.002  0.1746 -1.5298  1.0359
   48MOL   H65931773   0.596   1.031   0.044  0.3608 -1.4203  0.3771
   48MOL   H66031774   0.479   1.082   0.155  0.5600  0.7574 -0.3755
   48MOL   H66131775   0.434   1.058   7.695  0.0407  2.1180  1.3298
   48MOL   H66231776   1.026   0.164   0.365  3.9069  0.6546 -1.1957
   49MOL     C131777   1.503   5.874   7.643 -0.3311 -0.4034 -0.3878
   49MOL     C231778   1.579   5.763   7.586 -0.2500  0.3640  0.0552
   49MOL     C331779   1.489   5.653   7.546 -0.5885 -0.0086  1.1994
   49MOL     C431780   1.461   5.552   7.650 -0.0641  0.0713 -0.2046
   49MOL     C531781   1.431   5.410   7.584  0.0457 -0.0687  0.4825
   49MOL     C631782   1.353   5.327   7.680 -0.2764 -0.4349 -0.0133
   49MOL     C731783   1.306   5.183   7.639 -0.3964 -0.2084  0.2333
   49MOL     C831784   1.210   5.132   0.041  0.2242 -0.8989  0.0953
   49MOL     C931785   1.255   5.133   0.187 -1.3866  0.0487  0.0161
   49MOL    C1031786   1.150   5.076   0.289  0.0641 -0.4763 -0.3035
   49MOL    C1131787   1.185   5.097   0.438 -0.1922 -0.1654  0.3217
   49MOL    H1231788   1.438   5.919   7.569 -1.8053 -1.4042  0.2753
   49MOL    H1331789   1.568   5.952   7.682 -0.7095  0.4254 -1.3768
   49MOL    H1431790   1.648   5.723   7.660 -0.4593  1.0347  0.6172
   49MOL    H1531791   1.521   5.584   7.468 -1.8160 -0.8370  1.4064
   49MOL    H1631792   1.399   5.689   7.496 -0.1011 -0.8513 -0.3295
   49MOL    H1731793   1.370   5.584   7.700  0.5595  2.2143 -0.4044
   49MOL    H1831794   1.543   5.543   0.019  0.5263 -1.7282 -1.0622
   49MOL    H1931795   1.365   5.427   7.499  2.0132 -1.1066 -1.3137
   49MOL    H2031796   1.517   5.358   7.542  0.4863 -0.0297  1.3244
   49MOL    H2131797   1.272   5.388   0.018  0.8316  2.9013 -2.5947
   49MOL    H2231798   1.412   5.311   0.067  2.5475  2.9624 -1.1879
   49MOL    H2331799   1.250   5.192   7.546 -1.1646  0.7433  0.7815
   49MOL    H2431800   1.386   5.111   7.621  0.4847  0.8265 -0.0742
   49MOL    H2531801   1.162   5.041   0.006  1.4603 -1.3094 -0.5586
   49MOL    H2631802   1.119   5.193   0.034  0.1760 -0.9274  0.4681
   49MOL    H2731803   1.260   5.236   0.223 -1.2147  0.1211 -0.2097
   49MOL    H2831804   1.354   5.088   0.187 -0.8674  1.1675  0.1779
   49MOL    H2931805   1.126   4.973   0.262 -1.9630 -0.1699  0.2599
   49MOL    H3031806   1.056   5.128   0.273  0.4458  0.6905  1.0751
   49MOL    H3131807   1.205   5.202   0.457 -2.9397  0.6089 -0.7423
   49MOL    H3231808   1.107   5.061   0.507  0.7027 -2.9495 -0.0346
   49MOL    H3331809   1.279   5.055   0.474 -1.6362 -1.2390  3.0252
   49MOL    H3431810   1.440   5.842   0.022 -2.8657  4.1688 -0.3541
   49MOL    C3531811   1.666   5.824   7.478 -0.4098  0.8281  0.9437
   49MOL    C3631812   1.770   5.925   7.523  0.7109 -0.2008 -0.3447
   49MOL    C3731813   1.878   5.853   7.600  0.0379  0.5410  0.2346
   49MOL    C3831814   1.979   5.951   7.671 -0.6228 -0.3818 -0.5721
   49MOL    C3931815   2.088   5.882   0.046  0.3463  0.6686  0.1285
   49MOL    C4031816   2.173   5.961   0.145 -0.5223  0.3236  0.0798
   49MOL    C4131817   2.258   5.865   0.227  0.2603 -0.4328  0.0720
   49MOL    C4231818   2.367   5.942   0.292 -0.2629 -0.3455 -0.9245
   49MOL    C4331819   2.468   5.863   0.375 -0.5668  0.3995  0.7846
   49MOL    C4431820   2.586   5.961   0.404  0.3626 -0.7008  0.3087
   49MOL    C4531821   2.681   5.900   0.513 -0.5156  0.0709 -0.2567
   49MOL    H4631822   1.606   5.865   7.397  0.6340 -0.4024 -0.4669
   49MOL    H4731823   1.719   5.739   7.436 -0.8759  1.1123 -0.2455
   49MOL    H4831824   1.721   6.004   7.580 -1.4142 -2.0849  0.5247
   49MOL    H4931825   1.825   5.795   7.676  1.6672  0.7434  1.5462
   49MOL    H5031826   1.938   5.781   7.544  0.6262  1.1079  0.1296
   49MOL    H5131827   1.927   6.005   0.047  2.1933  0.8548  0.5196
   49MOL    H5231828   2.013   6.027   7.601  0.0963 -2.0177 -2.0114
   49MOL    H5331829   2.149   5.834   7.672 -0.8473  1.1092 -1.0981
   49MOL    H5431830   2.034   5.816   0.114 -0.6810  2.5197  1.1307
   49MOL    H5531831   2.105   6.016   0.210 -0.8410  0.3775 -0.2959
   49MOL    H5631832   2.230   6.036   0.089 -0.9857  1.3418  0.9562
   49MOL    H5731833   2.203   5.798   0.294 -0.2936  0.1984  0.2564
   49MOL    H5831834   2.305   5.800   0.153 -0.7031 -1.2825  0.1856
   49MOL    H5931835   2.328   6.020   0.357  1.2145 -1.3689  1.2747
   49MOL    H6031836   2.418   5.992   0.210 -1.8075 -0.4029 -1.9153
   49MOL    H6131837   2.505   5.775   0.323  1.5191  3.1565 -2.5988
   49MOL    H6231838   2.427   5.830   0.471 -0.7703 -1.2163  0.1592
   49MOL    H6331839   2.633   5.978   0.308 -2.2654  1.2989 -0.7059
   49MOL    H6431840   2.554   6.056   0.448 -1.8659  0.4399 -3.5360
   49MOL    H6531841   2.768   5.964   0.531  0.4477 -0.8267 -1.5922
   49MOL    H6631842   2.624   5.910   0.605 -1.5016  1.0938 -0.9745
   49MOL    H6731843   2.712   5.796   0.503  2.0189  0.5545  1.8161
   49MOL    C6831844   1.833   6.002   7.401 -0.0051 -1.2059  0.4755
   49MOL    C6931845   1.739   6.095   7.322  0.4117 -0.3710  0.2551
   49MOL    C7031846   1.698   6.221   7.401  0.1505 -0.1066 -0.6408
   49MOL    C7131847   1.553   6.226   7.447  0.5067  0.2319 -0.3347
   49MOL    C7231848   1.448   6.241   7.333  0.2261 -0.1100 -0.3890
   49MOL    C7331849   1.307   6.198   7.381 -0.1914  0.5272 -0.7161
   49MOL    C7431850   1.210   6.241   7.277 -0.2541 -0.3168  0.5392
   49MOL    C7531851   1.065   6.192   7.310  0.3896  0.1303 -0.0777
   49MOL    C7631852   0.953   6.257   7.224 -0.0498 -0.4317  0.6840
   49MOL    C7731853   0.909   6.166   7.106  0.0916 -0.3722 -0.0965
   49MOL    C7831854   0.827   6.253   7.011  0.4460  0.5602  0.6071
   49MOL    H7931855   1.892   5.925   7.351 -1.2626 -2.1181  0.3755
   49MOL    H8031856   1.909   6.074   7.432 -0.2908 -1.6525  2.2962
   49MOL    H8131857   1.646   6.040   7.306  0.8332 -0.7090 -1.1693
   49MOL    H8231858   1.720   6.313   7.346  1.5956  0.5884  1.0655
   49MOL    H8331859   1.765   6.232   7.486 -1.3646  1.1926  0.4041
   49MOL    H8431860   1.530   6.139   7.508  2.0332  0.3749  0.4620
   49MOL    H8531861   1.541   6.305   7.521  0.1548 -1.3563  1.3416
   49MOL    H8631862   1.483   6.180   7.249  2.7008  0.8562 -0.1171
   49MOL    H8731863   1.455   6.345   7.300  2.8351 -0.1898 -0.2556
   49MOL    H8831864   1.294   6.090   7.373  1.4734  0.3535 -1.2672
   49MOL    H8931865   1.285   6.228   7.484 -0.3729  0.1782 -0.6534
   49MOL    H9031866   1.236   6.210   7.176 -1.0023  3.1611 -0.8140
   49MOL    H9131867   1.202   6.350   7.283 -2.3774 -0.5417  2.3485
   49MOL    H9231868   1.062   6.083   7.308  1.4724  0.0103  2.5904
   49MOL    H9331869   1.049   6.230   7.411  1.7671  0.9430 -0.1562
   49MOL    H9431870   0.868   6.277   7.288 -0.9411  1.2403 -1.0052
   49MOL    H9531871   0.993   6.353   7.191 -2.3933 -0.2157 -1.7026
   49MOL    H9631872   1.003   6.131   7.064  0.5459  0.6914  0.0009
   49MOL    H9731873   0.861   6.072   7.132 -0.3792 -0.3759 -0.9828
   49MOL    H9831874   0.723   6.239   7.040 -0.2711  1.8504 -1.2308
   49MOL    H9931875   0.841   6.215   6.910  0.9587  1.6497  0.2512
   49MOL   H10031876   0.856   6.358   7.013  0.8219  0.4595  0.4645
   49MOL   C10131877   1.800   6.129   7.186  0.0992  0.1456 -0.2243
   49MOL   C10231878   1.812   6.008   7.085  0.0269  0.3082 -0.6678
   49MOL   C10331879   1.918   6.014   6.971 -0.1653  0.4747 -0.2758
   49MOL   C10431880   2.063   5.996   7.019  0.7129  0.6330  0.6846
   49MOL   C10531881   2.161   5.989   6.906  0.2575 -0.0749 -0.4434
   49MOL   C10631882   2.307   5.958   6.952 -0.1302  0.2254 -0.5379
   49MOL   C10731883   2.404   5.942   6.844  0.3018  0.6165  0.3259
   49MOL   C10831884   2.531   5.887   6.898  0.5005  0.2238 -0.5983
   49MOL   C10931885   2.618   5.997   6.967  0.1766  0.0843 -0.2147
   49MOL   C11031886   2.757   5.961   7.017 -0.6249  0.5015 -0.1717
   49MOL   C11131887   2.760   5.849   7.113  0.2049  1.0568 -0.3134
   49MOL   H11231888   1.738   6.203   7.135 -2.1587  1.2160  3.7929
   49MOL   H11331889   1.897   6.175   7.209  0.6779 -1.0015 -0.3570
   49MOL   H11431890   1.855   5.929   7.146  0.9330  0.8340 -0.6194
   49MOL   H11531891   1.905   5.940   6.893  1.1690  2.6604 -2.6490
   49MOL   H11631892   1.914   6.109   6.917  0.3575  0.5681 -0.1479
   49MOL   H11731893   2.086   6.070   7.096 -0.7116  0.3167  1.4350
   49MOL   H11831894   2.070   5.901   7.073 -4.8776 -0.3306  0.0385
   49MOL   H11931895   2.129   5.910   6.837 -1.0044  1.0363 -1.1524
   49MOL   H12031896   2.158   6.087   6.859  0.5649 -0.5131 -1.3891
   49MOL   H12131897   2.348   6.039   7.013  0.1966 -0.0350 -0.4062
   49MOL   H12231898   2.301   5.864   7.008  1.6465  0.2289 -0.2887
   49MOL   H12331899   2.412   6.035   6.787  2.3640  0.3996  0.2447
   49MOL   H12431900   2.356   5.876   6.772 -1.0838  2.3056 -0.3568
   49MOL   H12531901   2.512   5.800   6.960 -0.0176  1.7560  1.4416
   49MOL   H12631902   2.585   5.837   6.818 -1.6084 -0.3805 -1.6527
   49MOL   H12731903   2.641   6.081   6.902  0.8769 -1.3310 -1.8598
   49MOL   H12831904   2.563   6.046   7.047 -1.4053  1.2426 -1.9641
   49MOL   H12931905   2.806   6.046   7.064 -1.4371 -0.0112  1.6438
   49MOL   H13031906   2.813   5.940   6.926  1.6757 -1.2461  1.5745
   49MOL   H13131907   2.676   5.851   7.182 -0.8822  1.4949 -1.6313
   49MOL   H13231908   2.742   5.760   7.054  2.2388  2.1414 -2.6818
   49MOL   H13331909   2.860   5.835   7.156  0.8264 -2.0444 -2.5634
   49MOL   C13431910   1.666   5.963   7.041 -0.0415  0.3462  0.3405
   49MOL   C13531911   1.657   5.831   6.966 -0.3345 -0.2607 -0.1168
   49MOL   C13631912   1.534   5.824   6.883 -0.7806  0.5504  0.0019
   49MOL   C13731913   1.398   5.858   6.949 -0.1181 -0.3381  0.2785
   49MOL   C13831914   1.274   5.861   6.854  0.3436  0.1118 -0.9574
   49MOL   C13931915   1.155   5.948   6.900 -0.5196 -0.2339 -0.1535
   49MOL   C14031916   1.036   5.954   6.797  0.4079  0.4691  0.0353
   49MOL   C14131917   1.041   6.072   6.703 -0.3590  0.2125 -0.7816
   49MOL   C14231918   0.930   6.076   6.598  0.2520 -0.2638  0.6524
   49MOL   C14331919   0.938   6.201   6.513 -0.1610  0.0586 -0.4728
   49MOL   C14431920   0.822   6.217   6.419  0.2984  0.5377 -0.3039
   49MOL   H14531921   1.592   5.972   7.121 -0.3248  0.9475  0.0164
   49MOL   H14631922   1.639   6.031   6.960  0.8467 -0.3163 -0.5088
   49MOL   H14731923   1.748   5.817   6.906 -0.3546 -0.6961 -0.0517
   49MOL   H14831924   1.525   5.723   6.844  0.8090  0.0292  0.9481
   49MOL   H14931925   1.546   5.882   6.791  1.5819 -1.7199 -1.1962
   49MOL   H15031926   1.395   5.791   7.035  1.6653  0.7464  1.2001
   49MOL   H15131927   1.400   5.962   6.982 -0.5602  0.0671 -0.9244
   49MOL   H15231928   1.304   5.903   6.758 -0.3159  0.5732 -0.9662
   49MOL   H15331929   1.246   5.759   6.830  0.3604 -1.1181  3.6942
   49MOL   H15431930   1.123   5.912   6.998  0.2710 -2.5569 -0.7232
   49MOL   H15531931   1.190   6.051   6.906  0.3742 -0.5307 -0.1316
   49MOL   H15631932   1.030   5.861   6.740 -1.2811  0.0755  0.8224
   49MOL   H15731933   0.942   5.953   6.853  0.8008 -0.7302  0.6970
   49MOL   H15831934   1.037   6.163   6.763  0.1338 -0.8485  0.9074
   49MOL   H15931935   1.140   6.060   6.658  0.9942  0.6381  1.9618
   49MOL   H16031936   0.940   5.982   6.544  2.5256  0.7177 -0.7255
   49MOL   H16131937   0.839   6.071   6.657  0.0162  1.5297  0.4664
   49MOL   H16231938   0.935   6.288   6.579 -0.6364  0.4475 -1.0084
   49MOL   H16331939   1.030   6.197   6.456  0.6931  0.5952  0.8205
   49MOL   H16431940   0.725   6.214   6.470 -0.5205  0.6596 -1.8150
   49MOL   H16531941   0.815   6.135   6.347  1.8438  0.6818 -0.6232
   49MOL   H16631942   0.828   6.307   6.358  1.2282 -0.9229 -2.4275
   49MOL   C16731943   1.660   5.722   7.073  0.8965  0.2848 -0.3258
   49MOL   C16831944   1.762   5.607   7.055  0.4328  0.0211 -0.1915
   49MOL   C16931945   1.742   5.513   6.934  0.0867  0.3302  0.2847
   49MOL   C17031946   1.611   5.437   6.923  0.8541  1.0357  0.1954
   49MOL   C17131947   1.570   5.419   6.772  0.3256  0.6313 -0.2112
   49MOL   C17231948   1.427   5.353   6.756  0.3411 -0.2088 -0.0347
   49MOL   C17331949   1.374   5.356   6.615  0.4840  0.0937 -0.2133
   49MOL   C17431950   1.242   5.275   6.600 -0.4267 -0.2485 -0.0945
   49MOL   C17531951   1.189   5.271   6.463  0.1638  1.1516  0.0177
   49MOL   C17631952   1.060   5.186   6.450  0.0852 -0.4589  0.1012
   49MOL   C17731953   1.076   5.035   6.441  0.4593 -0.8445  0.1716
   49MOL   H17831954   1.674   5.776   7.167  0.7583  2.0481 -1.2971
   49MOL   H17931955   1.560   5.679   7.077  1.3911 -0.9994 -1.2542
   49MOL   H18031956   1.854   5.661   7.039  0.4943  0.2753  1.0131
   49MOL   H18131957   1.831   5.450   6.927 -0.8410 -0.9686  0.1241
   49MOL   H18231958   1.745   5.577   6.845  0.8413 -0.0012  0.0648
   49MOL   H18331959   1.620   5.340   6.972 -1.4354  0.0667 -1.2253
   49MOL   H18431960   1.536   5.488   6.983  0.5977 -0.2762  1.0299
   49MOL   H18531961   1.648   5.361   6.721 -0.3821 -0.7668  0.2633
   49MOL   H18631962   1.570   5.514   6.720 -0.4285  1.9224  2.0792
   49MOL   H18731963   1.440   5.248   6.783  3.3854  0.0417 -0.3518
   49MOL   H18831964   1.347   5.386   6.824 -0.6420 -1.3996 -0.6006
   49MOL   H18931965   1.460   5.307   6.569  0.2687 -0.5925  0.1155
   49MOL   H19031966   1.360   5.452   6.566 -0.7954 -0.7443 -1.5425
   49MOL   H19131967   1.247   5.174   6.639 -0.7219  0.4618  1.8209
   49MOL   H19231968   1.162   5.320   6.659 -0.4220 -1.7091  1.0632
   49MOL   H19331969   1.268   5.233   6.398 -1.1923  0.4348 -1.2608
   49MOL   H19431970   1.160   5.374   6.443  0.5754  1.6223  1.8285
   49MOL   H19531971   1.004   5.214   6.361 -0.4623  1.3930  1.0027
   49MOL   H19631972   0.991   5.202   6.533  1.0719  1.1268  0.6499
   49MOL   H19731973   1.142   5.012   6.357 -1.2566  0.0599 -1.4642
   49MOL   H19831974   0.981   4.983   6.434  0.1567 -0.1871 -0.7152
   49MOL   H19931975   1.129   4.997   6.528  2.1244  1.9483  0.4491
   49MOL   C20031976   1.776   5.525   7.188  0.1764 -0.3948 -0.0274
   49MOL   C20131977   1.914   5.466   7.208  0.3301  0.8054 -0.3564
   49MOL   C20231978   1.900   5.392   7.340 -0.0268 -0.1925 -1.0030
   49MOL   C20331979   1.917   5.481   7.468 -0.7270 -0.6818  0.2010
   49MOL   C20431980   1.926   5.406   7.594  0.2362 -0.6128  0.0801
   49MOL   C20531981   1.812   5.315   7.637  0.2165 -0.5495 -0.2513
   49MOL   C20631982   1.832   5.249   0.069 -0.4174  0.0296  0.0567
   49MOL   C20731983   1.720   5.146   0.099  0.3298  0.2617 -0.1955
   49MOL   C20831984   1.706   5.121   0.249 -0.5075  0.2347  0.0281
   49MOL   C20931985   1.641   5.237   0.318  0.6294  0.3191  0.1782
   49MOL   C21031986   1.593   5.214   0.463 -0.5024 -0.2121 -0.2484
   49MOL   H21131987   1.768   5.592   7.273  1.4731 -2.2372  1.5926
   49MOL   H21231988   1.693   5.455   7.194 -0.1547 -0.1945 -1.9606
   49MOL   H21331989   1.940   5.385   7.140 -0.6746  0.4159 -0.2853
   49MOL   H21431990   1.976   5.314   7.343 -1.0588 -1.1841  1.3868
   49MOL   H21531991   1.808   5.334   7.349 -0.0437 -0.1315 -0.7716
   49MOL   H21631992   1.839   5.557   7.465 -0.0721 -0.0604 -1.3626
   49MOL   H21731993   1.997   5.554   7.459 -2.7592  1.5016 -0.7414
   49MOL   H21831994   1.947   5.475   7.676  0.1601 -1.0682  0.4869
   49MOL   H21931995   2.013   5.342   7.594  2.0525  1.6865  2.9510
   49MOL   H22031996   1.718   5.367   7.655 -0.1535 -0.7181 -1.6976
   49MOL   H22131997   1.805   5.237   7.562  2.6019 -0.7292 -0.3541
   49MOL   H22231998   1.837   5.332   0.140 -0.3964 -1.1134  1.4007
   49MOL   H22331999   1.931   5.205   0.063 -0.4092  0.2706 -1.8605
   49MOL   H22432000   1.757   5.053   0.056 -0.3704  0.8948 -2.1834
   49MOL   H22532001   1.621   5.166   0.059  0.7303 -0.6672 -1.6674
   49MOL   H22632002   1.797   5.096   0.305 -0.3100 -1.8192 -1.1248
   49MOL   H22732003   1.636   5.038   0.247  1.4493 -1.4851  0.3664
   49MOL   H22832004   1.715   5.317   0.315  0.7653  0.1341 -1.5553
   49MOL   H22932005   1.555   5.258   0.255 -0.2158  1.0225  1.5411
   49MOL   H23032006   1.519   5.134   0.468 -0.8578  0.1086 -0.4090
   49MOL   H23132007   1.546   5.304   0.501 -2.4397 -1.2234 -0.2255
   49MOL   H23232008   1.666   5.184   0.539 -1.2200 -0.2646  0.4216
   49MOL   C23332009   2.024   5.582   7.202 -0.5961  0.1340 -0.3870
   49MOL   C23432010   2.168   5.526   7.231 -0.2539 -0.2279  0.0188
   49MOL   C23532011   2.266   5.640   7.262  0.0593 -0.2126  0.1510
   49MOL   C23632012   2.246   5.708   7.396 -0.4877  0.1603  0.3895
   49MOL   C23732013   2.360   5.808   7.432 -0.1886 -0.4333 -0.0673
   49MOL   C23832014   2.347   5.950   7.371 -0.2175 -0.3526 -0.6546
   49MOL   C23932015   2.465   6.038   7.405  1.0482  0.3075 -1.1229
   49MOL   C24032016   2.449   6.168   7.334 -0.0679  0.1431  0.0289
   49MOL   C24132017   2.582   6.252   7.326  0.5477  0.1972 -0.8445
   49MOL   C24232018   2.632   6.319   7.451  0.0997  0.1679 -0.2983
   49MOL   C24332019   2.757   6.410   7.433 -0.3067 -0.4151 -0.3036
   49MOL   H24432020   1.999   5.671   7.259 -0.6875 -1.6150  2.3994
   49MOL   H24532021   2.024   5.612   7.097  2.2761  4.0987  0.6375
   49MOL   H24632022   2.172   5.462   7.320 -1.5723 -0.6075 -0.1909
   49MOL   H24732023   2.368   5.602   7.272 -0.0096 -0.5871 -0.5736
   49MOL   H24832024   2.257   5.708   7.178  1.0198 -0.1900  0.0638
   49MOL   H24932025   2.243   5.640   7.481  2.3673  1.3040  1.4610
   49MOL   H25032026   2.147   5.755   7.397 -1.8619 -2.5826 -1.5354
   49MOL   H25132027   2.453   5.760   7.402 -0.3247 -1.1100  0.5878
   49MOL   H25232028   2.378   5.820   7.539 -1.6498 -0.7725  0.2245
   49MOL   H25332029   2.253   5.997   7.399  0.4131  0.4866  0.0831
   49MOL   H25432030   2.335   5.949   7.263 -2.0968 -1.3915 -0.4462
   49MOL   H25532031   2.483   6.053   7.512  2.5996  2.9488 -1.7136
   49MOL   H25632032   2.554   5.987   7.367  0.7426 -0.3348 -0.9889
   49MOL   H25732033   2.418   6.146   7.232  1.3873 -0.5257 -0.2807
   49MOL   H25832034   2.370   6.219   7.390  0.1132 -0.6455  1.0169
   49MOL   H25932035   2.664   6.188   7.295 -2.2247 -2.0242 -3.9760
   49MOL   H26032036   2.575   6.328   7.248 -1.4957 -0.7472 -1.6230
   49MOL   H26132037   2.664   6.243   7.523  0.8572  1.3273  0.6135
   49MOL   H26232038   2.562   6.381   7.508 -1.0441 -0.9764 -0.4342
   49MOL   H26332039   2.848   6.351   7.426 -0.4682 -0.3503 -3.9275
   49MOL   H26432040   2.770   6.480   7.516  1.1054  1.5670 -2.1476
   49MOL   H26532041   2.750   6.468   7.341 -0.5873 -0.8987 -0.5884
   49MOL   C26632042   2.217   5.430   7.116 -0.0106 -0.0191 -0.2946
   49MOL   C26732043   2.357   5.359   7.131  0.3143 -0.0063 -0.0092
   49MOL   C26832044   2.465   5.414   7.030  0.6247 -0.1891  0.0212
   49MOL   C26932045   2.604   5.376   7.064 -0.0420 -0.9033  0.0684
   49MOL   C27032046   2.700   5.438   6.960  0.1254  0.0106 -0.2584
   49MOL   C27132047   2.835   5.444   7.031 -0.4486  0.0919 -0.2784
   49MOL   C27232048   2.912   5.309   7.022  0.1014  0.1102 -0.0019
   49MOL   C27332049   3.046   5.303   7.100  0.2017  0.5322 -0.4167
   49MOL   C27432050   3.035   5.278   7.251  0.1070 -0.2599  0.3701
   49MOL   C27532051   3.173   5.230   7.299 -0.0689  0.2267 -0.1957
   49MOL   C27632052   3.173   5.202   7.454 -0.2326  0.1301 -0.2708
   49MOL   H27732053   2.223   5.498   7.031 -1.2218  0.2904 -0.1299
   49MOL   H27832054   2.141   5.359   7.085 -0.3323  1.1250 -2.1847
   49MOL   H27932055   2.396   5.382   7.231 -0.6123  1.4793  0.0285
   49MOL   H28032056   2.427   5.375   6.935  0.1675 -0.0996  0.1655
   49MOL   H28132057   2.441   5.520   7.032 -0.9875 -0.5543  0.6323
   49MOL   H28232058   2.613   5.269   7.087 -3.7808 -1.5776 -1.3196
   49MOL   H28332059   2.620   5.438   7.152  2.1513  1.6943 -2.0711
   49MOL   H28432060   2.669   5.538   6.930 -2.8531 -0.9696 -0.6300
   49MOL   H28532061   2.703   5.383   6.866  3.2160 -0.7034  0.1972
   49MOL   H28632062   2.847   5.491   7.129  2.7340 -0.5805 -0.2912
   49MOL   H28732063   2.895   5.517   6.977  0.0474 -0.2072 -0.1329
   49MOL   H28832064   2.835   5.245   7.066  0.5071 -1.4050 -1.4588
   49MOL   H28932065   2.930   5.272   6.921  2.2503  0.1221  0.3571
   49MOL   H29032066   3.115   5.382   7.072 -0.0450  0.0987 -2.3625
   49MOL   H29132067   3.099   5.213   7.069 -1.8826 -1.5922  1.9708
   49MOL   H29232068   3.015   5.365   7.314  3.1889  1.1977 -0.5465
   49MOL   H29332069   2.957   5.203   7.263 -0.3031 -0.0489 -0.8525
   49MOL   H29432070   3.250   5.301   7.269 -1.7348  2.1193 -0.0985
   49MOL   H29532071   3.200   5.140   7.244 -1.0085 -0.8023  0.9881
   49MOL   H29632072   3.271   5.186   7.500 -0.4537  1.1714  0.5692
   49MOL   H29732073   3.119   5.110   7.473  0.6503  0.1083  2.4205
   49MOL   H29832074   3.133   5.278   7.521 -0.0682  1.6249 -1.8276
   49MOL   C29932075   2.351   5.208   7.136 -0.5928 -0.7655  0.9051
   49MOL   C30032076   2.269   5.137   7.240 -0.2006  0.2821  0.5612
   49MOL   C30132077   2.318   5.172   7.383 -0.2603 -1.1488  0.0794
   49MOL   C30232078   2.461   5.136   7.410 -0.2048  0.0743  0.2388
   49MOL   C30332079   2.508   5.201   7.548 -0.8540 -0.0583 -0.7930
   49MOL   C30432080   2.663   5.230   7.544  0.7405  1.2821  0.3568
   49MOL   C30532081   2.773   5.123   7.571 -0.5078  0.6021 -0.2136
   49MOL   C30632082   2.760   5.039   0.000 -0.1403 -0.4391  0.4852
   49MOL   C30732083   2.881   4.947   0.017 -0.0042 -0.2505  0.6425
   49MOL   C30832084   2.852   4.830   0.114  0.1064 -0.3999  0.2971
   49MOL   C30932085   2.978   4.744   0.145 -1.1747  0.7246  0.1352
   49MOL   H31032086   2.450   5.162   7.127 -0.2110 -0.4724  3.3673
   49MOL   H31132087   2.304   5.183   7.041 -2.0920 -0.2044  1.4876
   49MOL   H31232088   2.166   5.171   7.235 -0.3394 -0.2657 -0.3071
   49MOL   H31332089   2.302   5.279   7.392  1.9618 -0.5793 -2.0221
   49MOL   H31432090   2.258   5.134   7.465 -0.6156 -0.0586  0.3284
   49MOL   H31532091   2.485   5.029   7.408  0.9587  0.3546 -1.3742
   49MOL   H31632092   2.517   5.172   7.324  0.6399 -2.0493 -0.1502
   49MOL   H31732093   2.454   5.295   7.557 -2.2137 -0.9795  0.9922
   49MOL   H31832094   2.468   5.135   7.624  1.4435 -1.2383 -0.5442
   49MOL   H31932095   2.673   5.293   7.632 -1.0537  1.5497  0.3875
   49MOL   H32032096   2.682   5.296   7.459  1.2687  2.0207  1.0427
   49MOL   H32132097   2.775   5.049   7.491 -0.3216  1.8363 -1.3571
   49MOL   H32232098   2.872   5.168   7.571 -0.5454  0.6849 -0.0266
   49MOL   H32332099   2.674   4.974   7.691 -0.1269 -0.4454  0.4299
   49MOL   H32432100   2.740   5.107   0.083  1.2407 -0.6472  1.0095
   49MOL   H32532101   2.971   4.995   0.056  1.5831 -0.9957 -2.0101
   49MOL   H32632102   2.905   4.904   7.623  0.5013  1.1883  0.1077
   49MOL   H32732103   2.766   4.772   0.081  0.2021 -1.0896  1.2516
   49MOL   H32832104   2.810   4.867   0.208 -0.0679 -0.9489  0.4377
   49MOL   H32932105   2.964   4.655   0.206  0.8302 -0.7895 -1.5355
   49MOL   H33032106   3.026   4.714   0.052  0.5246 -0.9392  1.5024
   49MOL   H33132107   3.045   4.795   0.215 -0.0337 -3.4266  2.2254
   49MOL   C33232108   2.271   4.984   7.206  0.2181 -0.0768  0.0573
   49MOL   C33332109   2.180   4.901   7.306 -0.3369  0.0150  0.2926
   49MOL   C33432110   2.198   4.743   7.285 -0.1440 -0.4314  0.2579
   49MOL   C33532111   2.235   4.657   7.405 -0.3680 -0.5648  0.8175
   49MOL   C33632112   2.221   4.506   7.381 -0.4161 -0.4428 -0.5590
   49MOL   C33732113   2.075   4.468   7.402  0.0619 -0.3129 -0.7960
   49MOL   C33832114   2.062   4.316   7.381 -0.1118  0.7018 -0.1813
   49MOL   C33932115   1.924   4.251   7.385  0.3891 -0.0446  0.5524
   49MOL   C34032116   1.922   4.112   7.325  0.3216 -0.1718  0.2129
   49MOL   C34132117   1.795   4.027   7.365 -0.9107 -0.2646 -0.5784
   49MOL   C34232118   1.665   4.082   7.306 -0.2603 -0.2555  0.1512
   49MOL   H34332119   2.235   4.980   7.103  2.8669  0.9349 -0.9434
   49MOL   H34432120   2.372   4.943   7.211  1.2564  2.4177  0.3760
   49MOL   H34532121   2.247   4.921   7.390 -0.8983 -0.0150  0.7512
   49MOL   H34632122   2.278   4.715   7.216  0.4129  1.9215 -0.0792
   49MOL   H34732123   2.105   4.712   7.238  0.3039 -1.6552  0.1605
   49MOL   H34832124   2.342   4.675   7.412 -0.2454 -0.1552 -1.5448
   49MOL   H34932125   2.199   4.681   7.505  2.4880  2.7245  1.1356
   49MOL   H35032126   2.247   4.476   7.280  0.6638 -1.4513  0.0080
   49MOL   H35132127   2.293   4.464   7.451 -1.0856  0.3071  0.6034
   49MOL   H35232128   2.010   4.518   7.331  1.0743  3.3893  0.7672
   49MOL   H35332129   2.043   4.499   7.502  1.4458  1.1216 -0.7766
   49MOL   H35432130   2.116   4.275   7.466 -2.9987 -0.9375  0.9243
   49MOL   H35532131   2.114   4.282   7.292 -0.9853 -1.2577  0.0367
   49MOL   H35632132   1.894   4.255   7.490 -2.5068  0.0252 -0.2138
   49MOL   H35732133   1.854   4.316   7.331 -0.1662 -1.3427 -0.3349
   49MOL   H35832134   2.008   4.055   7.362  1.2092  0.3523 -1.0002
   49MOL   H35932135   1.933   4.116   7.217 -0.6599 -0.6096  0.0951
   49MOL   H36032136   1.804   4.022   7.474  2.9975  0.9862 -0.7725
   49MOL   H36132137   1.808   3.926   7.328 -0.9753 -0.6634  0.4763
   49MOL   H36232138   1.590   4.009   7.339  0.5690 -1.8294 -1.3454
   49MOL   H36332139   1.621   4.173   7.348  2.3942  1.2743 -0.3190
   49MOL   H36432140   1.666   4.088   7.198  4.5658  0.0626  0.1227
   49MOL   C36532141   2.037   4.944   7.336 -0.4410  0.7450 -0.3078
   49MOL   C36632142   1.963   4.877   7.445 -0.2597 -0.0091 -0.3804
   49MOL   C36732143   2.027   4.917   7.582 -0.1318  0.6466 -0.4511
   49MOL   C36832144   1.979   4.828   7.697  0.1932  0.1758 -0.2985
   49MOL   C36932145   2.060   4.856   0.115 -0.3317 -0.9788  0.8243
   49MOL   C37032146   2.031   4.754   0.233  0.0620 -0.3576 -0.4169
   49MOL   C37132147   2.039   4.813   0.366 -0.2209  0.3249 -0.8247
   49MOL   C37232148   2.184   4.847   0.407 -0.4561  0.3698 -0.1944
   49MOL   C37332149   2.291   4.745   0.409 -0.0635 -0.0357  0.2795
   49MOL   C37432150   2.275   4.667   0.544 -0.0719  0.1005 -0.0696
   49MOL   C37532151   2.296   4.736   0.680  0.7777 -0.1983  0.2503
   49MOL   H37632152   2.043   5.050   7.364 -2.9260  1.3018 -1.7396
   49MOL   H37732153   1.995   4.958   7.236 -1.1279 -1.4830 -0.3445
   49MOL   H37832154   1.983   4.770   7.437 -0.4418 -0.0435 -0.3705
   49MOL   H37932155   2.001   5.021   7.604 -2.5874 -0.1528  0.5765
   49MOL   H38032156   2.135   4.909   7.582 -0.2589 -1.4798 -1.8639
   49MOL   H38132157   1.985   4.722   7.670 -0.6579 -0.1380  0.6928
   49MOL   H38232158   1.874   4.839   0.021 -0.0233 -3.2249  0.4800
   49MOL   H38332159   2.061   4.963   0.140  1.4750 -0.2620 -2.1611
   49MOL   H38432160   2.164   4.834   0.092 -0.3279 -1.7561  1.5597
   49MOL   H38532161   2.108   4.677   0.231 -0.8209 -1.3242  0.9958
   49MOL   H38632162   1.935   4.706   0.217 -1.7550  3.2873 -1.0702
   49MOL   H38732163   1.971   4.898   0.376 -1.1550 -0.7278  2.2837
   49MOL   H38832164   2.006   4.734   0.434  2.4125  0.3644  0.5789
   49MOL   H38932165   2.185   4.892   0.506  1.1409 -0.5575  0.2254
   49MOL   H39032166   2.217   4.931   0.345 -0.4833 -0.5811 -1.5299
   49MOL   H39132167   2.288   4.667   0.333 -1.7596 -2.0111  2.2959
   49MOL   H39232168   2.388   4.794   0.403 -0.9830  2.0562  2.0182
   49MOL   H39332169   2.180   4.613   0.554 -0.2364  0.2969 -0.6053
   49MOL   H39432170   2.351   4.589   0.546  0.5833  0.7612  1.0369
   49MOL   H39532171   2.349   4.829   0.661 -1.2364  1.2783  1.6713
   49MOL   H39632172   2.352   4.686   0.758 -1.3494 -1.9195  0.7282
   49MOL   H39732173   2.208   4.783   0.724 -0.0446 -2.5435  1.1733
   49MOL   C39832174   1.810   4.906   7.434  0.1200  0.3706  0.9970
   49MOL   C39932175   1.732   4.878   7.297 -0.1403 -0.0568  0.4639
   49MOL   C40032176   1.583   4.911   7.322  0.1108  0.0372 -0.2356
   49MOL   C40132177   1.549   5.047   7.264 -0.0257 -0.2438 -0.0580
   49MOL   C40232178   1.406   5.098   7.284 -0.1511 -0.0440 -0.5933
   49MOL   C40332179   1.383   5.225   7.213  0.0511 -0.5514  0.7886
   49MOL   C40432180   1.254   5.302   7.260  0.0026  0.3204 -0.1659
   49MOL   C40532181   1.258   5.432   7.198 -0.0232  0.2619 -0.0973
   49MOL   C40632182   1.136   5.526   7.233 -0.3470  0.1416 -0.9798
   49MOL   C40732183   1.146   5.668   7.184  0.2383  0.2291 -0.3516
   49MOL   C40832184   1.243   5.766   7.262 -0.2344 -1.0669 -0.4292
   49MOL   H40932185   1.804   5.008   7.471 -0.5130 -0.2164  2.5776
   49MOL   H41032186   1.766   4.849   7.516  0.9897 -2.2439 -0.2750
   49MOL   H41132187   1.769   4.953   7.227 -1.9084  0.6512  0.2583
   49MOL   H41232188   1.557   4.907   7.428  1.2362  0.2499  0.0524
   49MOL   H41332189   1.519   4.843   7.266  0.4033  0.1804 -0.7505
   49MOL   H41432190   1.618   5.112   7.317 -0.2254 -0.1854  0.1306
   49MOL   H41532191   1.569   5.064   7.159  0.2010  1.9709  0.3281
   49MOL   H41632192   1.333   5.023   7.254  0.5575 -1.0655  0.1976
   49MOL   H41732193   1.394   5.117   7.391  1.6007  2.3462 -0.7797
   49MOL   H41832194   1.384   5.218   7.104  0.0235 -1.7611  0.8599
   49MOL   H41932195   1.459   5.298   7.240  0.1376 -0.6143  0.7165
   49MOL   H42032196   1.161   5.247   7.246  0.8627 -0.7742 -1.7072
   49MOL   H42132197   1.249   5.308   7.369 -3.5184  0.6502 -0.3013
   49MOL   H42232198   1.277   5.429   7.090 -0.7174  0.9204 -0.2463
   49MOL   H42332199   1.350   5.479   7.232 -0.1472  2.3191 -2.4168
   49MOL   H42432200   1.052   5.467   7.195 -0.5681 -1.8834  2.3976
   49MOL   H42532201   1.124   5.523   7.341 -1.3561 -2.5822 -1.1297
   49MOL   H42632202   1.043   5.703   7.188  0.0292 -0.1883 -1.7597
   49MOL   H42732203   1.173   5.667   7.079 -0.0217  0.0685 -0.4162
   49MOL   H42832204   1.220   5.869   7.235  1.0397 -0.8377 -0.6525
   49MOL   H42932205   1.345   5.730   7.246  0.7303  0.6094  1.8003
   49MOL   H43032206   1.234   5.770   7.371 -0.2066  1.4159 -0.4941
   49MOL   C43132207   1.746   4.731   7.258 -0.2801  0.7279  0.2399
   49MOL   C43232208   1.722   4.687   7.111  1.4479  0.2586  0.1248
   49MOL   C43332209   1.749   4.533   7.094  0.1744  0.0690  0.2372
   49MOL   C43432210   1.640   4.438   7.141 -0.7445 -0.0835  0.0023
   49MOL   C43532211   1.520   4.430   7.038 -0.2105 -0.4126  0.7596
   49MOL   C43632212   1.446   4.302   7.066 -0.2526  0.3292 -0.6833
   49MOL   C43732213   1.370   4.286   7.196  0.5423 -0.0039 -0.2347
   49MOL   C43832214   1.237   4.362   7.200  0.2651  0.6381 -0.2019
   49MOL   C43932215   1.250   4.518   7.224 -0.0431  0.7438  0.3813
   49MOL   C44032216   1.109   4.583   7.274 -0.8367  0.0672 -0.2553
   49MOL   C44132217   1.133   4.718   7.352 -0.6048  0.4117 -0.0329
   49MOL   H44232218   1.696   4.665   7.328 -0.9519  1.4160  0.4004
   49MOL   H44332219   1.849   4.702   7.279 -0.2284  0.9435  0.2806
   49MOL   H44432220   1.616   4.707   7.099  1.1995  1.0514  3.0709
   49MOL   H44532221   1.760   4.520   6.986  0.5425 -0.5709  0.3492
   49MOL   H44632222   1.846   4.509   7.137  0.9042  3.2298  0.4879
   49MOL   H44732223   1.610   4.456   7.244 -1.3672  0.4724 -0.2759
   49MOL   H44832224   1.698   4.345   7.143  2.1533  1.6001 -2.2504
   49MOL   H44932225   1.558   4.414   6.938 -2.0770  1.4963 -0.2873
   49MOL   H45032226   1.463   4.523   7.036 -0.7812 -0.7075  2.2127
   49MOL   H45132227   1.521   4.223   7.070 -1.3330 -0.6024  3.0746
   49MOL   H45232228   1.369   4.294   6.988  0.9729  1.4877 -2.0439
   49MOL   H45332229   1.429   4.327   7.277 -0.6428 -0.6938  0.9935
   49MOL   H45432230   1.348   4.183   7.223 -0.6520  0.3554  0.1674
   49MOL   H45532231   1.176   4.341   7.113  0.7258  2.5324 -1.0158
   49MOL   H45632232   1.183   4.312   7.281  1.5532 -1.6241 -0.7088
   49MOL   H45732233   1.273   4.559   7.126  1.6995 -0.5070  0.2371
   49MOL   H45832234   1.341   4.533   7.282 -1.6524 -0.6363  3.4040
   49MOL   H45932235   1.055   4.511   7.335 -4.2456 -0.7778 -4.0122
   49MOL   H46032236   1.051   4.594   7.182 -1.9782 -0.1495  0.4400
   49MOL   H46132237   1.167   4.688   7.451 -0.3872  1.4624  0.2090
   49MOL   H46232238   1.212   4.767   7.295 -0.2128 -1.2540 -0.9819
   49MOL   H46332239   1.041   4.775   7.357 -1.6545 -1.0475 -1.9842
   49MOL   C46432240   1.806   4.769   7.006  0.1472 -0.3557  0.7848
   49MOL   C46532241   1.714   4.877   6.941  0.3370 -0.8296 -0.2311
   49MOL   C46632242   1.792   5.001   6.896 -0.1592  0.5000 -0.9256
   49MOL   C46732243   1.867   4.975   6.771 -0.1243  0.5795  0.6177
   49MOL   C46832244   1.943   5.109   6.733 -0.1258  0.0810 -0.8289
   49MOL   C46932245   2.085   5.122   6.805  0.5274 -0.1538 -0.3374
   49MOL   C47032246   2.179   5.211   6.729 -0.3259 -0.3776 -0.0571
   49MOL   C47132247   2.136   5.361   6.730  0.0810  0.1805  0.4317
   49MOL   C47232248   2.240   5.460   6.676 -0.1579  0.2330 -0.6523
   49MOL   C47332249   2.271   5.457   6.525  0.3566 -0.0792  0.1270
   49MOL   C47432250   2.398   5.532   6.488  0.2150  0.1032 -0.4508
   49MOL   H47532251   1.859   4.704   6.936  2.5124  0.5439  1.7016
   49MOL   H47632252   1.891   4.813   7.057  1.5801 -3.3837  1.1323
   49MOL   H47732253   1.656   4.913   7.026 -0.3135  1.3663 -1.5763
   49MOL   H47832254   1.854   5.023   6.983 -1.6789  1.2646 -0.0146
   49MOL   H47932255   1.720   5.082   6.881 -0.8167  0.3594  1.2925
   49MOL   H48032256   1.927   4.885   6.785 -2.1549 -0.8610  0.1573
   49MOL   H48132257   1.794   4.956   6.693  1.1729 -1.5173 -0.1297
   49MOL   H48232258   1.884   5.198   6.753  0.2060  0.0512  0.3300
   49MOL   H48332259   1.964   5.093   6.627 -0.2831 -2.6559 -0.4866
   49MOL   H48432260   2.068   5.131   6.912 -2.8422  1.5796 -0.9612
   49MOL   H48532261   2.140   5.030   6.784 -0.4563 -0.5762 -1.0789
   49MOL   H48632262   2.281   5.206   6.767 -1.2941 -2.3479  2.4127
   49MOL   H48732263   2.174   5.176   6.626  0.3170 -2.4170  0.5772
   49MOL   H48832264   2.043   5.364   6.673  0.5661 -0.2093 -0.3870
   49MOL   H48932265   2.107   5.379   6.834 -0.6533  0.5835  0.1563
   49MOL   H49032266   2.199   5.557   6.704  1.0448  0.2013  1.3498
   49MOL   H49132267   2.328   5.450   6.740  0.0843 -0.4861 -1.0968
   49MOL   H49232268   2.281   5.349   6.509  0.0304 -0.3114  1.4192
   49MOL   H49332269   2.182   5.484   6.468  0.3298 -1.3918 -0.4652
   49MOL   H49432270   2.391   5.637   6.515  2.2111  0.1154  0.0794
   49MOL   H49532271   2.431   5.520   6.385  0.7106 -0.2515 -0.2503
   49MOL   H49632272   2.483   5.489   6.540  1.9776  1.1006 -2.4531
   49MOL   C49732273   1.625   4.813   6.833  0.4777  0.5917 -0.4424
   49MOL   C49832274   1.504   4.898   6.787 -0.0545 -0.3794  0.4377
   49MOL   C49932275   1.383   4.888   6.887 -0.3336  0.5194  0.1263
   49MOL   C50032276   1.267   4.976   6.867  0.3196 -0.3502 -0.6952
   49MOL   C50132277   1.162   4.962   6.976 -0.6925  0.2026 -0.1860
   49MOL   C50232278   1.036   5.051   6.961 -0.0040 -0.1703 -0.1380
   49MOL   C50332279   1.057   5.208   6.940  0.4865  0.1099 -0.2313
   49MOL   C50432280   0.925   5.282   6.929  0.5944  0.5162 -0.1353
   49MOL   C50532281   0.940   5.437   6.906 -0.1316  0.4686 -0.1436
   49MOL   C50632282   0.809   5.501   6.847 -0.1626  0.5718  0.5176
   49MOL   C50732283   0.836   5.655   6.809  0.7649 -0.1488 -0.4592
   49MOL   H50832284   1.685   4.773   6.751 -2.3934  0.5010 -2.5461
   49MOL   H50932285   1.581   4.721   6.872 -0.6898  1.5522  0.5521
   49MOL   H51032286   1.531   5.003   6.775 -0.8388 -0.1578  0.5356
   49MOL   H51132287   1.423   4.894   6.988  0.4737 -0.6587 -0.1067
   49MOL   H51232288   1.344   4.786   6.884 -0.4593  0.6060 -2.1679
   49MOL   H51332289   1.221   4.951   6.772  0.4426 -1.0155 -0.5810
   49MOL   H51432290   1.300   5.080   6.875  0.0961 -0.3110 -0.2437
   49MOL   H51532291   1.132   4.858   6.971  0.5243 -0.1374 -0.4456
   49MOL   H51632292   1.194   4.974   7.080  2.1223 -3.4137 -0.5553
   49MOL   H51732293   0.982   5.008   6.876  2.7264  0.6832 -2.3712
   49MOL   H51832294   0.969   5.033   7.045 -0.2790  0.7174 -0.1636
   49MOL   H51932295   1.096   5.239   7.037 -2.0946 -0.5083  1.0409
   49MOL   H52032296   1.121   5.235   6.856 -0.0567  2.6191  0.1449
   49MOL   H52132297   0.865   5.240   7.010 -0.7335 -1.2222 -1.9741
   49MOL   H52232298   0.865   5.235   6.851  0.1828  0.7748  0.0212
   49MOL   H52332299   1.013   5.472   6.833  0.5205  0.0597  0.3060
   49MOL   H52432300   0.980   5.486   6.994 -0.8936 -2.0298  1.6300
   49MOL   H52532301   0.725   5.494   6.917 -0.7132 -0.1738 -0.2103
   49MOL   H52632302   0.782   5.460   6.749 -1.5349  1.8741  0.3166
   49MOL   H52732303   0.755   5.688   6.745  0.7968  1.7452  0.4416
   49MOL   H52832304   0.932   5.672   6.760  1.9995 -1.4213  1.4550
   49MOL   H52932305   0.833   5.726   6.892 -0.1481 -0.0116 -0.6087
   49MOL   C53032306   1.452   4.866   6.645 -0.4704 -0.4071 -1.1320
   49MOL   C53132307   1.550   4.901   6.527  0.0549 -0.3901  0.6717
   49MOL   C53232308   1.561   5.049   6.508 -0.5106  0.0256 -0.8191
   49MOL   C53332309   1.679   5.081   6.414 -0.3197  0.3475  0.2036
   49MOL   C53432310   1.746   5.213   6.442 -0.2788  0.3267 -0.4965
   49MOL   C53532311   1.866   5.246   6.351 -0.0236 -0.2942 -0.0366
   49MOL   C53632312   1.814   5.330   6.224  0.0938  0.3835 -0.6792
   49MOL   C53732313   1.928   5.359   6.128 -0.8588  1.1796  0.7808
   49MOL   C53832314   2.039   5.446   6.175  1.0293 -0.4229 -0.2447
   49MOL   C53932315   2.134   5.472   6.058  0.1191 -0.1846 -0.6734
   49MOL   C54032316   2.237   5.573   6.090  0.0574 -0.7218 -0.7422
   49MOL   H54132317   1.440   4.758   6.655  1.3978 -0.5179  0.3475
   49MOL   H54232318   1.356   4.909   6.618 -0.5961  0.9760  1.3490
   49MOL   H54332319   1.651   4.865   6.545 -0.3953 -2.0495 -0.0345
   49MOL   H54432320   1.584   5.097   6.603  1.4711 -1.6143 -0.4324
   49MOL   H54532321   1.470   5.103   6.482  0.4301  1.6742 -0.7325
   49MOL   H54632322   1.644   5.070   6.311 -1.7851  0.1174  0.7066
   49MOL   H54732323   1.764   5.014   6.425 -1.1442 -1.1499 -2.1346
   49MOL   H54832324   1.787   5.202   6.542 -1.4761  3.4181  0.3778
   49MOL   H54932325   1.685   5.302   6.437  1.0135  1.3047  0.6748
   49MOL   H55032326   1.929   5.167   6.311  1.8175  0.5640  1.1332
   49MOL   H55132327   1.929   5.299   6.422  1.4027 -1.5688 -0.3451
   49MOL   H55232328   1.771   5.426   6.253  2.5554  0.8389  1.7099
   49MOL   H55332329   1.744   5.272   6.164 -1.0806 -0.0134  1.0330
   49MOL   H55432330   1.889   5.420   6.047 -1.4917 -1.8825 -1.3125
   49MOL   H55532331   1.971   5.269   6.084 -2.1952 -0.2804  2.3944
   49MOL   H55632332   2.091   5.398   6.258  0.6058 -0.0394  0.2511
   49MOL   H55732333   1.998   5.535   6.224  2.4600  0.2765 -0.2972
   49MOL   H55832334   2.081   5.508   5.970  1.8064  1.6020 -0.9983
   49MOL   H55932335   2.186   5.384   6.019 -0.4874 -0.9543  0.2255
   49MOL   H56032336   2.311   5.542   6.164 -0.1695  1.6692  0.5591
   49MOL   H56132337   2.289   5.615   6.003  0.4669  1.4638  0.5114
   49MOL   H56232338   2.189   5.661   6.132  0.6681 -1.8089  2.3514
   49MOL   C56332339   1.506   4.838   6.392 -0.3203 -0.2604  0.5749
   49MOL   C56432340   1.511   4.676   6.391  0.6066 -0.1250  0.1012
   49MOL   C56532341   1.627   4.606   6.473 -0.0033 -0.1330  0.0161
   49MOL   C56632342   1.761   4.645   6.418  0.0204 -0.1277 -0.4576
   49MOL   C56732343   1.871   4.620   6.526  0.5852 -0.0515  0.8060
   49MOL   C56832344   2.012   4.647   6.473  0.3170  0.2287  0.3939
   49MOL   C56932345   2.060   4.789   6.479  0.5103  0.6687  0.2828
   49MOL   C57032346   2.200   4.803   6.423  0.0582 -0.2036  0.0696
   49MOL   C57132347   2.245   4.949   6.432 -0.6698 -1.0342  0.2789
   49MOL   C57232348   2.364   4.985   6.345  0.7499 -1.1247 -0.1705
   49MOL   C57332349   2.396   5.136   6.332  0.2259  0.5214  0.6252
   49MOL   H57432350   1.570   4.856   6.306 -2.7688 -1.5960 -1.5646
   49MOL   H57532351   1.409   4.887   6.383 -1.6829 -2.6980  1.6854
   49MOL   H57632352   1.419   4.646   6.443  0.5764 -0.8810 -0.3753
   49MOL   H57732353   1.608   4.499   6.479  0.9738 -0.4209 -1.7982
   49MOL   H57832354   1.612   4.630   6.578  2.0637 -2.2760  0.8387
   49MOL   H57932355   1.755   4.748   6.381 -1.5202 -0.8983 -2.4562
   49MOL   H58032356   1.775   4.590   6.325 -1.0941 -0.7402 -0.2714
   49MOL   H58132357   1.860   4.516   6.557  1.5545 -0.6683 -0.8841
   49MOL   H58232358   1.844   4.674   6.618 -0.7281 -1.4759  1.2795
   49MOL   H58332359   2.075   4.583   6.535  1.3830  0.2444 -0.6524
   49MOL   H58432360   2.026   4.594   6.379 -1.8804 -0.8300  0.6484
   49MOL   H58532361   1.979   4.850   6.438  0.0379  0.4103  0.8337
   49MOL   H58632362   2.071   4.819   6.584  2.5203 -0.8751  0.5395
   49MOL   H58732363   2.203   4.774   6.317 -2.3783 -2.0781  0.4621
   49MOL   H58832364   2.265   4.735   6.479  1.0817  0.1352 -0.6963
   49MOL   H58932365   2.253   4.980   6.536 -0.1549  2.2664 -0.7015
   49MOL   H59032366   2.166   5.012   6.392  2.5290  3.8232  1.2673
   49MOL   H59132367   2.366   4.936   6.247  1.5441  0.3027 -0.9002
   49MOL   H59232368   2.451   4.939   6.392  1.2037 -0.0329  0.0839
   49MOL   H59332369   2.318   5.205   6.301 -0.5683 -0.6205  0.0401
   49MOL   H59432370   2.442   5.185   6.418  3.6960  1.2131 -1.5226
   49MOL   H59532371   2.473   5.133   6.256  0.1720  1.1680  0.5474
   49MOL   C59632372   1.501   4.630   6.243 -0.3550 -0.4134 -0.4652
   49MOL   C59732373   1.369   4.667   6.165 -0.5475  0.2422 -0.9225
   49MOL   C59832374   1.255   4.572   6.220 -0.3339 -0.2580 -0.2635
   49MOL   C59932375   1.124   4.584   6.144  0.6499  0.1808 -0.5183
   49MOL   C60032376   1.005   4.496   6.190 -0.0760  0.0662 -0.4282
   49MOL   C60132377   1.010   4.345   6.140 -0.2488  0.0770  0.1360
   49MOL   C60232378   0.892   4.267   6.197 -0.1244  0.0023  0.0297
   49MOL   C60332379   0.883   4.252   6.356 -0.0116 -0.6472 -0.0255
   49MOL   C60432380   0.781   4.146   6.409 -0.6937  0.5729 -0.2859
   49MOL   C60532381   0.770   4.152   6.559 -0.6784  0.0374  0.3467
   49MOL   C60632382   0.684   4.036   6.615 -0.1111 -0.4515  0.7429
   49MOL   H60732383   1.597   4.657   6.200 -0.7553  2.2675  0.1982
   49MOL   H60832384   1.505   4.521   6.245  0.5199 -0.3887 -0.7283
   49MOL   H60932385   1.341   4.768   6.197 -0.7346  0.1157 -0.6780
   49MOL   H61032386   1.230   4.601   6.322 -2.2228  1.7982 -1.2658
   49MOL   H61132387   1.284   4.467   6.215 -2.3318 -0.9385  1.5578
   49MOL   H61232388   1.132   4.568   6.037 -3.3185  2.7099 -1.3351
   49MOL   H61332389   1.096   4.690   6.149  0.9377  0.1648  2.0977
   49MOL   H61432390   0.921   4.544   6.139 -0.0615  0.2204 -0.3064
   49MOL   H61532391   0.983   4.486   6.297 -0.1629 -1.4596 -0.5739
   49MOL   H61632392   0.993   4.358   6.033 -0.7489  4.3776  0.6701
   49MOL   H61732393   1.107   4.298   6.159  1.8477  3.1690 -2.4009
   49MOL   H61832394   0.910   4.166   6.160  2.4187  1.1379 -1.9991
   49MOL   H61932395   0.798   4.309   6.162 -0.0436  0.5602  0.4783
   49MOL   H62032396   0.847   4.349   6.391 -1.0794 -1.0298 -0.0567
   49MOL   H62132397   0.982   4.240   6.401  0.7165  4.1816 -0.1080
   49MOL   H62232398   0.691   4.146   6.348  0.6373  3.3521 -2.3744
   49MOL   H62332399   0.820   4.048   6.384  0.8940  1.9271 -3.5004
   49MOL   H62432400   0.733   4.251   6.586 -2.3936 -0.0546 -1.5583
   49MOL   H62532401   0.868   4.156   6.607 -1.0277 -4.0326  1.5762
   49MOL   H62632402   0.692   4.028   6.723  2.1489  2.1766  0.8062
   49MOL   H62732403   0.584   4.059   6.577  0.4627 -1.4214 -1.4642
   49MOL   H62832404   0.718   3.939   6.578 -0.4099 -0.0882 -0.5149
   49MOL   C62932405   1.394   4.647   6.007 -0.7465 -0.3597  0.0468
   49MOL   C63032406   1.526   4.720   5.957 -0.8720 -0.1127 -0.2425
   49MOL   C63132407   1.533   4.751   5.806 -0.2242  0.1929 -0.1981
   49MOL   C63232408   1.565   4.632   5.709 -0.2679 -0.4304 -0.3356
   49MOL   C63332409   1.713   4.597   5.706  0.2020  0.1177  0.2318
   49MOL   C63432410   1.744   4.487   5.600 -0.6583 -0.4542  0.6161
   49MOL   C63532411   1.894   4.460   5.585  0.1902  0.5999 -0.4121
   49MOL   C63632412   1.930   4.356   5.476 -0.4038  0.5596  0.1205
   49MOL   C63732413   2.077   4.336   5.444 -0.2306  0.0653 -0.1478
   49MOL   C63832414   2.110   4.231   5.336 -0.6546 -1.2013 -0.0333
   49MOL   C63932415   2.082   4.089   5.378 -0.6818 -0.3363 -0.1128
   49MOL   H64032416   1.391   4.543   5.974  0.6892 -0.6207  0.7049
   49MOL   H64132417   1.311   4.684   5.946 -0.6546 -1.4920 -0.8041
   49MOL   H64232418   1.544   4.811   6.014 -2.0208  0.0975 -0.2030
   49MOL   H64332419   1.439   4.792   5.770 -0.6705 -1.3659 -0.8777
   49MOL   H64432420   1.607   4.830   5.790 -1.3304  0.9202 -1.8379
   49MOL   H64532421   1.524   4.651   5.610 -0.3848 -1.6770 -0.5343
   49MOL   H64632422   1.503   4.547   5.737 -1.6044  0.3349 -0.9448
   49MOL   H64732423   1.737   4.545   5.799 -0.1977 -1.7488 -0.6846
   49MOL   H64832424   1.767   4.691   5.700 -0.7634  0.6099 -1.0505
   49MOL   H64932425   1.694   4.509   5.506  0.6786 -1.5596 -0.3791
   49MOL   H65032426   1.692   4.399   5.637 -1.2485 -0.6436 -0.6389
   49MOL   H65132427   1.945   4.445   5.680 -1.4654 -0.8702  0.2678
   49MOL   H65232428   1.941   4.549   5.542 -0.0869 -0.3207 -2.6488
   49MOL   H65332429   1.878   4.374   5.382  0.2680 -0.4240 -0.4553
   49MOL   H65432430   1.888   4.261   5.510 -0.0739  0.8887  1.4493
   49MOL   H65532431   2.128   4.304   5.536 -2.5078  0.3560  1.2601
   49MOL   H65632432   2.128   4.426   5.408  1.5742 -1.4127 -1.3394
   49MOL   H65732433   2.215   4.231   5.309 -1.0238  1.5951 -1.7661
   49MOL   H65832434   2.060   4.249   5.240 -1.5748  0.9057  0.8194
   49MOL   H65932435   2.087   4.028   5.288  2.6352 -1.3540  0.6735
   49MOL   H66032436   1.983   4.078   5.422 -0.2889 -1.2450  0.5698
   49MOL   H66132437   2.148   4.046   5.454 -0.0559  1.8697  0.6141
   49MOL   H66232438   1.613   4.655   5.969 -1.5383 -1.4330 -2.2609
   50MOL     C132439   0.763   5.884   0.644 -0.3428  0.1066 -0.4526
   50MOL     C232440   0.729   5.740   0.595 -0.6457 -0.5406  0.9315
   50MOL     C332441   0.671   5.751   0.452 -0.0200  0.0077  0.1985
   50MOL     C432442   0.540   5.833   0.437  0.0067 -0.0608 -0.1918
   50MOL     C532443   0.498   5.839   0.292 -0.7038  0.4992  0.1382
   50MOL     C632444   0.364   5.912   0.274  0.8888 -0.2506 -0.3062
   50MOL     C732445   0.316   5.897   0.121 -0.1477  0.4096 -0.0259
   50MOL     C832446   0.191   5.988   0.108  0.0619 -0.0587 -0.4694
   50MOL     C932447   0.226   6.141   0.100 -0.5887  0.9980 -0.7483
   50MOL    C1032448   0.107   6.233   0.066 -0.3544 -0.1391 -0.8424
   50MOL    C1132449   0.158   6.369   0.029 -0.9212 -0.0289 -0.1796
   50MOL    H1232450   0.690   5.921   0.715  0.7024  2.4611 -0.5523
   50MOL    H1332451   0.756   5.966   0.573 -2.0985  0.4391  0.0967
   50MOL    H1432452   0.648   5.704   0.660 -1.4719  0.1681  0.3079
   50MOL    H1532453   0.646   5.654   0.410  2.0742 -0.6253  0.3224
   50MOL    H1632454   0.746   5.794   0.385 -2.3422  0.6996 -2.0276
   50MOL    H1732455   0.545   5.929   0.488  1.8211 -0.1406 -0.1922
   50MOL    H1832456   0.450   5.780   0.468 -0.4650 -0.0165 -1.4311
   50MOL    H1932457   0.569   5.899   0.235  1.7071 -1.0102  1.4664
   50MOL    H2032458   0.494   5.736   0.258 -1.5435  1.2921 -2.3123
   50MOL    H2132459   0.376   6.015   0.310 -1.4269  0.0790 -0.3901
   50MOL    H2232460   0.286   5.871   0.338  0.5334  2.1084  0.8369
   50MOL    H2332461   0.393   5.921   0.048 -0.5633 -0.4656 -0.7551
   50MOL    H2432462   0.282   5.794   0.108  1.7411 -0.1097 -0.9659
   50MOL    H2532463   0.119   5.977   0.189  0.3622  0.8057 -0.0873
   50MOL    H2632464   0.135   5.958   0.020 -0.7232 -0.6326  0.2114
   50MOL    H2732465   0.301   6.146   0.020  0.3854 -2.5756 -0.1561
   50MOL    H2832466   0.276   6.174   0.191  0.2846  2.2516 -1.6543
   50MOL    H2932467   0.035   6.226   0.147  0.3493 -0.3879 -0.2392
   50MOL    H3032468   0.049   6.199   7.682 -1.9326 -0.4079  0.2775
   50MOL    H3132469   0.223   6.407   0.108 -0.7923 -1.7581  0.5736
   50MOL    H3232470   0.211   6.347   7.640  1.5096 -2.9289  1.8244
   50MOL    H3332471   0.070   6.433   0.016 -1.4775 -0.6846  0.2654
   50MOL    H3432472   0.853   5.891   0.706  0.4370  0.6415 -1.6161
   50MOL    C3532473   0.848   5.655   0.591  0.0556 -0.3251 -0.3806
   50MOL    C3632474   0.825   5.508   0.540  0.8910 -0.0145  0.2983
   50MOL    C3732475   0.960   5.437   0.527  0.0507 -0.1543 -0.9018
   50MOL    C3832476   1.052   5.488   0.411 -0.6105  0.2244 -0.6274
   50MOL    C3932477   1.196   5.531   0.469  0.2185 -0.3797  0.7316
   50MOL    C4032478   1.288   5.592   0.360  0.5864 -0.0035 -0.6334
   50MOL    C4132479   1.423   5.629   0.414 -0.4031  0.2102 -0.0501
   50MOL    C4232480   1.530   5.640   0.302 -0.1964 -0.0875  0.0901
   50MOL    C4332481   1.653   5.715   0.356 -0.7060 -0.3379  0.3914
   50MOL    C4432482   1.757   5.737   0.251 -0.2452  0.0139 -0.0223
   50MOL    C4532483   1.845   5.618   0.214  0.4916 -0.7711  0.1742
   50MOL    H4632484   0.898   5.649   0.688 -0.5387  0.6321 -0.0133
   50MOL    H4732485   0.917   5.701   0.521 -2.1400  2.3611 -0.8201
   50MOL    H4832486   0.797   5.519   0.435  2.1693  1.2356  0.0739
   50MOL    H4932487   1.004   5.447   0.626 -0.5067 -1.6624 -0.4979
   50MOL    H5032488   0.932   5.332   0.514 -1.0054  0.0590 -0.3779
   50MOL    H5132489   1.003   5.570   0.361  0.2112  0.3248 -1.2809
   50MOL    H5232490   1.070   5.411   0.336 -1.2107  0.1949 -0.7437
   50MOL    H5332491   1.250   5.448   0.515  0.2281 -0.4029  0.6789
   50MOL    H5432492   1.182   5.609   0.543  2.1901 -0.2100  0.9318
   50MOL    H5532493   1.243   5.678   0.312 -2.2758 -1.0596  0.0442
   50MOL    H5632494   1.296   5.524   0.275 -1.0267  0.8041 -1.4424
   50MOL    H5732495   1.410   5.715   0.479  2.6013  0.1650  0.6713
   50MOL    H5832496   1.454   5.547   0.479 -1.5065  1.6700  2.3760
   50MOL    H5932497   1.477   5.683   0.217  0.7264 -0.6375 -0.7683
   50MOL    H6032498   1.551   5.535   0.284  2.4860  0.8985 -2.9690
   50MOL    H6132499   1.694   5.655   0.436 -2.0296  0.9615  2.0864
   50MOL    H6232500   1.610   5.808   0.393  0.0375  0.0402  0.3008
   50MOL    H6332501   1.723   5.785   0.159 -3.2983 -1.3348  0.3672
   50MOL    H6432502   1.819   5.812   0.300  1.2662 -0.6474 -0.8610
   50MOL    H6532503   1.942   5.626   0.264  0.8286 -0.1778 -0.5600
   50MOL    H6632504   1.804   5.536   0.271 -3.4614  3.4270  3.7101
   50MOL    H6732505   1.858   5.598   0.107 -0.2895 -0.2530 -0.0198
   50MOL    C6832506   0.710   5.425   0.605  0.2897  0.0049 -0.2188
   50MOL    C6932507   0.733   5.361   0.743 -0.0169 -0.1324 -0.0165
   50MOL    C7032508   0.739   5.465   0.857 -0.1296 -0.7809 -0.0619
   50MOL    C7132509   0.598   5.525   0.885 -0.3052  0.2545  0.2211
   50MOL    C7232510   0.598   5.621   1.007  0.2416 -0.4467 -0.0391
   50MOL    C7332511   0.598   5.545   1.136  0.2433 -0.4759  0.2750
   50MOL    C7432512   0.557   5.625   1.259 -0.2509 -0.5932 -0.7232
   50MOL    C7532513   0.551   5.534   1.379 -0.0238 -0.0052 -0.1646
   50MOL    C7632514   0.506   5.603   1.510  0.2872  0.5345 -0.0850
   50MOL    C7732515   0.511   5.513   1.634  0.0463 -0.0647  0.1190
   50MOL    C7832516   0.656   5.471   1.691  0.7103  0.2900  0.5409
   50MOL    H7932517   0.687   5.346   0.533 -2.4108  1.0146 -0.4957
   50MOL    H8032518   0.619   5.483   0.604 -0.5672 -1.3070 -0.1355
   50MOL    H8132519   0.833   5.318   0.743 -0.1228 -0.4123 -1.6820
   50MOL    H8232520   0.813   5.541   0.835 -0.4589 -0.1276  1.0613
   50MOL    H8332521   0.781   5.427   0.949 -1.5665 -1.1340  0.4663
   50MOL    H8432522   0.564   5.584   0.800  1.3492  0.6935 -0.1406
   50MOL    H8532523   0.515   5.456   0.900 -2.3252  2.2806 -1.2976
   50MOL    H8632524   0.509   5.680   0.988  0.2194 -1.2668 -2.7012
   50MOL    H8732525   0.684   5.686   0.992  1.0611 -1.2112  1.2339
   50MOL    H8832526   0.512   5.479   1.128 -1.0355  1.2407 -0.4548
   50MOL    H8932527   0.678   5.472   1.129 -1.5482 -2.4961  0.4537
   50MOL    H9032528   0.460   5.662   1.225 -0.7759 -1.4711 -0.2104
   50MOL    H9132529   0.630   5.700   1.288 -1.3531 -0.3200  1.4234
   50MOL    H9232530   0.479   5.454   1.367  0.2378 -0.1311 -0.9991
   50MOL    H9332531   0.641   5.479   1.405 -0.2495 -0.6333 -0.6910
   50MOL    H9432532   0.567   5.692   1.525  1.2940 -0.5409  2.4239
   50MOL    H9532533   0.404   5.643   1.501 -0.1363 -0.9213 -2.0678
   50MOL    H9632534   0.468   5.574   1.713  0.2075 -1.4691  1.3066
   50MOL    H9732535   0.449   5.425   1.619  1.2798 -0.7639 -1.0640
   50MOL    H9832536   0.715   5.421   1.614 -0.8774 -3.3231  1.5656
   50MOL    H9932537   0.635   5.406   1.775  0.9985 -0.6709 -0.1270
   50MOL   H10032538   0.707   5.561   1.726 -0.1655  1.2273 -0.5007
   50MOL   C10132539   0.633   5.245   0.764 -0.1392 -0.3430 -0.8001
   50MOL   C10232540   0.649   5.157   0.885 -0.1596  0.1666 -0.7767
   50MOL   C10332541   0.770   5.058   0.875  0.2116 -0.4434  0.1453
   50MOL   C10432542   0.801   4.992   1.003  0.1738 -0.6396  0.9894
   50MOL   C10532543   0.828   5.077   1.128 -0.4764  0.1579 -0.5189
   50MOL   C10632544   0.960   5.154   1.110  0.2458 -0.6433  0.0980
   50MOL   C10732545   0.992   5.231   1.247  0.6587  0.4130  0.5878
   50MOL   C10832546   0.913   5.358   1.271 -0.2595  0.5114 -0.9433
   50MOL   C10932547   0.984   5.447   1.372  0.4098  0.4124 -0.1795
   50MOL   C11032548   0.940   5.596   1.384  0.7635  0.2300  1.0195
   50MOL   C11132549   0.934   5.669   1.247  0.6957  0.2666  0.1393
   50MOL   H11232550   0.533   5.287   0.752  0.1250  0.2497 -0.9469
   50MOL   H11332551   0.647   5.171   0.685  1.3690  0.2777 -1.1286
   50MOL   H11432552   0.665   5.231   0.964 -2.5896 -0.6567  0.5426
   50MOL   H11532553   0.756   4.989   0.792  0.7807  1.1009 -1.2838
   50MOL   H11632554   0.857   5.114   0.840 -1.0083  2.0364  0.9123
   50MOL   H11732555   0.712   4.932   1.017 -1.1652  1.0113 -0.1580
   50MOL   H11832556   0.883   4.923   0.982 -0.0355 -0.6698  0.2447
   50MOL   H11932557   0.745   5.141   1.157 -2.5797 -2.1772 -1.2039
   50MOL   H12032558   0.836   5.008   1.212  2.4739 -0.8669 -1.5783
   50MOL   H12132559   1.035   5.094   1.059 -0.9203 -2.2507  0.2341
   50MOL   H12232560   0.942   5.232   1.036  2.8583 -1.2091 -1.2201
   50MOL   H12332561   1.100   5.248   1.255  0.9188 -1.8191  2.0718
   50MOL   H12432562   0.965   5.172   1.334  0.5923  1.1055  1.0386
   50MOL   H12532563   0.896   5.406   1.175  1.0608 -0.3142 -1.6099
   50MOL   H12632564   0.819   5.314   1.303  0.8301 -0.0525  1.6088
   50MOL   H12732565   0.980   5.405   1.473 -1.1980  1.2619  0.1207
   50MOL   H12832566   1.093   5.445   1.362  0.5561 -0.9157  1.4707
   50MOL   H12932567   1.010   5.647   1.450  1.0140 -1.6218  2.2430
   50MOL   H13032568   0.850   5.608   1.445  0.9843 -0.9576  1.5965
   50MOL   H13132569   0.906   5.771   1.274 -0.0265 -0.2013  1.2323
   50MOL   H13232570   1.035   5.676   1.206  0.5576  2.0406  0.0751
   50MOL   H13332571   0.861   5.626   1.179 -2.4440  1.0194  2.8752
   50MOL   C13432572   0.514   5.077   0.901 -0.7245 -0.3023  0.3447
   50MOL   C13532573   0.389   5.161   0.938  0.2235 -0.0941 -0.3897
   50MOL   C13632574   0.332   5.125   1.080  0.2348  0.3981  0.6125
   50MOL   C13732575   0.434   5.156   1.193  0.0391  0.2003  0.2414
   50MOL   C13832576   0.370   5.141   1.332 -0.3292  0.8614  0.3708
   50MOL   C13932577   0.482   5.138   1.440  0.1835 -0.2051  0.1502
   50MOL   C14032578   0.577   5.019   1.426  0.1316  0.9011 -0.2302
   50MOL   C14132579   0.651   4.994   1.554  0.7230 -0.5170  0.5319
   50MOL   C14232580   0.699   4.850   1.572 -0.1349  0.7811 -0.2140
   50MOL   C14332581   0.591   4.754   1.631  0.0766  0.1545  0.1218
   50MOL   C14432582   0.660   4.629   1.685  0.4668  0.2726 -0.1969
   50MOL   H14532583   0.503   5.014   0.813  2.7667  0.3884 -0.6776
   50MOL   H14632584   0.527   5.000   0.977 -0.0791  1.3902  2.0038
   50MOL   H14732585   0.421   5.265   0.947 -0.6485  0.2442 -1.1466
   50MOL   H14832586   0.320   5.016   1.082  1.1687  0.2984  2.3045
   50MOL   H14932587   0.238   5.172   1.108 -0.1587 -1.2319  2.1011
   50MOL   H15032588   0.524   5.094   1.186  0.4049  0.8488 -0.8686
   50MOL   H15132589   0.477   5.257   1.194  1.7793 -0.5134  2.4258
   50MOL   H15232590   0.303   5.221   1.363  1.0056  1.7905  0.8874
   50MOL   H15332591   0.321   5.044   1.338 -0.1681  0.7922  0.5902
   50MOL   H15432592   0.545   5.227   1.443  0.9104 -0.6413 -1.3912
   50MOL   H15532593   0.431   5.135   1.536  0.1818  0.3460  0.1652
   50MOL   H15632594   0.528   4.924   1.404  1.1207  0.2896  0.1735
   50MOL   H15732595   0.641   5.030   1.339 -3.4014  1.9353 -2.8010
   50MOL   H15832596   0.727   5.072   1.561  1.0843 -0.9739  1.7611
   50MOL   H15932597   0.582   5.010   1.636 -3.3552  0.0342 -2.8696
   50MOL   H16032598   0.733   4.806   1.478 -0.5497 -1.9013  0.8736
   50MOL   H16132599   0.788   4.845   1.635  0.8199  0.5412 -1.5443
   50MOL   H16232600   0.547   4.810   1.714  1.6704  0.7655  0.5582
   50MOL   H16332601   0.511   4.723   1.564  1.7179  0.5145 -2.0239
   50MOL   H16432602   0.737   4.659   1.756  0.2861  1.1961 -0.3941
   50MOL   H16532603   0.716   4.575   1.608  2.5619  0.5469  1.0930
   50MOL   H16632604   0.582   4.572   1.735 -0.5932  2.1046  0.2746
   50MOL   C16732605   0.286   5.166   0.819 -0.0814  0.3671  0.0588
   50MOL   C16832606   0.164   5.266   0.844  0.4604 -0.4800  0.1652
   50MOL   C16932607   0.060   5.238   0.733  0.4670  0.6650  0.2276
   50MOL   C17032608   7.676   5.104   0.747  0.0845  0.0748  0.4836
   50MOL   C17132609   7.569   5.088   0.637  0.1339  0.6663  0.1563
   50MOL   C17232610   7.477   4.974   0.661 -0.9044 -0.7134 -1.1838
   50MOL   C17332611   7.366   4.952   0.549 -0.3454 -0.3257  0.4002
   50MOL   C17432612   7.249   4.862   0.579 -0.4966 -0.2874 -0.2635
   50MOL   C17532613   7.151   4.851   0.465  0.2653 -0.1958  0.4921
   50MOL   C17632614   7.014   4.794   0.510  0.0677 -0.6283 -0.1179
   50MOL   C17732615   6.900   4.795   0.412 -0.2428 -0.5296  0.3075
   50MOL   H17832616   0.334   5.198   0.726 -1.0835  1.2252 -0.1791
   50MOL   H17932617   0.259   5.061   0.805 -1.1039  0.4498  1.4125
   50MOL   H18032618   0.114   5.245   0.938  0.9086  1.3780  0.8444
   50MOL   H18132619   0.114   5.241   0.638 -0.1780  1.3266 -0.1208
   50MOL   H18232620   7.702   5.328   0.734 -2.2149 -1.1161  0.7575
   50MOL   H18332621   0.047   5.025   0.731  1.6342  1.6689 -0.4868
   50MOL   H18432622   7.643   5.105   0.851 -2.5368 -0.2833 -0.3359
   50MOL   H18532623   7.602   5.082   0.533 -0.0243 -3.1950  0.2640
   50MOL   H18632624   7.502   5.173   0.628 -1.2058 -0.5016 -1.0620
   50MOL   H18732625   7.541   4.885   0.653  0.3080  0.1171 -0.9270
   50MOL   H18832626   7.442   4.981   0.764  1.6512  4.1646 -0.5125
   50MOL   H18932627   7.412   4.904   0.463  1.4700 -1.5611  2.0219
   50MOL   H19032628   7.328   5.048   0.514  2.3888 -0.1472 -2.2506
   50MOL   H19132629   7.287   4.763   0.603  0.8930 -0.4627 -3.0638
   50MOL   H19232630   7.207   4.916   0.664  0.9699  0.3160  0.0955
   50MOL   H19332631   7.190   4.785   0.388  0.4597 -0.4612  0.8148
   50MOL   H19432632   7.148   4.946   0.411 -2.0773 -1.3991 -1.5445
   50MOL   H19532633   6.974   4.851   0.594 -0.6279 -0.9343 -0.2367
   50MOL   H19632634   7.044   4.697   0.549  1.1142  0.1175  0.9534
   50MOL   H19732635   6.932   4.756   0.316 -2.6651 -0.6668 -0.4618
   50MOL   H19832636   6.860   4.895   0.397 -1.4172 -1.0943 -0.3134
   50MOL   H19932637   6.812   4.741   0.445 -1.2736  0.9213 -0.0068
   50MOL   C20032638   0.204   5.410   0.847 -0.3632  0.5127 -0.2933
   50MOL   C20132639   0.103   5.512   0.906 -0.1035  0.1313 -0.4224
   50MOL   C20232640   0.112   5.646   0.831 -0.1535 -0.2843 -0.2652
   50MOL   C20332641   0.259   5.704   0.836  0.3123  0.4378  0.6116
   50MOL   C20432642   0.260   5.848   0.785 -0.3458 -0.3999  0.3438
   50MOL   C20532643   0.406   5.898   0.772 -0.0522  0.0182  0.6275
   50MOL   C20632644   0.416   6.052   0.810 -0.7399 -0.1435  0.2357
   50MOL   C20732645   0.344   6.141   0.701 -1.1891 -0.0119 -0.0110
   50MOL   C20832646   0.345   6.290   0.727 -0.2490 -0.5253 -0.5692
   50MOL   C20932647   0.244   6.368   0.635  0.1324 -0.2635  0.0385
   50MOL   C21032648   0.293   6.360   0.484  0.2252 -0.6440  0.3736
   50MOL   H21132649   0.299   5.422   0.899 -1.4704 -0.4378  2.0114
   50MOL   H21232650   0.226   5.424   0.741  0.0976 -0.8435 -0.3843
   50MOL   H21332651   0.000   5.479   0.889 -0.2944  1.1711 -1.3282
   50MOL   H21432652   0.033   5.711   0.865  0.1638 -0.2241  0.3606
   50MOL   H21532653   0.073   5.630   0.730 -2.9609  1.4502  0.5160
   50MOL   H21632654   0.338   5.638   0.801 -0.3667 -0.1085  0.0856
   50MOL   H21732655   0.286   5.719   0.940  2.1779 -0.5941  0.2852
   50MOL   H21832656   0.197   5.904   0.854 -0.4424 -1.8440  1.4505
   50MOL   H21932657   0.205   5.856   0.692 -0.9011  3.0109  0.9014
   50MOL   H22032658   0.469   5.849   0.846 -0.5796 -0.6528  0.6395
   50MOL   H22132659   0.454   5.874   0.678  0.0543 -1.8692  1.1426
   50MOL   H22232660   0.521   6.081   0.818 -0.8396  1.1643 -2.7185
   50MOL   H22332661   0.361   6.077   0.901  0.4942  2.1744  0.3837
   50MOL   H22432662   0.240   6.109   0.702 -0.9598 -0.7287  1.2664
   50MOL   H22532663   0.384   6.112   0.604  0.6343 -0.1960  0.7773
   50MOL   H22632664   0.450   6.316   0.709 -1.1775  2.0657 -2.5270
   50MOL   H22732665   0.317   6.314   0.830  0.4694  1.2857 -0.7796
   50MOL   H22832666   0.149   6.315   0.636  0.3970 -0.7336  2.8910
   50MOL   H22932667   0.230   6.473   0.663 -0.9916 -0.9758  2.1882
   50MOL   H23032668   0.397   6.393   0.491  0.9839 -2.6560 -1.0744
   50MOL   H23132669   0.230   6.429   0.428 -0.2280 -0.7990  0.6861
   50MOL   H23232670   0.280   6.254   0.464 -1.0483 -0.1464 -1.5265
   50MOL   C23332671   0.118   5.522   1.065 -0.0205 -0.4156  0.3328
   50MOL   C23432672   0.014   5.616   1.137 -0.5895  0.5513  0.0459
   50MOL   C23532673   0.069   5.649   1.282 -0.1319  0.0145 -0.4192
   50MOL   C23632674   0.082   5.523   1.371  0.3403  0.3743  0.2892
   50MOL   C23732675   0.065   5.550   1.521  0.1418 -1.0146  0.1937
   50MOL   C23832676   0.105   5.430   1.603 -0.1160 -0.4095  0.1193
   50MOL   C23932677   0.116   5.456   1.752  0.7226 -0.6576  0.0028
   50MOL   C24032678   7.683   5.454   1.828 -0.6068  0.2581  0.1591
   50MOL   C24132679   7.642   5.313   1.861 -1.3505 -0.8341  0.1367
   50MOL   C24232680   7.498   5.301   1.912  0.1119 -0.0878 -0.2792
   50MOL   C24332681   7.406   5.318   1.792  0.2524  0.4941  0.8820
   50MOL   H24432682   0.215   5.561   1.095 -0.5500 -0.1583  1.7759
   50MOL   H24532683   0.113   5.425   1.114  0.2595 -0.9196 -0.6203
   50MOL   H24632684   0.033   5.720   1.112  2.9278  0.4375  1.9497
   50MOL   H24732685   0.169   5.693   1.280 -0.5765  1.1819  1.7731
   50MOL   H24832686   0.005   5.724   1.328  0.3309 -0.2541  0.6842
   50MOL   H24932687   0.177   5.477   1.343  0.5976  1.3878 -0.5578
   50MOL   H25032688   0.002   5.458   1.337 -0.7458  2.4499 -1.2581
   50MOL   H25132689   7.666   5.585   1.532  0.7050  0.0125  2.5299
   50MOL   H25232690   0.139   5.627   1.541 -0.8420  0.3159 -1.1332
   50MOL   H25332691   0.202   5.390   1.572 -0.0288 -0.9018  1.0173
   50MOL   H25432692   0.043   5.345   1.574  1.5127 -1.3057 -0.8994
   50MOL   H25532693   0.188   5.382   1.785  1.7600 -0.0555 -0.8925
   50MOL   H25632694   0.166   5.552   1.760  0.9129 -0.9837  3.6232
   50MOL   H25732695   7.687   5.515   1.919  3.7185  0.4166 -0.0483
   50MOL   H25832696   7.601   5.506   1.779 -1.3950 -0.7556  0.3673
   50MOL   H25932697   7.677   5.239   1.789  2.7743 -0.8471  2.0394
   50MOL   H26032698   7.703   5.288   1.948 -0.0166 -0.2919 -0.6214
   50MOL   H26132699   7.476   5.379   1.986 -0.6745 -0.0250 -0.5746
   50MOL   H26232700   7.486   5.200   1.950  1.8161  0.4610  1.8818
   50MOL   H26332701   7.442   5.264   1.704 -0.3383  0.6764  0.5241
   50MOL   H26432702   7.403   5.422   1.758  1.0093  0.7597  1.6226
   50MOL   H26532703   7.302   5.287   1.807  0.2077 -0.4499 -1.1712
   50MOL   C26632704   7.565   5.580   1.146 -0.0714 -0.3843 -0.2863
   50MOL   C26732705   7.483   5.627   1.027  0.0292 -0.4439  0.1273
   50MOL   C26832706   7.405   5.757   1.060  0.2955  0.0859 -0.4846
   50MOL   C26932707   7.488   5.881   1.073  0.3576 -0.2386  0.3067
   50MOL   C27032708   7.394   6.004   1.060 -0.3601 -0.6259 -0.1633
   50MOL   C27132709   7.464   6.141   1.078  0.8564  0.0090 -0.3178
   50MOL   C27232710   7.400   6.257   0.999 -0.0202  0.0964 -0.2276
   50MOL   C27332711   7.493   6.368   0.950  0.4042 -0.1368 -0.0682
   50MOL   C27432712   7.521   6.488   1.039  0.6873  0.1602 -0.2422
   50MOL   C27532713   7.404   6.574   1.070  0.3024 -1.0746 -0.1427
   50MOL   C27632714   7.434   6.698   1.149 -0.1010  0.4214 -0.7442
   50MOL   H27732715   7.519   5.625   1.234 -1.8443  1.2877 -2.0272
   50MOL   H27832716   7.566   5.473   1.165 -0.6394 -0.4440 -0.5971
   50MOL   H27932717   7.557   5.644   0.949 -1.1024  1.9109 -0.4460
   50MOL   H28032718   7.349   5.771   0.967  2.7364  1.5706 -1.7876
   50MOL   H28132719   7.346   5.741   1.150 -0.5105  2.5328 -0.5531
   50MOL   H28232720   7.558   5.866   0.991 -2.0385 -1.5003 -1.5856
   50MOL   H28332721   7.539   5.884   1.169 -0.5873 -1.7417  0.8731
   50MOL   H28432722   7.314   5.981   1.131 -0.2546  1.3709  0.6417
   50MOL   H28532723   7.344   6.001   0.963  0.9729 -0.3869 -0.8701
   50MOL   H28632724   7.563   6.140   1.033  1.5020  4.8610  0.7147
   50MOL   H28732725   7.486   6.179   1.178  2.0589  0.1650 -0.6280
   50MOL   H28832726   7.381   6.210   0.902  1.7471  0.1374 -0.6026
   50MOL   H28932727   7.320   6.303   1.057  0.0316 -2.6612  2.1564
   50MOL   H29032728   7.449   6.410   0.860  1.5766  0.8350 -0.2043
   50MOL   H29132729   7.582   6.321   0.909  0.5725 -0.8397  1.0615
   50MOL   H29232730   7.572   6.455   1.129 -2.7099 -0.8856  1.3496
   50MOL   H29332731   7.603   6.548   0.999 -0.5521  0.4548 -2.4314
   50MOL   H29432732   7.329   6.519   1.126 -2.0151  0.0735 -2.0007
   50MOL   H29532733   7.361   6.605   0.975 -0.0942  2.7922  1.2104
   50MOL   H29632734   7.467   6.653   1.242 -2.2030  0.0035 -0.1778
   50MOL   H29732735   7.353   6.771   1.156 -0.3555  0.3248 -2.4051
   50MOL   H29832736   7.522   6.751   1.113  0.1748  0.3374 -0.1902
   50MOL   C29932737   7.375   5.519   0.993  0.2706  0.0731  0.4310
   50MOL   C30032738   7.280   5.557   0.881 -0.2588  0.2542 -0.0870
   50MOL   C30132739   7.171   5.447   0.867  0.3832  0.6147  0.7519
   50MOL   C30232740   7.220   5.319   0.798  0.1696  0.3094  0.2546
   50MOL   C30332741   7.107   5.234   0.731  0.8578  0.7605  0.3628
   50MOL   C30432742   7.074   5.295   0.601  0.8507 -0.9684  0.4520
   50MOL   C30532743   6.975   5.214   0.516 -0.7593 -0.2932 -0.4629
   50MOL   C30632744   6.922   5.292   0.392  0.4262 -0.5413 -0.2222
   50MOL   C30732745   6.845   5.215   0.280  0.7952 -0.2077 -0.2441
   50MOL   C30832746   6.808   5.307   0.157 -0.9325  0.7601 -0.0481
   50MOL   C30932747   6.679   5.374   0.171  0.5945  0.0668 -0.0820
   50MOL   H31032748   7.326   5.498   1.088  0.6557 -1.4130  0.3052
   50MOL   H31132749   7.422   5.422   0.976 -0.3583  0.2811 -2.9089
   50MOL   H31232750   7.218   5.641   0.914 -0.4190  0.1357 -0.0848
   50MOL   H31332751   7.126   5.423   0.963  1.4084 -2.1792  0.5856
   50MOL   H31432752   7.093   5.491   0.805  1.6272 -0.2466 -1.4724
   50MOL   H31532753   7.305   5.328   0.730  0.4045 -2.8052  0.0813
   50MOL   H31632754   7.265   5.253   0.873  3.4914  1.7828 -0.3623
   50MOL   H31732755   7.133   5.129   0.717 -0.5919  0.4972 -0.4516
   50MOL   H31832756   7.016   5.230   0.790 -0.0848  1.3568 -1.0100
   50MOL   H31932757   7.164   5.334   0.554  0.9701  0.1361  1.5645
   50MOL   H32032758   7.015   5.384   0.625  0.9155 -0.8405  0.1398
   50MOL   H32132759   7.038   5.131   0.484 -1.1370 -1.0209  0.6654
   50MOL   H32232760   6.898   5.168   0.578 -0.0384 -0.7934  0.0619
   50MOL   H32332761   7.006   5.340   0.343  1.6667 -0.8736  1.5276
   50MOL   H32432762   6.855   5.369   0.430 -1.3844 -2.7234  1.2140
   50MOL   H32532763   6.752   5.177   0.323  0.7074 -0.6149 -0.7850
   50MOL   H32632764   6.910   5.136   0.241  0.0932 -0.4940 -0.8512
   50MOL   H32732765   6.798   5.244   0.068 -0.4570  0.3719  0.1699
   50MOL   H32832766   6.887   5.374   0.123 -0.1386 -0.5134 -0.7597
   50MOL   H32932767   6.684   5.450   0.249 -0.6678 -0.2059  0.2735
   50MOL   H33032768   6.660   5.421   0.074 -0.5251  0.2204  0.2019
   50MOL   H33132769   6.585   5.320   0.184  1.3168 -1.2665 -0.4065
   50MOL   C33232770   7.356   5.588   0.748  0.2962 -0.2923 -0.4663
   50MOL   C33332771   7.269   5.618   0.625 -0.2834 -0.4946 -0.2895
   50MOL   C33432772   7.360   5.645   0.500  0.0277  0.0559 -0.0381
   50MOL   C33532773   7.440   5.519   0.451 -0.4192 -0.1309  0.1985
   50MOL   C33632774   7.492   5.538   0.304 -0.3755 -0.4812  0.7321
   50MOL   C33732775   7.485   5.415   0.208  0.3869  0.1474 -0.2544
   50MOL   C33832776   7.516   5.454   0.067 -0.1512 -0.1990 -0.7092
   50MOL   C33932777   7.535   5.332   7.679 -0.6034 -0.1592  0.3530
   50MOL   C34032778   7.596   5.376   7.539 -0.6656 -0.1257  0.2183
   50MOL   C34132779   7.636   5.263   7.454  0.2025  0.0011  0.0554
   50MOL   C34232780   0.043   5.301   7.361  0.7638 -0.6603  0.1274
   50MOL   H34332781   7.402   5.685   0.765  1.0350 -0.2443 -2.6084
   50MOL   H34432782   7.429   5.509   0.727 -1.1755 -1.0944 -2.7970
   50MOL   H34532783   7.216   5.524   0.609  1.2475 -1.1708 -1.5442
   50MOL   H34632784   7.430   5.727   0.517  0.0871 -0.0185  0.0809
   50MOL   H34732785   7.299   5.665   0.412  1.2675 -0.2530 -0.9787
   50MOL   H34832786   7.513   5.490   0.526 -1.7192  0.0206  1.5392
   50MOL   H34932787   7.373   5.433   0.445  1.7821 -1.8877  0.4345
   50MOL   H35032788   7.440   5.624   0.263  1.2339 -0.0938 -0.5448
   50MOL   H35132789   7.596   5.568   0.316 -0.7171  0.4553  1.3339
   50MOL   H35232790   7.384   5.375   0.212 -0.5807  2.6280  0.9523
   50MOL   H35332791   7.553   5.337   0.245  1.2618  0.6874 -0.7023
   50MOL   H35432792   7.607   5.514   0.065 -0.6288  0.5203 -0.8457
   50MOL   H35532793   7.442   5.519   0.020 -0.4615  1.1346  1.5808
   50MOL   H35632794   7.612   5.266   0.014  0.0116  0.5474  0.3275
   50MOL   H35732795   7.444   5.273   7.666  0.2468 -1.1766 -1.1877
   50MOL   H35832796   7.681   5.444   7.549  0.7600 -1.3334 -2.9674
   50MOL   H35932797   7.518   5.425   7.482  1.4591  2.9965 -0.1132
   50MOL   H36032798   7.548   5.230   7.398 -1.1770  1.3110  1.4170
   50MOL   H36132799   7.664   5.177   7.515 -1.2453  0.3902  1.2720
   50MOL   H36232800   0.126   5.341   7.419  2.4912 -2.4396 -1.0729
   50MOL   H36332801   0.088   5.215   7.312  4.2902  2.0542 -1.6189
   50MOL   H36432802   0.006   5.368   7.284  1.1514 -0.7419 -0.1278
   50MOL   C36532803   7.170   5.738   0.657 -0.1013  0.1712 -0.1066
   50MOL   C36632804   7.080   5.789   0.543 -0.5138  0.0007  0.0132
   50MOL   C36732805   6.986   5.678   0.491 -0.3523  0.3131  0.2610
   50MOL   C36832806   6.932   5.698   0.350  0.6837 -0.5666  0.5757
   50MOL   C36932807   7.042   5.720   0.242  0.3134 -0.1455 -0.6383
   50MOL   C37032808   7.001   5.757   0.101  0.0192 -0.1563  0.0086
   50MOL   C37132809   6.950   5.649   0.007  0.6238 -0.6451  0.2529
   50MOL   C37232810   7.052   5.541   7.666  0.1765  0.1657 -0.0040
   50MOL   C37332811   7.019   5.469   7.531  0.4954 -0.1479  0.4010
   50MOL   C37432812   7.143   5.390   7.482 -0.3387 -0.7003  1.1096
   50MOL   C37532813   7.146   5.245   7.528  0.5548  0.4486 -0.1745
   50MOL   H37632814   7.101   5.702   0.734  1.5444 -1.2877  0.7173
   50MOL   H37732815   7.224   5.827   0.690 -0.4462  0.2614  0.2205
   50MOL   H37832816   7.148   5.823   0.465  0.6350 -0.8267  0.6429
   50MOL   H37932817   6.905   5.655   0.560  0.0740  1.0054  1.0046
   50MOL   H38032818   7.043   5.585   0.487  0.1458  0.6369 -0.2339
   50MOL   H38132819   6.852   5.771   0.338  0.9028 -0.5251 -0.7916
   50MOL   H38232820   6.875   5.609   0.323 -1.8914  0.9960  0.8195
   50MOL   H38332821   7.097   5.626   0.232  2.1174  1.0232 -2.0797
   50MOL   H38432822   7.097   5.811   0.264  0.0798 -0.1979  0.1867
   50MOL   H38532823   7.093   5.801   0.061  0.5616  1.0399  2.4732
   50MOL   H38632824   6.931   5.839   0.096 -0.1476 -0.3636 -1.4731
   50MOL   H38732825   6.859   5.601   0.046  0.6732 -1.3008 -0.4260
   50MOL   H38832826   6.917   5.703   7.622  1.0012 -2.0536 -0.7623
   50MOL   H38932827   7.075   5.475   0.047 -2.4340  0.4973  1.0184
   50MOL   H39032828   7.148   5.590   7.652  0.4258  0.2634  1.8287
   50MOL   H39132829   6.927   5.411   7.519  1.6308 -1.9156  0.0279
   50MOL   H39232830   6.994   5.550   7.463  0.6661  0.1390  0.6803
   50MOL   H39332831   7.135   5.379   7.374 -0.1098 -2.6453  1.2648
   50MOL   H39432832   7.233   5.437   7.521 -0.9074  1.7856 -0.4649
   50MOL   H39532833   7.129   5.251   7.635 -0.6647  1.2865 -0.3933
   50MOL   H39632834   7.231   5.181   7.503 -1.4608 -3.2659  2.1054
   50MOL   H39732835   7.058   5.208   7.474  1.2645 -0.3609 -0.7804
   50MOL   C39832836   6.999   5.904   0.592  0.4258 -0.4460 -0.4840
   50MOL   C39932837   6.959   6.013   0.496 -0.3439 -0.1697  0.7709
   50MOL   C40032838   7.074   6.106   0.455  0.0298  0.2842  0.6752
   50MOL   C40132839   7.154   6.172   0.567 -0.0106  0.3653  0.5063
   50MOL   C40232840   7.270   6.247   0.502 -0.1895 -0.2125  0.0918
   50MOL   C40332841   7.369   6.323   0.588  0.1838  0.1052 -0.9956
   50MOL   C40432842   7.451   6.409   0.495 -0.0777 -0.0322  0.4879
   50MOL   C40532843   7.558   6.493   0.569  0.0941  0.5390 -0.2797
   50MOL   C40632844   7.495   6.608   0.647  0.4396 -0.4800  0.1038
   50MOL   C40732845   7.395   6.703   0.582  0.1182  0.2153 -0.0651
   50MOL   C40832846   7.351   6.811   0.668  0.8121 -0.7878 -0.7703
   50MOL   H40932847   7.047   5.961   0.672 -0.2857 -0.8815  0.2688
   50MOL   H41032848   6.904   5.884   0.643  0.7385  0.5296  0.5134
   50MOL   H41132849   6.916   5.959   0.412  0.0210  0.5009  0.1405
   50MOL   H41232850   7.036   6.176   0.381  4.1661  1.1385 -0.7748
   50MOL   H41332851   7.139   6.041   0.396  0.6125  2.0768 -0.6710
   50MOL   H41432852   7.093   6.242   0.624  0.2676 -0.6549  2.0703
   50MOL   H41532853   7.193   6.106   0.644 -1.8517 -2.3458 -0.7740
   50MOL   H41632854   7.343   6.193   0.442 -0.3791 -0.0141 -0.3171
   50MOL   H41732855   7.229   6.319   0.431  0.9037  0.4834  0.1464
   50MOL   H41832856   7.422   6.257   0.657 -1.0415  0.0935 -0.0314
   50MOL   H41932857   7.314   6.391   0.654  0.8367 -0.0946 -0.2457
   50MOL   H42032858   7.497   6.343   0.421 -2.2305 -0.1402 -0.7880
   50MOL   H42132859   7.388   6.477   0.438  1.0300  0.2606 -0.4200
   50MOL   H42232860   7.624   6.535   0.494  1.8064 -0.0831  0.8533
   50MOL   H42332861   7.620   6.437   0.639  0.7162 -0.5158 -1.6624
   50MOL   H42432862   7.433   6.575   0.730  0.6763 -0.0644  0.4508
   50MOL   H42532863   7.573   6.666   0.695 -0.6454 -0.2680  1.6389
   50MOL   H42632864   7.314   6.644   0.540 -1.2907  1.0518  1.4083
   50MOL   H42732865   7.443   6.754   0.498 -0.2556  4.2769  2.0357
   50MOL   H42832866   7.324   6.773   0.767  0.0708 -0.0334 -0.6848
   50MOL   H42932867   7.267   6.857   0.617  1.0718  0.3018 -0.2234
   50MOL   H43032868   7.427   6.888   0.684 -0.5420  0.3344  0.3779
   50MOL   C43132869   6.844   6.091   0.550  0.5757 -0.8987  0.2312
   50MOL   C43232870   6.766   6.185   0.458 -1.0284 -0.3022 -0.0145
   50MOL   C43332871   6.714   6.122   0.323 -0.7098  0.1743 -1.2277
   50MOL   C43432872   6.622   6.007   0.346 -0.2012  0.7559 -0.6879
   50MOL   C43532873   6.573   5.944   0.221  0.5630 -0.6936 -0.0051
   50MOL   C43632874   6.489   5.820   0.249  0.0154  0.0169  1.0067
   50MOL   C43732875   6.447   5.753   0.118 -0.5927  0.3252  0.9404
   50MOL   C43832876   6.369   5.628   0.154 -0.5542 -0.0144 -0.2530
   50MOL   C43932877   6.298   5.555   0.043  0.1418  0.4797 -0.1258
   50MOL   C44032878   6.204   5.446   0.089  0.0320  0.6860 -0.4153
   50MOL   C44132879   6.069   5.509   0.145 -0.5820 -0.3203 -0.3942
   50MOL   H44232880   6.882   6.145   0.637  1.6357  1.6578 -1.7552
   50MOL   H44332881   6.762   6.031   0.590 -1.0076  0.7367 -0.4749
   50MOL   H44432882   6.673   6.208   0.509 -0.8108  0.9167 -0.1502
   50MOL   H44532883   6.651   6.191   0.267 -0.3587  0.0504 -1.7762
   50MOL   H44632884   6.801   6.092   0.265  0.3114  0.3858  0.1813
   50MOL   H44732885   6.540   6.045   0.407 -0.1790 -0.1873 -0.0786
   50MOL   H44832886   6.669   5.923   0.397 -0.7203 -1.0462 -3.0679
   50MOL   H44932887   6.656   5.933   0.152  1.3524 -1.8598  1.1016
   50MOL   H45032888   6.509   6.021   0.180  0.5043 -0.7105  0.0536
   50MOL   H45132889   6.404   5.841   0.313  0.8683  2.7977  1.3212
   50MOL   H45232890   6.550   5.752   0.309 -0.2780  0.7749  2.1800
   50MOL   H45332891   6.542   5.725   0.072  0.8976 -0.0330  4.0625
   50MOL   H45432892   6.390   5.820   0.053  0.5496 -0.9146 -1.4025
   50MOL   H45532893   6.439   5.565   0.209 -0.7919 -0.1032 -0.0504
   50MOL   H45632894   6.292   5.658   0.225 -4.2964 -2.7009 -2.9810
   50MOL   H45732895   6.375   5.514   7.680  1.9311  1.4405  1.3186
   50MOL   H45832896   6.242   5.625   7.684 -1.8169  0.1023  1.1716
   50MOL   H45932897   6.260   5.389   0.164  0.9864  0.0504 -1.5934
   50MOL   H46032898   6.197   5.382   0.002 -0.7167 -2.6218  1.9885
   50MOL   H46132899   6.038   5.584   0.073  1.4118  0.5081 -0.4105
   50MOL   H46232900   5.982   5.445   0.160 -1.8034  0.9371 -1.9267
   50MOL   H46332901   6.083   5.559   0.240  1.9277 -0.9885 -0.3712
   50MOL   C46432902   6.830   6.329   0.447  0.3300 -0.0412  0.5748
   50MOL   C46532903   6.744   6.459   0.425 -0.4081  0.0675  0.0047
   50MOL   C46632904   6.630   6.467   0.532 -0.2343  0.2069  0.8536
   50MOL   C46732905   6.677   6.459   0.673  0.6913 -0.2984 -0.1225
   50MOL   C46832906   6.550   6.486   0.771 -0.2109  0.3582  0.8324
   50MOL   C46932907   6.574   6.447   0.922  0.0518  0.1382  0.1903
   50MOL   C47032908   6.572   6.297   0.944  0.1987  0.3078 -0.0657
   50MOL   C47132909   6.542   6.255   1.083 -0.3904 -0.0619  0.0875
   50MOL   C47232910   6.502   6.104   1.102 -0.4942  0.0814 -0.6195
   50MOL   C47332911   6.618   6.018   1.152  0.7573 -0.3889  0.0805
   50MOL   C47432912   6.696   5.962   1.034 -0.1275 -0.2098  0.0022
   50MOL   H47532913   6.914   6.321   0.379 -0.6597 -1.5728 -0.5207
   50MOL   H47632914   6.876   6.353   0.543  1.0644 -2.2440  0.7958
   50MOL   H47732915   6.693   6.453   0.329 -0.3275  1.4975 -0.1407
   50MOL   H47832916   6.555   6.393   0.506 -0.1107 -0.2666  1.8222
   50MOL   H47932917   6.590   6.568   0.519 -2.0617 -0.8239 -1.8439
   50MOL   H48032918   6.711   6.356   0.688 -0.8282 -0.5989  1.3518
   50MOL   H48132919   6.757   6.529   0.697 -0.6533  1.4541 -0.6709
   50MOL   H48232920   6.468   6.425   0.733  2.7131 -2.7872 -0.7178
   50MOL   H48332921   6.509   6.587   0.770 -0.2400  0.3463 -2.7034
   50MOL   H48432922   6.675   6.475   0.948  0.3454 -0.9406  0.2331
   50MOL   H48532923   6.500   6.489   0.990  0.6249  1.2931  0.0969
   50MOL   H48632924   6.494   6.262   0.876 -0.4505  2.0273 -0.2350
   50MOL   H48732925   6.660   6.248   0.902  0.9958 -0.6541  2.6710
   50MOL   H48832926   6.633   6.271   1.142  0.1524 -1.0942 -0.4450
   50MOL   H48932927   6.471   6.322   1.131 -0.0943  0.7596 -0.6190
   50MOL   H49032928   6.420   6.099   1.174  0.6585  0.8745  0.7725
   50MOL   H49132929   6.458   6.071   1.008  1.1997 -1.9056 -0.7681
   50MOL   H49232930   6.692   6.072   1.211  1.7802 -0.4628 -1.1214
   50MOL   H49332931   6.568   5.941   1.211  0.8769 -0.8023 -0.3573
   50MOL   H49432932   6.773   5.897   1.076  0.5972  0.4264 -0.3423
   50MOL   H49532933   6.741   6.047   0.983  0.0108  0.6974  1.6120
   50MOL   H49632934   6.629   5.909   0.966 -0.9860 -1.7790  2.0073
   50MOL   C49732935   6.823   6.590   0.416 -0.1400  0.4442 -0.5325
   50MOL   C49832936   6.843   6.651   0.274 -0.9320  0.6072 -0.4115
   50MOL   C49932937   6.941   6.762   0.295 -0.1485  0.2347  0.4772
   50MOL   C50032938   7.087   6.710   0.313  0.2467 -0.3771 -0.7297
   50MOL   C50132939   7.177   6.748   0.193  0.4560  0.1329  0.1703
   50MOL   C50232940   7.319   6.698   0.202  0.5119  0.1697  0.4895
   50MOL   C50332941   7.411   6.737   0.090 -0.0411 -0.3943  0.1766
   50MOL   C50432942   7.555   6.768   0.140 -0.0378  0.1089 -0.4411
   50MOL   C50532943   7.576   6.891   0.225 -0.5469  0.8005  0.4327
   50MOL   C50632944   0.019   6.902   0.281  0.1250 -0.1975 -0.1100
   50MOL   C50732945   0.030   7.008   0.399  0.9270 -0.0530 -0.0929
   50MOL   H50832946   6.763   6.668   0.464 -2.6585 -1.8150  0.0994
   50MOL   H50932947   6.923   6.570   0.455  0.2287 -0.1701 -1.7703
   50MOL   H51032948   6.882   6.569   0.214 -0.8391 -0.1938  0.7045
   50MOL   H51132949   6.894   6.826   0.369 -1.7763  1.6438 -1.7119
   50MOL   H51232950   6.950   6.824   0.206  0.7466 -1.4402 -0.6362
   50MOL   H51332951   7.103   6.602   0.323  1.4953 -0.1905 -0.6652
   50MOL   H51432952   7.137   6.759   0.397 -0.4493 -2.7996  1.1636
   50MOL   H51532953   7.128   6.705   0.106 -0.7744 -0.9043  1.3736
   50MOL   H51632954   7.182   6.857   0.187  1.8985  0.1816  1.7819
   50MOL   H51732955   7.352   6.727   0.302  1.8965 -0.5887  0.2688
   50MOL   H51832956   7.311   6.589   0.202 -0.0867  0.2139 -0.0856
   50MOL   H51932957   7.410   6.658   0.014  2.1352 -0.1302 -0.1722
   50MOL   H52032958   7.375   6.820   0.029 -0.1690  0.9841  2.1073
   50MOL   H52132959   7.618   6.776   0.052  1.4336  0.5620  0.6473
   50MOL   H52232960   7.583   6.677   0.194 -1.8146  0.3065  0.8988
   50MOL   H52332961   7.506   6.893   0.309  0.1111  1.0909  0.9805
   50MOL   H52432962   7.567   6.979   0.161  1.9097  0.6931 -0.0887
   50MOL   H52532963   0.090   6.936   0.206 -1.3306  0.3509 -1.2568
   50MOL   H52632964   0.059   6.805   0.310  1.2080 -0.3379 -2.0346
   50MOL   H52732965   0.108   6.988   0.473 -0.5878  1.8482  2.0657
   50MOL   H52832966   7.642   7.006   0.458  0.1550  2.6279 -1.1250
   50MOL   H52932967   0.039   7.108   0.357 -1.0595 -0.1137 -0.6774
   50MOL   C53032968   6.711   6.700   0.219 -0.4239 -0.6885  0.1792
   50MOL   C53132969   6.715   6.771   0.077  0.3089  0.3756  0.1910
   50MOL   C53232970   6.573   6.796   0.036  1.0356  0.1160 -0.2746
   50MOL   C53332971   6.485   6.679   0.004  0.4146  0.2792  1.0468
   50MOL   C53432972   6.357   6.724   7.635  0.1454 -0.2351  0.1176
   50MOL   C53532973   6.379   6.752   7.488  0.4178 -1.0155  0.0756
   50MOL   C53632974   6.251   6.808   7.419  0.1287 -0.0324  0.0160
   50MOL   C53732975   6.269   6.826   7.267 -0.0873 -0.2514 -0.3292
   50MOL   C53832976   6.153   6.899   7.202 -0.0663  0.2349  0.0501
   50MOL   C53932977   6.179   6.928   7.061  0.5635 -0.1364  0.1176
   50MOL   C54032978   6.067   6.995   6.985  0.8967 -0.5885 -0.1491
   50MOL   H54132979   6.645   6.615   0.206  1.3871 -1.7413 -2.5645
   50MOL   H54232980   6.665   6.774   0.285  0.1296  1.5748 -1.8629
   50MOL   H54332981   6.759   6.870   0.088  0.5545  0.1309  1.4955
   50MOL   H54432982   6.559   6.873   7.664  3.1569  0.0252 -0.7835
   50MOL   H54532983   6.524   6.849   0.118 -0.5867  0.8984 -1.7223
   50MOL   H54632984   6.456   6.640   0.101 -0.1555 -0.0538  0.7429
   50MOL   H54732985   6.533   6.605   7.643  1.3708  2.3726 -0.7305
   50MOL   H54832986   6.330   6.825   7.669  0.9381  0.1281 -0.3341
   50MOL   H54932987   6.269   6.661   7.647 -0.1002 -0.1907 -1.4148
   50MOL   H55032988   6.388   6.659   7.432 -1.8964 -1.5098  0.5043
   50MOL   H55132989   6.466   6.812   7.459  0.9013 -1.3445  0.8379
   50MOL   H55232990   6.232   6.905   7.465  0.3271  0.6871 -1.3950
   50MOL   H55332991   6.171   6.743   7.455  0.5655 -0.2224  0.6527
   50MOL   H55432992   6.280   6.726   7.223 -0.3592 -1.0843  1.4530
   50MOL   H55532993   6.360   6.885   7.261  0.5243 -1.2029 -0.6040
   50MOL   H55632994   6.149   6.998   7.248  0.1916 -0.6715  2.0795
   50MOL   H55732995   6.058   6.846   7.212 -0.8356  1.2278 -1.6530
   50MOL   H55832996   6.242   6.854   7.011 -0.0565 -0.7423  0.2310
   50MOL   H55932997   6.246   7.014   7.066 -1.0773  1.0445  2.3120
   50MOL   H56032998   5.980   6.931   6.996  1.2701 -1.2880 -1.1710
   50MOL   H56132999   6.042   7.093   7.027  2.0239  0.4187 -1.7643
   50MOL   H56233000   6.087   7.004   6.878  1.0462  2.1904  0.0821
   50MOL   C56333001   6.818   6.706   7.678  0.8768 -0.2586 -0.0928
   50MOL   C56433002   6.834   6.793   7.552  0.3487 -0.4710 -0.2905
   50MOL   C56533003   6.884   6.700   7.440 -0.5619  0.7853  0.4311
   50MOL   C56633004   7.016   6.634   7.464 -0.2048  1.2748  0.1267
   50MOL   C56733005   7.096   6.582   7.340  0.0939  0.0889  0.3256
   50MOL   C56833006   7.240   6.544   7.360 -0.6104 -0.3662  0.3741
   50MOL   C56933007   7.258   6.409   7.432  0.0336  0.1557 -0.6013
   50MOL   C57033008   7.406   6.382   7.468 -0.0381 -0.5354  0.4897
   50MOL   C57133009   7.494   6.352   7.346 -0.7142 -1.2605 -0.7249
   50MOL   C57233010   7.638   6.315   7.385  0.4449 -0.0081  0.0565
   50MOL   C57333011   0.020   6.294   7.258 -0.2665  0.2961  1.1238
   50MOL   H57433012   6.782   6.606   7.654 -2.0713  0.4042  1.2886
   50MOL   H57533013   6.913   6.693   0.026  0.9799  2.1005  0.3931
   50MOL   H57633014   6.733   6.822   7.526  1.0175  2.2997  0.0503
   50MOL   H57733015   6.864   6.747   7.344  1.0059 -1.0276 -0.8244
   50MOL   H57833016   6.814   6.617   7.434 -1.5501  1.5804  0.8883
   50MOL   H57933017   6.998   6.556   7.539 -1.0085 -0.6259 -1.9869
   50MOL   H58033018   7.081   6.707   7.512  0.1347  0.6697  0.6043
   50MOL   H58133019   7.089   6.655   7.259 -0.1269  1.5520  1.6234
   50MOL   H58233020   7.040   6.497   7.300 -0.5051  0.7516 -0.2579
   50MOL   H58333021   7.295   6.534   7.266  1.1469 -0.7609  1.4072
   50MOL   H58433022   7.294   6.624   7.410 -1.7030  0.8669 -0.3931
   50MOL   H58533023   7.204   6.416   7.526  0.0464 -1.0506 -0.4978
   50MOL   H58633024   7.209   6.326   7.381 -2.7271  0.8528  0.8233
   50MOL   H58733025   7.421   6.301   7.539  0.9822  0.0356  0.9358
   50MOL   H58833026   7.435   6.468   7.527  0.4099  0.1176 -0.6820
   50MOL   H58933027   7.478   6.433   7.275  0.8380  0.6447  1.0324
   50MOL   H59033028   7.450   6.265   7.296 -2.6266 -1.2752  0.9389
   50MOL   H59133029   7.640   6.222   7.442  3.1421 -0.5157 -0.7948
   50MOL   H59233030   7.674   6.402   7.440 -2.1274  1.4295 -0.4551
   50MOL   H59333031   7.664   6.228   7.195  0.6359 -0.2044  0.7878
   50MOL   H59433032   0.050   6.387   7.210 -0.9697  1.7011  3.2998
   50MOL   H59533033   0.109   6.234   7.278 -0.2211  0.4445  1.3671
   50MOL   C59633034   6.924   6.913   7.579 -0.5017 -0.8878 -0.5174
   50MOL   C59733035   6.971   7.001   7.453  0.8052  0.4143  0.3561
   50MOL   C59833036   7.061   7.121   7.498  0.0995  0.2461 -0.0382
   50MOL   C59933037   7.208   7.073   7.528 -0.3996 -0.4145  0.2283
   50MOL   C60033038   7.295   7.094   7.405  0.0296  0.1172 -0.6431
   50MOL   C60133039   7.446   7.054   7.427  0.5145  0.7419  0.1128
   50MOL   C60233040   7.516   7.145   7.528  0.0179 -0.1524 -0.4825
   50MOL   C60333041   7.665   7.117   7.560 -0.0835  0.2822  0.5069
   50MOL   C60433042   0.017   7.185   7.680 -0.0805 -0.7297 -0.8547
   50MOL   C60533043   0.171   7.171   7.679 -0.0669  0.1141  0.4247
   50MOL   C60633044   0.242   7.234   0.093  0.6037  0.1399 -0.5725
   50MOL   H60733045   6.867   6.981   7.643 -2.6163 -1.6995 -1.5023
   50MOL   H60833046   7.021   6.888   7.622 -0.2425  1.7283  0.5377
   50MOL   H60933047   7.033   6.933   7.395  1.9061  1.5704  0.1682
   50MOL   H61033048   7.033   7.146   7.600  0.6080 -1.0026  0.4168
   50MOL   H61133049   7.059   7.221   7.454  0.6160  0.3969  0.2811
   50MOL   H61233050   7.208   6.969   7.562 -1.0340  0.2809  2.4555
   50MOL   H61333051   7.238   7.136   7.612  1.2093  1.8088 -1.9524
   50MOL   H61433052   7.283   7.197   7.374 -3.7094  0.3016  1.1684
   50MOL   H61533053   7.258   7.038   7.319  0.7666 -1.3275 -0.0527
   50MOL   H61633054   7.450   6.952   7.466  0.0331  0.7852  0.2763
   50MOL   H61733055   7.502   7.047   7.334  0.2131 -0.8019  0.0361
   50MOL   H61833056   7.457   7.148   7.620  0.0220  0.3184 -0.4953
   50MOL   H61933057   7.514   7.249   7.496  0.9884  0.8122  2.3601
   50MOL   H62033058   0.025   7.150   7.477 -0.9203  3.1370  0.9500
   50MOL   H62133059   7.686   7.010   7.559  0.0837  0.3015 -1.8634
   50MOL   H62233060   7.686   7.288   7.671  0.3699 -0.5793 -0.8754
   50MOL   H62333061   7.680   7.153   0.073  1.2448 -1.4768 -0.5293
   50MOL   H62433062   0.208   7.223   7.590  0.4607  1.3712  1.3600
   50MOL   H62533063   0.204   7.067   7.681 -3.5357 -1.0436  2.1198
   50MOL   H62633064   0.225   7.175   0.182 -0.1621  0.8461 -0.2349
   50MOL   H62733065   0.349   7.241   0.076  0.5984  2.3180  0.1027
   50MOL   H62833066   0.211   7.337   0.112  1.5471  0.2932  0.1447
   50MOL   C62933067   6.857   7.049   7.369 -0.2523  0.8708 -0.0570
   50MOL   C63033068   6.759   7.133   7.435  0.8604  1.1690 -0.5704
   50MOL   C63133069   6.656   7.191   7.343  0.3422 -0.3655 -0.6657
   50MOL   C63233070   6.521   7.207   7.417  0.2177  0.6603 -0.3564
   50MOL   C63333071   6.416   7.281   7.330  0.9103  0.1643  0.0098
   50MOL   C63433072   6.287   7.311   7.407  0.0458 -0.1756  0.0397
   50MOL   C63533073   6.173   7.347   7.316  0.1094  0.2343 -0.0364
   50MOL   C63633074   6.045   7.387   7.390  0.3044 -0.8042  0.4846
   50MOL   C63733075   5.926   7.419   7.295 -0.1214 -0.2376  0.2011
   50MOL   C63833076   5.797   7.425   7.375  0.5134  0.2879  0.4855
   50MOL   C63933077   5.675   7.443   7.286 -0.2600  0.2973  0.3906
   50MOL   H64033078   6.895   7.099   7.280  0.0398 -0.5855 -0.7613
   50MOL   H64133079   6.803   6.964   7.329  1.3985  1.0469 -2.7699
   50MOL   H64233080   6.708   7.079   7.514  1.0936  0.8971 -0.6030
   50MOL   H64333081   6.684   7.291   7.311 -0.7340  0.4679  0.9191
   50MOL   H64433082   6.629   7.119   7.265  0.1353 -1.7499  0.6781
   50MOL   H64533083   6.548   7.267   7.503  0.4452  0.0178  0.0213
   50MOL   H64633084   6.487   7.107   7.445 -1.4218  0.5217 -2.6545
   50MOL   H64733085   6.393   7.229   7.237  0.3573  0.7909 -0.2112
   50MOL   H64833086   6.461   7.374   7.295 -0.5928  1.0978  0.5122
   50MOL   H64933087   6.315   7.381   7.485  1.2526  0.5828 -1.0595
   50MOL   H65033088   6.262   7.220   7.462  1.3530 -1.3601 -1.2802
   50MOL   H65133089   6.151   7.260   7.255 -0.0105 -0.1479  0.5445
   50MOL   H65233090   6.210   7.418   7.241 -0.0160 -1.1810 -1.4560
   50MOL   H65333091   6.060   7.456   7.473 -0.4154 -1.7502  1.4021
   50MOL   H65433092   6.012   7.298   7.442  0.0104 -1.2266 -0.4212
   50MOL   H65533093   5.922   7.337   7.223  0.0643 -1.2395  1.3193
   50MOL   H65633094   5.948   7.511   7.241 -3.4570 -1.3775 -3.2759
   50MOL   H65733095   5.798   7.512   7.440 -0.2125 -1.2839  2.6528
   50MOL   H65833096   5.782   7.346   7.448 -0.5964 -2.5518 -2.6730
   50MOL   H65933097   5.587   7.457   7.349  0.2090  2.1058  0.6754
   50MOL   H66033098   5.667   7.357   7.218 -2.8256 -0.7046  1.9006
   50MOL   H66133099   5.673   7.532   7.224 -1.4607 -1.0548 -1.5924
   50MOL   H66233100   6.814   7.215   7.480  2.2783 -0.0930  0.0586
   51MOL     C133101   6.143   2.685   4.700  0.4788  0.0791  0.0151
   51MOL     C233102   6.260   2.668   4.598 -0.1090  0.4836 -0.0329
   51MOL     C333103   6.344   2.541   4.632 -0.2153 -0.5495 -0.3097
   51MOL     C433104   6.441   2.555   4.753  0.0642  0.0437  0.1071
   51MOL     C533105   6.533   2.434   4.783 -0.3336  0.7652  0.6079
   51MOL     C633106   6.655   2.468   4.875  0.0833  0.0788  0.6583
   51MOL     C733107   6.757   2.357   4.890  0.2567  0.2032  0.0848
   51MOL     C833108   6.685   2.233   4.949 -0.5240 -0.0124  0.2341
   51MOL     C933109   6.788   2.133   5.013 -0.0329 -0.3099 -0.2992
   51MOL    C1033110   6.892   2.068   4.911  0.0247  0.1240 -0.1222
   51MOL    C1133111   6.990   1.970   4.979  0.6985  0.3882 -0.1203
   51MOL    H1233112   6.125   2.793   4.703 -1.8799 -0.2739 -0.6529
   51MOL    H1333113   6.170   2.652   4.800 -1.5216  0.0913  0.5595
   51MOL    H1433114   6.329   2.752   4.602  0.7219 -0.2695  1.7018
   51MOL    H1533115   6.407   2.527   4.544  0.1857 -0.6330 -0.0095
   51MOL    H1633116   6.278   2.454   4.631 -1.1297  0.1265  0.2545
   51MOL    H1733117   6.389   2.592   4.842  0.3476  0.8583 -0.0627
   51MOL    H1833118   6.507   2.636   4.723  1.1427 -0.3403  1.4052
   51MOL    H1933119   6.464   2.362   4.825  0.2853 -0.0654  0.2279
   51MOL    H2033120   6.565   2.384   4.692  0.2588 -0.1860  1.3278
   51MOL    H2133121   6.618   2.497   4.974  0.4536 -0.8397  1.0774
   51MOL    H2233122   6.706   2.555   4.835 -0.5291  1.3311  2.5354
   51MOL    H2333123   6.798   2.326   4.794 -2.4032 -1.7720 -0.4749
   51MOL    H2433124   6.841   2.385   4.954  1.3680 -3.0951  0.1682
   51MOL    H2533125   6.626   2.176   4.877 -1.5891  0.9439  0.3297
   51MOL    H2633126   6.618   2.257   5.031 -1.5674  0.7095 -0.8166
   51MOL    H2733127   6.722   2.058   5.057  0.2025 -0.5346 -0.3253
   51MOL    H2833128   6.844   2.173   5.097 -0.4961  1.0486 -0.6176
   51MOL    H2933129   6.938   2.156   4.865  0.2047 -0.2055 -0.5724
   51MOL    H3033130   6.841   2.012   4.832  1.1945 -0.1642 -0.6747
   51MOL    H3133131   7.065   1.931   4.911  0.7104 -0.3797  0.3291
   51MOL    H3233132   7.041   1.994   5.073 -0.7502 -2.3649  1.4313
   51MOL    H3333133   6.928   1.887   5.011  1.0471  0.4034  0.6169
   51MOL    H3433134   6.041   2.657   4.677 -0.3294  1.7657  1.4321
   51MOL    C3533135   6.212   2.653   4.455  0.5986 -0.3511  0.0136
   51MOL    C3633136   6.193   2.801   4.398  0.2065  0.0604  0.0568
   51MOL    C3733137   6.322   2.866   4.341  0.0510  0.0654 -0.6195
   51MOL    C3833138   6.315   3.015   4.340 -0.0151 -0.5250  1.7047
   51MOL    C3933139   6.296   3.088   4.474  0.1288  0.0124 -0.3983
   51MOL    C4033140   6.403   3.050   4.580  0.0957  0.0627  0.6526
   51MOL    C4133141   6.369   3.133   4.709 -1.0381  0.1868 -0.0137
   51MOL    C4233142   6.468   3.104   4.827 -0.3795  0.4487  0.0770
   51MOL    C4333143   6.440   2.961   4.892 -0.3134  0.0297 -1.3068
   51MOL    C4433144   6.528   2.940   5.028  0.4337 -0.6587  0.7658
   51MOL    C4533145   6.520   2.801   5.087 -0.5764 -0.1040 -0.3403
   51MOL    H4633146   6.120   2.597   4.469 -1.0700  1.7180 -2.2476
   51MOL    H4733147   6.273   2.589   4.391  0.5349  0.6527 -1.0893
   51MOL    H4833148   6.158   2.869   4.475 -0.0835 -0.0443  0.0166
   51MOL    H4933149   6.406   2.837   4.405 -1.3877  0.1721  1.3689
   51MOL    H5033150   6.345   2.826   4.242 -0.8214 -0.7548 -0.5047
   51MOL    H5133151   6.228   3.041   4.280  0.0850 -1.9155  0.9405
   51MOL    H5233152   6.408   3.054   4.298 -2.3374  1.9477 -1.3332
   51MOL    H5333153   6.192   3.074   4.504  0.6353 -1.9725  0.5308
   51MOL    H5433154   6.305   3.192   4.444  0.7768  0.6960  1.9835
   51MOL    H5533155   6.508   3.071   4.560 -0.1989  0.2260 -0.7417
   51MOL    H5633156   6.403   2.942   4.595 -1.2051  0.1704  1.5554
   51MOL    H5733157   6.369   3.240   4.690 -1.3271  0.1324 -0.3254
   51MOL    H5833158   6.272   3.097   4.743 -0.7719 -0.9826 -0.4810
   51MOL    H5933159   6.487   3.189   4.892  1.6512 -1.8225  2.5964
   51MOL    H6033160   6.564   3.111   4.776 -1.4861  1.0501 -1.9834
   51MOL    H6133161   6.470   2.883   4.823 -0.4580 -1.6463  0.4728
   51MOL    H6233162   6.333   2.949   4.909 -0.6368  0.8586 -2.7314
   51MOL    H6333163   6.635   2.951   5.010  0.3563  2.3927  1.9181
   51MOL    H6433164   6.499   3.002   5.112  0.8497  1.1952 -0.4254
   51MOL    H6533165   6.588   2.801   5.172 -1.1321  3.8113  0.2041
   51MOL    H6633166   6.419   2.781   5.123 -0.4896  0.3568  0.1678
   51MOL    H6733167   6.554   2.730   5.012  0.4071  0.1728 -0.1592
   51MOL    C6833168   6.085   2.801   4.289  0.5441 -0.0753 -0.6550
   51MOL    C6933169   5.934   2.795   4.346  0.4135  0.0179 -0.1560
   51MOL    C7033170   5.862   2.925   4.321  0.6840 -0.3215  0.5687
   51MOL    C7133171   5.942   3.054   4.353 -0.3165  0.3271 -0.8523
   51MOL    C7233172   5.857   3.182   4.374  0.6892  0.6536 -0.1009
   51MOL    C7333173   5.795   3.239   4.241  0.5043 -0.6650 -0.6260
   51MOL    C7433174   5.736   3.373   4.272 -0.1930  0.5270 -0.0286
   51MOL    C7533175   5.615   3.378   4.373  0.4361 -0.6989 -0.3243
   51MOL    C7633176   5.484   3.295   4.342  0.4463  0.4602 -0.5024
   51MOL    C7733177   5.378   3.335   4.448 -0.8113 -0.7156  0.0322
   51MOL    C7833178   5.246   3.264   4.446 -0.3112  0.4663 -0.7206
   51MOL    H7933179   6.099   2.719   4.218  0.8706 -0.5953  0.0000
   51MOL    H8033180   6.090   2.890   4.227  1.7534  0.4699  0.2223
   51MOL    H8133181   5.941   2.801   4.454  2.7619  0.4273 -0.3238
   51MOL    H8233182   5.770   2.928   4.379  1.9538 -0.6625  2.6658
   51MOL    H8333183   5.834   2.927   4.216  2.7378 -1.5402 -0.0375
   51MOL    H8433184   6.002   3.048   4.444  0.0167  1.7542 -0.9778
   51MOL    H8533185   6.020   3.074   4.280 -0.3818  0.2587 -0.9414
   51MOL    H8633186   5.921   3.255   4.425  2.2501  0.2010 -1.3641
   51MOL    H8733187   5.783   3.161   4.451 -0.7058  0.8079 -1.3910
   51MOL    H8833188   5.872   3.249   4.165  0.5066 -1.4040 -0.7277
   51MOL    H8933189   5.717   3.176   4.196 -0.7264  0.5875 -0.3007
   51MOL    H9033190   5.706   3.423   4.180 -0.5838  1.5138  0.6224
   51MOL    H9133191   5.814   3.439   4.309 -0.3635  1.9027 -2.0373
   51MOL    H9233192   5.643   3.353   4.475  0.3671 -3.0599 -0.8610
   51MOL    H9333193   5.580   3.481   4.368 -1.2543 -1.2598 -0.2219
   51MOL    H9433194   5.445   3.325   4.245  1.0002  0.6420 -0.6649
   51MOL    H9533195   5.508   3.189   4.343 -0.7620  0.1661 -1.0353
   51MOL    H9633196   5.428   3.311   4.543 -1.3348  1.2471  0.8273
   51MOL    H9733197   5.362   3.443   4.452 -0.1803 -0.6455  0.8262
   51MOL    H9833198   5.265   3.157   4.457  0.9539  0.8235  0.6712
   51MOL    H9933199   5.183   3.281   4.359 -0.9256 -0.2441 -0.4259
   51MOL   H10033200   5.192   3.292   4.536 -2.9304 -3.0026 -1.0926
   51MOL   C10133201   5.869   2.667   4.293  0.2082  0.5086 -0.0503
   51MOL   C10233202   5.744   2.620   4.375  0.1162 -0.0791  0.5100
   51MOL   C10333203   5.775   2.594   4.529 -0.2930  0.2631 -1.3776
   51MOL   C10433204   5.672   2.526   4.620 -0.7313  0.6358 -0.4308
   51MOL   C10533205   5.725   2.489   4.764 -0.0510  0.0383  0.2727
   51MOL   C10633206   5.627   2.422   4.857 -0.2534  0.5678 -0.9163
   51MOL   C10733207   5.697   2.358   4.974 -0.2623  0.1761 -0.0952
   51MOL   C10833208   5.591   2.268   5.051  1.0080 -0.2471 -0.1765
   51MOL   C10933209   5.662   2.187   5.168  0.6739 -0.2783  0.0764
   51MOL   C11033210   5.550   2.103   5.233 -0.8766  0.1022 -0.4376
   51MOL   C11133211   5.607   1.997   5.340 -0.1123 -0.0924  0.1067
   51MOL   H11233212   5.851   2.692   4.188 -1.9492  0.6774  0.3401
   51MOL   H11333213   5.934   2.580   4.298 -0.8148 -0.2837 -0.3684
   51MOL   H11433214   5.674   2.703   4.373 -1.8798 -1.7440 -0.1483
   51MOL   H11533215   5.858   2.523   4.533 -0.0048  0.6666  1.0577
   51MOL   H11633216   5.814   2.684   4.577 -1.7191  0.0274  0.2637
   51MOL   H11733217   5.582   2.587   4.626 -1.6815 -0.4334 -3.2573
   51MOL   H11833218   5.653   2.427   4.580 -0.2400 -0.9484  3.0896
   51MOL   H11933219   5.814   2.428   4.747  0.6147  0.8078  0.9254
   51MOL   H12033220   5.771   2.577   4.810  1.0338  0.0053 -0.7275
   51MOL   H12133221   5.561   2.506   4.877  0.7290  1.1558 -0.0334
   51MOL   H12233222   5.568   2.353   4.797  1.3866 -0.0017 -1.9085
   51MOL   H12333223   5.733   2.438   5.038 -0.1125 -0.4178  0.5683
   51MOL   H12433224   5.774   2.295   4.929 -0.3871 -0.9269  1.1995
   51MOL   H12533225   5.509   2.328   5.091  2.3256  1.0366  0.6330
   51MOL   H12633226   5.546   2.196   4.982  0.9023 -0.1605 -0.1979
   51MOL   H12733227   5.737   2.124   5.121 -2.8245 -3.0172 -2.1231
   51MOL   H12833228   5.707   2.249   5.245  0.0148 -0.9391  0.9990
   51MOL   H12933229   5.492   2.053   5.155 -0.7100  0.0074 -0.4997
   51MOL   H13033230   5.478   2.167   5.285 -3.4453 -1.9761 -1.2807
   51MOL   H13133231   5.560   1.899   5.334 -1.1643  0.4698 -1.0860
   51MOL   H13233232   5.711   1.971   5.318  0.8730  1.9182  2.2006
   51MOL   H13333233   5.605   2.028   5.444 -0.6980 -1.1321  0.4065
   51MOL   C13433234   5.680   2.494   4.310  0.3528 -0.2652  0.3813
   51MOL   C13533235   5.521   2.485   4.320 -0.4993 -0.0846  0.0513
   51MOL   C13633236   5.470   2.346   4.372 -0.2370 -0.6447 -0.0495
   51MOL   C13733237   5.517   2.224   4.291  0.1481 -0.4428  0.7062
   51MOL   C13833238   5.424   2.104   4.304  0.7168  0.2970 -0.1994
   51MOL   C13933239   5.454   1.968   4.242  0.7916 -0.5755  0.5837
   51MOL   C14033240   5.549   1.871   4.307  0.6060  0.2226 -0.3995
   51MOL   C14133241   5.500   1.793   4.422 -0.0789 -0.6943  0.2686
   51MOL   C14233242   5.588   1.684   4.495  0.7977  0.2186 -0.0431
   51MOL   C14333243   5.620   1.560   4.408 -0.5155  0.0163 -0.2688
   51MOL   C14433244   5.678   1.454   4.500 -0.2582  0.0218  0.1453
   51MOL   H14533245   5.707   2.498   4.204  1.5400  1.1749  0.7270
   51MOL   H14633246   5.719   2.398   4.341  0.0705 -0.3549  0.4568
   51MOL   H14733247   5.470   2.553   4.389 -1.3461  0.5674 -1.1902
   51MOL   H14833248   5.363   2.348   4.394  0.1646  1.6213  1.9634
   51MOL   H14933249   5.506   2.328   4.474 -1.1079 -0.1878  0.3428
   51MOL   H15033250   5.524   2.249   4.185 -0.3935 -0.6581  0.6159
   51MOL   H15133251   5.621   2.206   4.318  0.2402 -0.8639  0.0780
   51MOL   H15233252   5.389   2.079   4.404 -1.1602 -1.0590 -1.1460
   51MOL   H15333253   5.329   2.136   4.259  0.8553 -0.6977 -1.2285
   51MOL   H15433254   5.362   1.911   4.228  1.4399 -1.4163 -0.2872
   51MOL   H15533255   5.492   1.988   4.142  0.1422  1.3457  0.6911
   51MOL   H15633256   5.561   1.800   4.225 -0.4369  1.0960 -1.3269
   51MOL   H15733257   5.644   1.920   4.327 -0.0101  1.0105  0.6682
   51MOL   H15833258   5.466   1.862   4.500 -2.0314 -0.0550 -1.1096
   51MOL   H15933259   5.400   1.754   4.401 -0.7268  0.1739  1.6318
   51MOL   H16033260   5.684   1.723   4.527 -0.0592 -0.3360  3.4706
   51MOL   H16133261   5.535   1.655   4.586 -0.8064  1.4278 -0.5719
   51MOL   H16233262   5.527   1.529   4.361 -0.2198  0.6640 -1.2905
   51MOL   H16333263   5.681   1.586   4.322 -2.1414  2.5814 -0.6972
   51MOL   H16433264   5.682   1.353   4.459 -0.3210  0.0094  0.1681
   51MOL   H16533265   5.617   1.432   4.588  0.9096 -1.5359  0.5807
   51MOL   H16633266   5.774   1.472   4.548 -0.3886  1.3772 -0.0923
   51MOL   C16733267   5.457   2.510   4.174  0.7206  0.6392  0.0301
   51MOL   C16833268   5.466   2.659   4.126 -0.4979  0.3655  0.1882
   51MOL   C16933269   5.392   2.757   4.216  0.4549 -0.0291 -0.3059
   51MOL   C17033270   5.240   2.737   4.241  0.3339 -0.4964 -0.0454
   51MOL   C17133271   5.185   2.853   4.331  0.1554 -0.1179 -0.3322
   51MOL   C17233272   5.036   2.830   4.368  0.5510 -0.3229  0.6483
   51MOL   C17333273   4.986   2.933   4.472  1.0401 -0.0169  0.1179
   51MOL   C17433274   4.850   2.892   4.526 -0.2134  0.0838  0.2889
   51MOL   C17533275   4.765   3.011   4.587  1.1258 -0.1954 -0.2646
   51MOL   C17633276   4.797   3.034   4.735  0.1680  0.0103  0.5452
   51MOL   C17733277   4.685   3.094   4.822 -0.4630  0.1251  0.2201
   51MOL   H17833278   5.492   2.447   4.092 -2.0980 -0.2292 -0.5798
   51MOL   H17933279   5.351   2.483   4.173  0.5827  1.1214  0.9961
   51MOL   H18033280   5.571   2.688   4.132 -0.2389 -0.4761 -0.2400
   51MOL   H18133281   5.399   2.862   4.187 -0.2113  0.0737 -0.1087
   51MOL   H18233282   5.431   2.768   4.317  0.6266  1.6553 -0.5346
   51MOL   H18333283   5.181   2.753   4.151  1.1399  0.5163 -0.4071
   51MOL   H18433284   5.222   2.639   4.285 -0.1872 -0.3557  0.0604
   51MOL   H18533285   5.192   2.932   4.257 -2.4488 -0.4793 -1.0404
   51MOL   H18633286   5.241   2.869   4.423 -1.3269  0.9375  0.4025
   51MOL   H18733287   4.979   2.849   4.277 -0.3939  1.2537  1.5308
   51MOL   H18833288   5.008   2.728   4.398 -1.7825  0.4154  1.0957
   51MOL   H18933289   4.989   3.033   4.428 -0.2611  0.2027  0.4850
   51MOL   H19033290   5.050   2.933   4.560  1.2122  0.9111  0.0062
   51MOL   H19133291   4.791   2.862   4.440  0.6911 -0.8510 -0.0120
   51MOL   H19233292   4.862   2.801   4.585  0.3718  0.3961  0.6527
   51MOL   H19333293   4.658   2.994   4.583  0.6484  1.9066  1.9180
   51MOL   H19433294   4.772   3.107   4.535  0.7524 -0.0935 -0.1307
   51MOL   H19533295   4.883   3.100   4.730 -0.9219  1.3576 -0.6028
   51MOL   H19633296   4.833   2.941   4.779 -1.3599 -1.0593 -0.4055
   51MOL   H19733297   4.650   3.187   4.777 -0.1412  0.5225  0.7775
   51MOL   H19833298   4.727   3.105   4.922 -0.2160 -2.0246  0.3819
   51MOL   H19933299   4.600   3.027   4.814  0.0802 -0.3093 -2.4137
   51MOL   C20033300   5.420   2.683   3.986 -0.2269  1.0895 -0.2432
   51MOL   C20133301   5.527   2.639   3.877 -0.1313  0.6259 -0.5495
   51MOL   C20233302   5.634   2.746   3.848  0.3875  0.7917  0.4652
   51MOL   C20333303   5.581   2.854   3.762  0.2593 -0.2570  0.1132
   51MOL   C20433304   5.662   2.979   3.792 -0.4840 -0.4735 -0.1657
   51MOL   C20533305   5.660   3.090   3.685 -1.0876 -0.3341  0.2275
   51MOL   C20633306   5.739   3.217   3.722  0.0695 -0.0590 -0.3016
   51MOL   C20733307   5.694   3.350   3.649 -0.5222 -0.3874  0.3583
   51MOL   C20833308   5.751   3.485   3.695 -0.0273 -0.7747 -0.5750
   51MOL   C20933309   5.689   3.598   3.610  0.4451 -0.5624  0.0023
   51MOL   C21033310   5.755   3.736   3.644  0.2157  0.0861  0.3663
   51MOL   H21133311   5.325   2.631   3.986  0.0401  0.6029  0.9142
   51MOL   H21233312   5.395   2.788   3.969 -0.8696  1.0067  0.1752
   51MOL   H21333313   5.581   2.551   3.913 -1.0871  0.4891  0.5882
   51MOL   H21433314   5.713   2.684   3.807 -0.2555  0.1590  0.1667
   51MOL   H21533315   5.664   2.786   3.945  0.5052  0.1232  0.7028
   51MOL   H21633316   5.479   2.874   3.795  0.1946 -3.0910  1.8076
   51MOL   H21733317   5.597   2.829   3.657 -1.0245  1.5553 -0.5340
   51MOL   H21833318   5.765   2.943   3.802  0.2529  1.0781 -1.8417
   51MOL   H21933319   5.634   3.021   3.888 -2.9781 -2.2556 -0.0809
   51MOL   H22033320   5.698   3.036   3.598 -1.3198  0.4006 -0.3305
   51MOL   H22133321   5.557   3.115   3.663 -1.5699 -2.1750  0.3650
   51MOL   H22233322   5.848   3.209   3.728  0.2197  0.4949 -1.9995
   51MOL   H22333323   5.707   3.230   3.825 -0.8075 -0.0359 -0.5700
   51MOL   H22433324   5.586   3.351   3.659 -0.7020  0.6662 -1.5602
   51MOL   H22533325   5.723   3.338   3.544 -1.0413  3.1373 -0.2350
   51MOL   H22633326   5.859   3.477   3.683  0.3392  2.0202  0.5310
   51MOL   H22733327   5.724   3.502   3.799  0.1087  1.9152 -0.9437
   51MOL   H22833328   5.695   3.583   3.503 -1.9813 -1.2357 -0.0710
   51MOL   H22933329   5.583   3.596   3.636  0.4745 -1.4098  0.1012
   51MOL   H23033330   5.722   3.824   3.589  0.7399  0.3842  0.5278
   51MOL   H23133331   5.863   3.728   3.650  0.1514 -0.8456  0.2815
   51MOL   H23233332   5.724   3.767   3.744 -1.0672  1.7745 -0.5131
   51MOL   C23333333   5.457   2.598   3.741  0.8652  0.0006 -0.3562
   51MOL   C23433334   5.396   2.452   3.743  0.4629  0.3458 -0.1107
   51MOL   C23533335   5.495   2.349   3.686 -0.1670  0.0660 -0.2568
   51MOL   C23633336   5.458   2.206   3.715  0.3695  0.2140  0.0225
   51MOL   C23733337   5.576   2.113   3.705 -0.4872 -0.0435 -0.4366
   51MOL   C23833338   5.534   1.969   3.687 -0.4417 -0.0297  0.1697
   51MOL   C23933339   5.638   1.862   3.708  0.4700  0.4036 -0.5458
   51MOL   C24033340   5.584   1.718   3.668 -0.5755  0.0826 -0.1718
   51MOL   C24133341   5.566   1.712   3.517 -0.8556  0.2109  0.7394
   51MOL   C24233342   5.551   1.565   3.471  0.0616  0.0489 -0.4279
   51MOL   C24333343   5.410   1.506   3.505  0.2175 -0.1141 -0.0149
   51MOL   H24433344   5.528   2.610   3.659  1.2920  2.8962  0.3913
   51MOL   H24533345   5.372   2.665   3.737 -0.1666 -1.2706 -0.2515
   51MOL   H24633346   5.368   2.419   3.843 -0.1430  0.9140 -0.0882
   51MOL   H24733347   5.514   2.370   3.581 -0.7619  0.1347 -0.3519
   51MOL   H24833348   5.581   2.361   3.753  0.7003 -4.5292 -0.3510
   51MOL   H24933349   5.382   2.179   3.641  1.1673  0.5091 -0.9071
   51MOL   H25033350   5.419   2.199   3.816 -1.2345  2.0660 -0.4353
   51MOL   H25133351   5.632   2.112   3.798 -0.9414  0.4456 -0.1586
   51MOL   H25233352   5.641   2.140   3.621 -0.1064  0.6194  0.0626
   51MOL   H25333353   5.497   1.958   3.585  0.8373 -0.1318 -0.2892
   51MOL   H25433354   5.451   1.943   3.752 -0.3785 -0.8150 -0.0609
   51MOL   H25533355   5.732   1.896   3.664  0.4531 -0.5107 -1.3042
   51MOL   H25633356   5.664   1.856   3.814 -0.3379  2.8219 -0.1694
   51MOL   H25733357   5.650   1.644   3.712 -1.7222  0.7957  2.8136
   51MOL   H25833358   5.492   1.690   3.717 -2.2252  4.3545 -0.5870
   51MOL   H25933359   5.483   1.780   3.498 -0.0727  1.5117  1.9285
   51MOL   H26033360   5.653   1.750   3.463  0.1593  0.2555  2.3580
   51MOL   H26133361   5.635   1.505   3.504  0.2944 -0.1428 -1.3357
   51MOL   H26233362   5.567   1.571   3.363 -4.1165  1.1195 -1.0561
   51MOL   H26333363   5.342   1.549   3.431 -1.1973 -1.1213  0.6548
   51MOL   H26433364   5.367   1.521   3.604 -0.2773 -0.9862 -0.0891
   51MOL   H26533365   5.395   1.399   3.490 -1.1840 -0.1441  1.3898
   51MOL   C26633366   5.257   2.437   3.665  0.0465  0.0040 -0.0428
   51MOL   C26733367   5.127   2.470   3.745  0.7206 -0.6434  0.3249
   51MOL   C26833368   5.087   2.354   3.830  0.1619  0.7512 -0.3429
   51MOL   C26933369   4.982   2.398   3.935  0.1940  0.2795 -0.0557
   51MOL   C27033370   5.051   2.474   4.057  0.3315  0.3245  0.2526
   51MOL   C27133371   4.942   2.488   4.168 -0.8108  0.9239 -0.2544
   51MOL   C27233372   4.853   2.607   4.146  0.1976  0.0515  0.7842
   51MOL   C27333373   4.738   2.633   4.247 -0.0327  0.7134 -0.2034
   51MOL   C27433374   4.654   2.757   4.206  0.5681 -0.2632  0.5240
   51MOL   C27533375   4.533   2.762   4.302 -0.4392  0.0779  0.3471
   51MOL   C27633376   4.424   2.864   4.262  0.2318  0.3675 -0.2698
   51MOL   H27733377   5.238   2.342   3.617  4.8131 -1.7801  1.2285
   51MOL   H27833378   5.260   2.504   3.579 -1.0829 -0.3247 -0.3385
   51MOL   H27933379   5.147   2.559   3.804 -1.8250  0.5703 -0.5766
   51MOL   H28033380   5.047   2.273   3.770 -0.1746 -1.0525  2.2566
   51MOL   H28133381   5.176   2.314   3.880 -0.7987 -0.1171  0.7007
   51MOL   H28233382   4.936   2.304   3.966  2.4132 -0.9279 -0.2897
   51MOL   H28333383   4.895   2.453   3.899  1.6566  2.9627  0.4075
   51MOL   H28433384   5.088   2.567   4.014 -1.8253  1.7697  1.4108
   51MOL   H28533385   5.141   2.421   4.087  0.4575 -0.8066 -2.0193
   51MOL   H28633386   4.997   2.496   4.262  0.1847 -0.9485 -0.6468
   51MOL   H28733387   4.885   2.399   4.190 -0.6757  1.4899  2.5522
   51MOL   H28833388   4.911   2.698   4.130  2.5076 -1.2479  1.5429
   51MOL   H28933389   4.807   2.598   4.048  0.1754  1.3429  0.6643
   51MOL   H29033390   4.786   2.645   4.344  0.6988  1.8566 -0.7058
   51MOL   H29133391   4.679   2.541   4.247  1.4185 -0.2321  0.3467
   51MOL   H29233392   4.717   2.845   4.198 -1.0592  0.8226 -0.6895
   51MOL   H29333393   4.616   2.740   4.106 -0.2496 -2.0904  1.1202
   51MOL   H29433394   4.563   2.777   4.406  0.2953  0.2313  0.1164
   51MOL   H29533395   4.491   2.662   4.296  1.6992 -0.7825 -1.0063
   51MOL   H29633396   4.347   2.875   4.339  2.7615  0.0638  2.3730
   51MOL   H29733397   4.372   2.830   4.173  1.1634 -0.2220 -0.5909
   51MOL   H29833398   4.464   2.965   4.250 -0.0653  0.9632  3.2204
   51MOL   C29933399   5.013   2.500   3.649 -0.0253  0.2255 -0.7399
   51MOL   C30033400   5.005   2.639   3.586 -0.6761  0.9255 -0.2071
   51MOL   C30133401   4.897   2.732   3.645 -0.3325 -0.1939  0.0539
   51MOL   C30233402   4.915   2.778   3.787  0.2674 -0.9549 -0.0077
   51MOL   C30333403   5.017   2.889   3.804  0.2476 -0.0498 -0.0724
   51MOL   C30433404   5.026   2.935   3.948  0.4409 -0.8043 -0.1152
   51MOL   C30533405   5.080   3.076   3.976  0.0382  0.0334  0.8558
   51MOL   C30633406   5.228   3.083   3.941  0.4627 -0.2306  0.4300
   51MOL   C30733407   5.297   3.225   3.975  0.4192 -0.6001 -0.7338
   51MOL   C30833408   5.244   3.345   3.892 -0.1740 -0.0192 -0.0210
   51MOL   C30933409   5.351   3.448   3.881  1.0381  0.2657  0.2487
   51MOL   H31033410   4.919   2.491   3.703  0.3672 -0.3345 -0.1422
   51MOL   H31133411   5.012   2.427   3.567  0.4483 -1.3070  0.5909
   51MOL   H31233412   5.098   2.691   3.609 -0.7977  0.7916  0.6045
   51MOL   H31333413   4.885   2.819   3.582  0.7205 -1.6184 -2.1682
   51MOL   H31433414   4.798   2.687   3.635 -0.1743 -0.6190  0.3891
   51MOL   H31533415   4.818   2.819   3.814  0.4938 -0.2733 -0.2060
   51MOL   H31633416   4.917   2.688   3.848  2.9855  0.4058  2.0763
   51MOL   H31733417   5.114   2.855   3.768  0.4640  0.9316 -0.4366
   51MOL   H31833418   4.990   2.969   3.735 -1.5124  0.5906  1.2958
   51MOL   H31933419   5.094   2.867   3.998 -1.1801 -0.8866  2.0169
   51MOL   H32033420   4.936   2.929   4.009  0.9829 -0.1794  0.7621
   51MOL   H32133421   5.027   3.158   3.927 -0.4843 -0.2405  0.9605
   51MOL   H32233422   5.055   3.086   4.082  0.3653  0.2409  0.9135
   51MOL   H32333423   5.229   3.074   3.833  1.2933  0.5275  0.3631
   51MOL   H32433424   5.264   2.998   3.998 -3.3153 -1.1813  1.5677
   51MOL   H32533425   5.404   3.209   3.964  0.8333  1.3556  0.2159
   51MOL   H32633426   5.274   3.241   4.081 -4.3320 -2.6767 -1.3379
   51MOL   H32733427   5.151   3.379   3.937 -1.2540 -0.2764 -2.0509
   51MOL   H32833428   5.218   3.312   3.792  0.1974 -1.5974  0.3932
   51MOL   H32933429   5.390   3.490   3.974 -1.2092  2.0837  0.4240
   51MOL   H33033430   5.442   3.407   3.837  0.1905  0.1517 -1.4322
   51MOL   H33133431   5.325   3.534   3.820 -1.0393  0.8105  1.8140
   51MOL   C33233432   4.985   2.627   3.429 -0.9384  0.1378  0.1179
   51MOL   C33333433   5.055   2.739   3.357  0.2624 -0.9275  0.6439
   51MOL   C33433434   4.993   2.763   3.215  0.2111  0.2262 -0.2094
   51MOL   C33533435   4.863   2.840   3.229  0.1314  0.3371  0.5841
   51MOL   C33633436   4.778   2.810   3.106 -0.9771 -0.1342 -0.5039
   51MOL   C33733437   4.640   2.893   3.100 -0.4178  0.6787  0.5274
   51MOL   C33833438   4.647   3.037   3.042 -0.6498 -0.9654 -0.4560
   51MOL   C33933439   4.509   3.105   3.060  0.7063 -0.2936  0.3072
   51MOL   C34033440   4.409   3.076   2.941 -0.1450  0.0290  0.0544
   51MOL   C34133441   4.300   3.188   2.928  0.3893  0.1426 -0.4256
   51MOL   C34233442   4.350   3.319   2.860  1.3084  0.1356  0.1779
   51MOL   H34333443   5.031   2.537   3.387 -0.6152  0.5796 -0.4657
   51MOL   H34433444   4.881   2.614   3.399 -0.7953 -1.2778  0.1870
   51MOL   H34533445   5.041   2.838   3.400  1.5999 -0.9968  1.2754
   51MOL   H34633446   4.985   2.671   3.157 -0.7691  0.2149 -0.0773
   51MOL   H34733447   5.051   2.820   3.144  0.2255  0.6674  0.1548
   51MOL   H34833448   4.801   2.805   3.311 -0.3714 -0.3142 -0.0685
   51MOL   H34933449   4.875   2.947   3.250 -0.4976  0.7760 -1.1589
   51MOL   H35033450   4.841   2.833   3.020  1.2997 -1.1534  0.8569
   51MOL   H35133451   4.760   2.703   3.101  1.5488 -0.7021  1.9211
   51MOL   H35233452   4.593   2.897   3.198 -0.2326 -1.7981  0.7446
   51MOL   H35333453   4.563   2.839   3.044 -0.2176 -0.1318  1.0361
   51MOL   H35433454   4.685   3.026   2.941  0.6755 -0.4746 -0.0346
   51MOL   H35533455   4.719   3.092   3.104  0.8480  0.7457 -3.6059
   51MOL   H35633456   4.464   3.077   3.155  1.8449 -1.0712  0.6180
   51MOL   H35733457   4.523   3.213   3.057  0.3021 -0.2620 -1.4296
   51MOL   H35833458   4.362   2.980   2.963 -1.1189  0.3397 -0.6333
   51MOL   H35933459   4.456   3.057   2.845 -1.0293 -0.1298 -0.3569
   51MOL   H36033460   4.265   3.224   3.024  0.8972  1.8785 -0.8695
   51MOL   H36133461   4.223   3.132   2.875  0.2189 -1.7680  1.7596
   51MOL   H36233462   4.414   3.309   2.773 -0.5536 -1.3079 -1.0607
   51MOL   H36333463   4.263   3.372   2.821  1.4042 -0.7899 -1.3321
   51MOL   H36433464   4.395   3.385   2.934 -1.2305  0.5295  1.4492
   51MOL   C36533465   5.202   2.714   3.360  0.0058 -0.3641 -0.1058
   51MOL   C36633466   5.295   2.804   3.270 -0.9816 -0.3636 -0.1652
   51MOL   C36733467   5.261   2.953   3.299  0.0063 -0.4143  0.1069
   51MOL   C36833468   5.277   2.995   3.459  0.6106  0.8730 -0.5841
   51MOL   C36933469   5.249   3.139   3.498  0.4247 -0.5180  0.8669
   51MOL   C37033470   5.344   3.242   3.428  0.2847  0.8057 -0.3120
   51MOL   C37133471   5.333   3.388   3.472  0.6540  0.0943 -0.9840
   51MOL   C37233472   5.187   3.445   3.461  0.3088 -0.2981 -0.6321
   51MOL   C37333473   5.184   3.594   3.490  0.1572 -0.0313 -0.4581
   51MOL   C37433474   5.055   3.659   3.450 -0.1554 -0.2200 -0.0524
   51MOL   C37533475   5.062   3.811   3.478  0.6172 -0.5089 -0.5421
   51MOL   H37633476   5.242   2.714   3.462 -0.3828  0.4445  0.0452
   51MOL   H37733477   5.222   2.612   3.326  1.1391 -0.0583 -0.3723
   51MOL   H37833478   5.264   2.783   3.168 -1.8269  0.2873 -0.0509
   51MOL   H37933479   5.159   2.965   3.263  0.6886 -2.4122 -2.5882
   51MOL   H38033480   5.312   3.028   3.240 -0.0706 -0.3545  0.1163
   51MOL   H38133481   5.375   2.968   3.498  0.1770  1.2986  0.8407
   51MOL   H38233482   5.219   2.934   3.529  3.0315  0.0634  0.7635
   51MOL   H38333483   5.250   3.152   3.606  2.4059 -0.1237  0.8206
   51MOL   H38433484   5.147   3.164   3.469  0.5554  0.7302  1.4728
   51MOL   H38533485   5.338   3.238   3.319  3.7514  0.0794 -0.5359
   51MOL   H38633486   5.443   3.204   3.453 -0.1518  1.4379  2.4991
   51MOL   H38733487   5.359   3.398   3.578 -0.5765  2.3115 -0.8694
   51MOL   H38833488   5.399   3.460   3.424 -0.0672  0.9572 -0.7004
   51MOL   H38933489   5.125   3.396   3.536 -1.1443 -1.8703 -2.8104
   51MOL   H39033490   5.148   3.428   3.360 -0.9260 -1.1499 -0.0197
   51MOL   H39133491   5.206   3.604   3.596 -2.3759 -2.8341  0.4054
   51MOL   H39233492   5.257   3.639   3.423  0.2472 -2.5214 -2.0801
   51MOL   H39333493   5.028   3.632   3.347 -2.1061  0.4502  0.2595
   51MOL   H39433494   4.969   3.610   3.497  0.4160 -1.2955 -0.1148
   51MOL   H39533495   5.047   3.844   3.580 -0.5687 -3.2595  0.2263
   51MOL   H39633496   4.977   3.861   3.431  1.1559 -1.3390 -2.4787
   51MOL   H39733497   5.151   3.862   3.441  1.3119 -0.2008  1.5176
   51MOL   C39833498   5.452   2.779   3.277 -0.2652  0.3253  0.0571
   51MOL   C39933499   5.492   2.641   3.217 -0.3621 -0.4481  0.1373
   51MOL   C40033500   5.603   2.585   3.310 -0.8315 -0.0843  0.9665
   51MOL   C40133501   5.737   2.664   3.273 -0.0768 -0.3508 -0.2634
   51MOL   C40233502   5.837   2.622   3.378 -0.1934 -0.7412  0.0382
   51MOL   C40333503   5.969   2.697   3.364  0.1252 -0.8728 -0.1127
   51MOL   C40433504   6.075   2.628   3.457 -0.1874  0.1238 -0.4494
   51MOL   C40533505   6.209   2.696   3.426  0.1257 -0.2317 -0.2166
   51MOL   C40633506   6.310   2.662   3.530  0.0681 -0.1049 -0.0337
   51MOL   C40733507   6.439   2.723   3.485  0.5297  0.2181  0.1256
   51MOL   C40833508   6.505   2.665   3.356  0.2775  0.2951  0.5438
   51MOL   H40933509   5.480   2.792   3.382 -1.1092 -2.3612  0.6678
   51MOL   H41033510   5.501   2.859   3.223  2.9921 -1.9678 -0.5171
   51MOL   H41133511   5.418   2.565   3.243  0.7513 -1.2524  1.0058
   51MOL   H41233512   5.630   2.481   3.291  0.5851  0.4501 -0.0679
   51MOL   H41333513   5.579   2.583   3.416 -2.2896  0.2214  0.6508
   51MOL   H41433514   5.776   2.634   3.176  3.1377 -0.1502  0.8943
   51MOL   H41533515   5.720   2.772   3.271 -0.6483 -0.3999  1.4963
   51MOL   H41633516   5.788   2.648   3.472  2.7649  3.1904  0.6415
   51MOL   H41733517   5.842   2.514   3.393 -2.8872 -0.6864  1.6375
   51MOL   H41833518   5.962   2.801   3.394  0.6882 -0.1164 -2.4815
   51MOL   H41933519   5.994   2.688   3.258  0.5985 -2.1541  0.0904
   51MOL   H42033520   6.048   2.639   3.562  1.0924  0.5195 -0.1611
   51MOL   H42133521   6.072   2.519   3.449  2.6546  0.1094 -1.8949
   51MOL   H42233522   6.195   2.802   3.403 -3.0910 -1.1559 -2.8671
   51MOL   H42333523   6.237   2.647   3.333 -0.4581  0.6887 -0.8790
   51MOL   H42433524   6.277   2.708   3.624 -0.3312  3.2526 -1.7428
   51MOL   H42533525   6.313   2.554   3.544  0.0151 -0.1997 -0.7732
   51MOL   H42633526   6.515   2.725   3.563  2.3297  0.6759 -1.5952
   51MOL   H42733527   6.422   2.831   3.483 -1.4981 -0.0899  0.0313
   51MOL   H42833528   6.583   2.732   3.319 -0.7229  1.1635 -0.0345
   51MOL   H42933529   6.436   2.663   3.272  1.8523  1.0700 -0.7911
   51MOL   H43033530   6.552   2.568   3.364  1.6979  0.8231 -1.0630
   51MOL   C43133531   5.508   2.655   3.066 -0.1542  1.0111  0.0656
   51MOL   C43233532   5.506   2.518   2.996  0.2638 -0.0333  0.4782
   51MOL   C43333533   5.508   2.568   2.847  0.0330  0.0785 -0.4074
   51MOL   C43433534   5.523   2.456   2.744 -0.2345 -0.5273  0.3523
   51MOL   C43533535   5.551   2.524   2.610 -0.2389 -0.5886 -0.3246
   51MOL   C43633536   5.560   2.421   2.501 -0.6873 -0.3415 -0.4040
   51MOL   C43733537   5.614   2.480   2.371  0.4772  0.5894 -0.4011
   51MOL   C43833538   5.639   2.358   2.270 -0.3185 -1.2110  0.2387
   51MOL   C43933539   5.710   2.415   2.140  0.2141  0.3248 -1.2385
   51MOL   C44033540   5.623   2.500   2.048 -0.3185  0.2351  0.4072
   51MOL   C44133541   5.711   2.566   1.942 -0.2314  0.0514  0.6896
   51MOL   H44233542   5.590   2.719   3.034  1.1391 -1.4115 -1.6914
   51MOL   H44333543   5.422   2.714   3.032 -0.6038 -0.0790 -0.7417
   51MOL   H44433544   5.600   2.463   3.006  0.2004  0.0509  1.5836
   51MOL   H44533545   5.422   2.627   2.813  1.8442  1.5323 -2.6467
   51MOL   H44633546   5.583   2.646   2.832  0.6424 -0.1408  1.4218
   51MOL   H44733547   5.439   2.386   2.741  0.8973 -1.9768  1.3079
   51MOL   H44833548   5.610   2.394   2.769 -0.0112 -0.4972 -0.3481
   51MOL   H44933549   5.646   2.578   2.613 -0.9324  0.5883  1.7292
   51MOL   H45033550   5.477   2.601   2.587 -0.6840 -0.5771  1.0850
   51MOL   H45133551   5.462   2.387   2.469 -0.6715 -1.2468  0.4952
   51MOL   H45233552   5.622   2.341   2.542 -1.1821  0.0744  1.1923
   51MOL   H45333553   5.715   2.519   2.385  0.8619 -0.5201  0.0423
   51MOL   H45433554   5.549   2.558   2.332 -1.3050 -0.7927 -0.2623
   51MOL   H45533555   5.701   2.279   2.313  0.6034 -1.5821 -1.6886
   51MOL   H45633556   5.548   2.310   2.236 -0.1322 -0.6388 -1.1036
   51MOL   H45733557   5.741   2.327   2.084 -0.1743  0.4932 -1.7218
   51MOL   H45833558   5.800   2.471   2.164  1.2125 -2.1029  0.9652
   51MOL   H45933559   5.555   2.571   2.094  0.3214  0.1527  1.5021
   51MOL   H46033560   5.557   2.431   1.995 -0.1824  2.1947 -2.4233
   51MOL   H46133561   5.764   2.495   1.878  1.2625 -0.2677  2.2648
   51MOL   H46233562   5.649   2.624   1.872 -1.1793 -0.5182  1.0448
   51MOL   H46333563   5.787   2.638   1.972  2.1239 -1.5043 -1.3501
   51MOL   C46433564   5.378   2.431   3.029  0.4840 -0.1178 -0.0150
   51MOL   C46533565   5.394   2.306   3.122  0.3992 -0.0517  0.7591
   51MOL   C46633566   5.257   2.264   3.186  0.1951 -0.1934  0.0395
   51MOL   C46733567   5.167   2.182   3.098  0.6993 -0.2302  0.7268
   51MOL   C46833568   5.040   2.153   3.181  0.2391 -0.0722 -0.2629
   51MOL   C46933569   4.937   2.069   3.113 -0.0126 -0.1375 -0.6933
   51MOL   C47033570   4.818   2.039   3.205 -0.5351  0.4368  0.0384
   51MOL   C47133571   4.702   1.960   3.140  0.1171 -0.4704  0.3067
   51MOL   C47233572   4.579   1.944   3.229  0.1960  0.3853  0.2865
   51MOL   C47333573   4.455   1.907   3.141  0.3021  0.9539 -0.1992
   51MOL   C47433574   4.330   1.889   3.216 -0.6154  0.0460  0.0370
   51MOL   H47533575   5.340   2.400   2.931 -4.6514  1.0892  1.4421
   51MOL   H47633576   5.292   2.489   3.061 -1.2455 -1.3393 -2.2910
   51MOL   H47733577   5.455   2.342   3.205  0.8368  1.2647 -0.1191
   51MOL   H47833578   5.207   2.358   3.207  0.5737 -0.0937  0.5047
   51MOL   H47933579   5.272   2.218   3.284 -0.9715 -1.9862 -0.5847
   51MOL   H48033580   5.149   2.225   3.000 -2.8132  0.0711  1.4086
   51MOL   H48133581   5.220   2.094   3.063  0.6571  0.6938 -1.7508
   51MOL   H48233582   4.989   2.249   3.197  0.4035 -0.1544  0.7712
   51MOL   H48333583   5.064   2.119   3.281 -0.2784  2.2019  0.6673
   51MOL   H48433584   4.902   2.116   3.021 -0.4241 -0.4932 -0.7188
   51MOL   H48533585   4.967   1.966   3.093 -2.9609 -0.9500 -1.0595
   51MOL   H48633586   4.849   1.999   3.302  0.0146 -0.3828 -0.4704
   51MOL   H48733587   4.770   2.134   3.225  0.4789  0.9977 -0.1717
   51MOL   H48833588   4.672   1.997   3.043  2.1444 -2.1356 -1.0174
   51MOL   H48933589   4.741   1.864   3.106 -1.5075 -0.8479 -0.5320
   51MOL   H49033590   4.596   1.871   3.308  1.1346  1.5435  1.1631
   51MOL   H49133591   4.567   2.042   3.273 -1.0755  0.8479 -1.0523
   51MOL   H49233592   4.432   1.994   3.081  0.1260  1.6615  0.8875
   51MOL   H49333593   4.466   1.823   3.072 -2.7486  3.4658 -3.9025
   51MOL   H49433594   4.309   1.980   3.273  0.7395  0.6164 -0.3580
   51MOL   H49533595   4.330   1.800   3.280 -2.7388 -0.1136 -0.1373
   51MOL   H49633596   4.250   1.873   3.144 -1.5444  1.2010  0.7897
   51MOL   C49733597   5.458   2.185   3.044 -1.0517  0.4026  1.0686
   51MOL   C49833598   5.493   2.063   3.115 -0.4675 -0.0429  0.4176
   51MOL   C49933599   5.588   2.093   3.234  0.1643 -0.2235 -0.1926
   51MOL   C50033600   5.720   2.166   3.195  0.8858  1.1404  0.0255
   51MOL   C50133601   5.828   2.159   3.307  0.2702 -0.2517  0.1871
   51MOL   C50233602   5.967   2.208   3.259  0.3063 -0.8177  0.1487
   51MOL   C50333603   6.086   2.204   3.360 -0.1287 -0.2114 -0.2840
   51MOL   C50433604   6.226   2.253   3.305  0.1668  0.1314 -0.1102
   51MOL   C50533605   6.250   2.245   3.158 -0.3714  0.8479 -0.0173
   51MOL   C50633606   6.391   2.281   3.121 -0.4455 -0.1088  0.3712
   51MOL   C50733607   6.409   2.434   3.094  0.1908  0.0930  0.2714
   51MOL   H50833608   5.390   2.156   2.964  0.9836 -1.3612 -0.0639
   51MOL   H50933609   5.549   2.219   2.995 -0.5957  1.1446  2.3937
   51MOL   H51033610   5.404   2.023   3.164 -0.6397  1.0919  1.0458
   51MOL   H51133611   5.612   1.999   3.285  1.2087 -0.2815 -0.7625
   51MOL   H51233612   5.523   2.149   3.301  1.3136  0.4440  0.3908
   51MOL   H51333613   5.699   2.271   3.176 -0.5311  0.8588 -0.0593
   51MOL   H51433614   5.754   2.126   3.100 -1.1650 -1.0957  0.1790
   51MOL   H51533615   5.788   2.217   3.390 -0.8739  0.7945 -1.0733
   51MOL   H51633616   5.849   2.058   3.343  1.1492 -0.1251  0.0361
   51MOL   H51733617   5.997   2.146   3.174 -2.8867 -0.3318 -1.3927
   51MOL   H51833618   5.955   2.314   3.238 -1.2354 -0.7217  1.4094
   51MOL   H51933619   6.051   2.259   3.447 -0.8749 -0.2487 -0.5537
   51MOL   H52033620   6.098   2.104   3.402 -2.7477  0.0364  1.1539
   51MOL   H52133621   6.300   2.210   3.373 -0.3018 -0.7081 -0.1196
   51MOL   H52233622   6.215   2.357   3.334  0.4490  0.5242 -1.3919
   51MOL   H52333623   6.189   2.312   3.097 -1.2773  0.4891  0.4766
   51MOL   H52433624   6.221   2.144   3.129 -0.6313  0.8478  0.2377
   51MOL   H52533625   6.401   2.225   3.028 -1.3735  0.0155  0.1947
   51MOL   H52633626   6.464   2.239   3.191 -0.7123  0.2606  0.8794
   51MOL   H52733627   6.500   2.472   3.140 -0.1459  1.4457 -0.1611
   51MOL   H52833628   6.328   2.490   3.141 -0.2681 -0.3691  0.0390
   51MOL   H52933629   6.407   2.460   2.989 -0.2005  0.6596  0.4128
   51MOL   C53033630   5.524   1.953   3.013  0.1255  0.3788  0.7239
   51MOL   C53133631   5.524   1.810   3.080  0.9597  0.5722 -0.1739
   51MOL   C53233632   5.657   1.733   3.031 -0.2367  0.5877 -0.1541
   51MOL   C53333633   5.792   1.801   3.083  0.7330 -0.5533 -0.2080
   51MOL   C53433634   5.926   1.722   3.088  0.1237  0.2204 -0.3439
   51MOL   C53533635   6.040   1.818   3.109 -0.0794 -0.7587 -0.5529
   51MOL   C53633636   6.170   1.752   3.167  0.0896 -0.2808 -0.3843
   51MOL   C53733637   6.293   1.847   3.175  0.0852 -0.3012 -0.0656
   51MOL   C53833638   6.425   1.775   3.184 -0.4103  0.0866 -0.0708
   51MOL   C53933639   6.452   1.727   3.326  0.6949 -0.5758  0.2768
   51MOL   C54033640   6.493   1.831   3.432 -0.1486 -0.0118 -0.5769
   51MOL   H54133641   5.460   1.968   2.926  3.4063 -2.4612 -2.3697
   51MOL   H54233642   5.616   1.982   2.962 -1.9718 -0.6841 -3.8979
   51MOL   H54333643   5.526   1.816   3.188 -2.8857 -2.1372  0.1188
   51MOL   H54433644   5.659   1.724   2.922  3.2620  0.7339 -0.1456
   51MOL   H54533645   5.664   1.630   3.067 -0.3229  0.5226 -0.3172
   51MOL   H54633646   5.769   1.841   3.182 -0.1568 -1.7662  0.0912
   51MOL   H54733647   5.797   1.882   3.011  0.3987  0.1843  0.5887
   51MOL   H54833648   5.948   1.639   3.021  0.3036 -1.0939  1.3276
   51MOL   H54933649   5.907   1.672   3.183  2.1773  1.7820  0.9601
   51MOL   H55033650   6.004   1.903   3.166 -0.8743 -0.6577 -1.2053
   51MOL   H55133651   6.064   1.861   3.012 -0.3732  0.2242 -0.1933
   51MOL   H55233652   6.198   1.673   3.097  2.2213  0.6685 -0.6358
   51MOL   H55333653   6.143   1.707   3.263 -0.0356  0.0481 -0.2656
   51MOL   H55433654   6.281   1.924   3.251  2.2651  0.3494 -0.3262
   51MOL   H55533655   6.294   1.902   3.080  1.3194  1.3480  0.8654
   51MOL   H55633656   6.509   1.838   3.158  0.5187 -1.4452 -0.8535
   51MOL   H55733657   6.434   1.690   3.116  1.6856  1.4716 -1.5610
   51MOL   H55833658   6.521   1.643   3.315 -0.5238 -1.4005 -1.1912
   51MOL   H55933659   6.364   1.678   3.367 -1.0036  2.5785  0.5094
   51MOL   H56033660   6.429   1.918   3.450  0.3809  0.5160 -1.2114
   51MOL   H56133661   6.496   1.775   3.525 -0.1593 -0.2766 -0.7360
   51MOL   H56233662   6.595   1.864   3.415  0.2131 -1.2197 -0.7715
   51MOL   C56333663   5.404   1.731   3.033 -0.5967 -0.5713  0.4398
   51MOL   C56433664   5.264   1.777   3.087 -0.3714  0.6907  0.1420
   51MOL   C56533665   5.253   1.748   3.240 -0.1946 -0.0137 -0.4308
   51MOL   C56633666   5.160   1.847   3.324 -0.2884  0.3461 -0.2550
   51MOL   C56733667   5.163   1.805   3.472 -0.3618  0.4823 -1.0067
   51MOL   C56833668   5.085   1.905   3.552 -0.8825  0.2284  0.2649
   51MOL   C56933669   5.040   1.845   3.692  0.2485  0.0620 -0.6074
   51MOL   C57033670   4.996   1.965   3.780 -0.7218 -0.0554  0.7315
   51MOL   C57133671   5.024   1.927   3.926 -0.2629 -0.3886  0.3184
   51MOL   C57233672   4.950   1.999   4.039 -0.1578 -0.1634  0.0901
   51MOL   C57333673   5.009   1.942   4.175 -0.6835  0.4743 -0.6831
   51MOL   H57433674   5.418   1.630   3.071 -2.5476 -0.9195  0.3034
   51MOL   H57533675   5.412   1.721   2.925 -0.8079  0.3894  0.3342
   51MOL   H57633676   5.254   1.885   3.072  0.4655  0.6167 -0.9900
   51MOL   H57733677   5.350   1.738   3.288 -1.6192 -0.7561  2.3852
   51MOL   H57833678   5.209   1.650   3.254  1.2517 -0.7731 -1.0849
   51MOL   H57933679   5.060   1.860   3.283  0.5951  0.1204 -2.5676
   51MOL   H58033680   5.198   1.949   3.315  0.0430  0.1613 -1.0968
   51MOL   H58133681   5.263   1.782   3.510 -0.6150 -0.3444 -0.8162
   51MOL   H58233682   5.106   1.712   3.475  1.2000 -0.4671  0.3198
   51MOL   H58333683   5.152   1.990   3.566 -1.0547  0.0658  2.1613
   51MOL   H58433684   4.993   1.931   3.499 -1.1532  0.0945  0.6693
   51MOL   H58533685   4.963   1.770   3.671  0.2543 -0.6945  1.9288
   51MOL   H58633686   5.127   1.795   3.735 -0.3912  0.5618  1.3271
   51MOL   H58733687   4.893   1.987   3.750 -0.9288 -1.3039  0.4693
   51MOL   H58833688   5.053   2.053   3.751 -0.8622 -0.9123 -2.2822
   51MOL   H58933689   5.130   1.936   3.946  0.4443 -1.6723 -2.4639
   51MOL   H59033690   5.006   1.820   3.941  0.0097 -0.7254 -1.5560
   51MOL   H59133691   4.844   1.975   4.039 -0.2050  0.0112  1.0632
   51MOL   H59233692   4.956   2.107   4.030  1.1013 -0.1873  0.4272
   51MOL   H59333693   4.979   2.001   4.262  1.1959 -0.2803  0.5157
   51MOL   H59433694   4.981   1.839   4.197  0.7265 -0.0217 -1.0998
   51MOL   H59533695   5.118   1.949   4.184 -0.7935  1.9446 -0.3379
   51MOL   C59633696   5.153   1.697   3.011  0.3300  0.3957  0.0214
   51MOL   C59733697   5.135   1.700   2.856 -0.1516 -0.4545 -0.1637
   51MOL   C59833698   5.146   1.847   2.810  0.1754 -0.0244 -0.0085
   51MOL   C59933699   5.108   1.873   2.666 -0.4978 -0.1330  0.1259
   51MOL   C60033700   5.167   2.005   2.618  0.2558 -0.0546 -0.3415
   51MOL   C60133701   5.139   2.032   2.472  0.5822  0.7700 -1.6924
   51MOL   C60233702   5.170   2.184   2.441 -0.2993 -0.0252  0.1213
   51MOL   C60333703   5.112   2.226   2.304  0.3269  0.5333  0.0217
   51MOL   C60433704   5.211   2.202   2.194  0.0583  0.3081  0.5273
   51MOL   C60533705   5.152   2.249   2.052 -0.2248  0.0992  0.1680
   51MOL   C60633706   5.260   2.226   1.945  0.3429 -0.0761  0.1569
   51MOL   H60733707   5.168   1.593   3.039 -1.6960  0.6066  1.9734
   51MOL   H60833708   5.060   1.715   3.065 -0.9919 -1.8407 -1.4762
   51MOL   H60933709   5.218   1.650   2.806  0.2897  0.4175 -0.3281
   51MOL   H61033710   5.253   1.860   2.825  0.1768 -0.2138  0.1537
   51MOL   H61133711   5.082   1.905   2.876  0.3103  0.7755 -0.5769
   51MOL   H61233712   5.001   1.868   2.649  0.0822  0.2198 -4.3606
   51MOL   H61333713   5.151   1.793   2.604  0.0093 -0.8164  1.3437
   51MOL   H61433714   5.270   2.011   2.653 -0.3265  1.2682  1.2443
   51MOL   H61533715   5.122   2.070   2.693  0.5608 -2.1686  1.7301
   51MOL   H61633716   5.190   1.966   2.402  1.9361 -0.7102  0.6356
   51MOL   H61733717   5.038   2.001   2.446  1.0160 -1.2302 -1.0123
   51MOL   H61833718   5.277   2.206   2.440  0.0709 -1.7123 -0.1700
   51MOL   H61933719   5.141   2.245   2.527  1.0034  0.6935  0.0660
   51MOL   H62033720   5.096   2.334   2.308  0.3507  0.5046  1.3531
   51MOL   H62133721   5.015   2.178   2.298 -0.0781  1.4682 -1.0807
   51MOL   H62233722   5.305   2.255   2.210  0.3122 -0.5313  1.9877
   51MOL   H62333723   5.242   2.097   2.187  1.0879  0.6218  0.2159
   51MOL   H62433724   5.123   2.354   2.048  1.2613  0.5403  0.3463
   51MOL   H62533725   5.061   2.194   2.030  0.8962 -3.4001  3.5748
   51MOL   H62633726   5.352   2.281   1.964  0.5184 -0.5274  0.6544
   51MOL   H62733727   5.303   2.126   1.935 -2.7403 -1.4948  0.4930
   51MOL   H62833728   5.212   2.258   1.853 -1.6860 -1.8509  0.5374
   51MOL   C62933729   5.003   1.626   2.814  0.0438 -0.3303 -0.4153
   51MOL   C63033730   4.870   1.672   2.861 -0.4834 -0.4454  0.3540
   51MOL   C63133731   4.752   1.579   2.808 -0.4045 -0.2051 -0.2642
   51MOL   C63233732   4.626   1.619   2.894 -0.4041  0.2166  0.0145
   51MOL   C63333733   4.491   1.546   2.864 -0.2290 -0.4482 -0.1056
   51MOL   C63433734   4.418   1.615   2.753  0.2070 -0.4071 -0.0954
   51MOL   C63533735   4.287   1.545   2.712  0.6052  0.1753 -0.1283
   51MOL   C63633736   4.214   1.605   2.594  0.3051 -0.4464  1.0623
   51MOL   C63733737   4.078   1.539   2.566 -0.3628  0.8930 -0.5874
   51MOL   C63833738   4.089   1.391   2.520  0.0943 -0.2793 -0.1644
   51MOL   C63933739   3.953   1.314   2.523  0.0540  0.0202  0.2631
   51MOL   H64033740   4.995   1.630   2.705 -1.6159 -0.8385 -0.3240
   51MOL   H64133741   5.002   1.522   2.846 -0.5826 -1.4788 -3.8777
   51MOL   H64233742   4.876   1.678   2.970  2.1642  2.2555  0.1157
   51MOL   H64333743   4.735   1.592   2.701 -1.4479  0.3108 -0.0458
   51MOL   H64433744   4.783   1.477   2.827  0.0984  0.0295  0.1912
   51MOL   H64533745   4.618   1.728   2.885 -1.8655  0.0414 -1.1261
   51MOL   H64633746   4.659   1.600   2.996 -1.0664  0.0935  0.2100
   51MOL   H64733747   4.432   1.540   2.956 -0.5661  1.0156 -0.2181
   51MOL   H64833748   4.521   1.445   2.835  0.1759  0.1036 -1.6488
   51MOL   H64933749   4.482   1.627   2.665 -1.5048 -0.4593 -1.3776
   51MOL   H65033750   4.394   1.715   2.789  1.4325 -1.1076  2.7452
   51MOL   H65133751   4.231   1.550   2.805  1.5241 -1.6454  0.5482
   51MOL   H65233752   4.303   1.437   2.706  1.1140  0.2051  0.6140
   51MOL   H65333753   4.272   1.611   2.503 -1.6161 -1.2536 -0.2553
   51MOL   H65433754   4.199   1.711   2.612  3.1299 -0.1245  1.7652
   51MOL   H65533755   4.025   1.597   2.491 -0.0247  1.3833 -0.4533
   51MOL   H65633756   4.015   1.534   2.654  0.2623  0.5834 -0.1511
   51MOL   H65733757   4.160   1.340   2.586 -0.6417  2.2606  2.7531
   51MOL   H65833758   4.143   1.390   2.426 -1.3145 -0.1632 -0.9841
   51MOL   H65933759   3.964   1.207   2.544  2.9028  0.0446 -0.8426
   51MOL   H66033760   3.910   1.324   2.424  4.0680  1.6071 -1.4428
   51MOL   H66133761   3.889   1.351   2.603  1.2785  2.8415  0.0054
   51MOL   H66233762   4.852   1.772   2.822  0.9351  0.1272  1.1558
   52MOL     C133763   2.887   0.567   1.194 -0.1309  0.1948  0.0471
   52MOL     C233764   2.851   0.711   1.169  0.5056  0.9629 -0.2992
   52MOL     C333765   2.700   0.752   1.201 -0.0378  0.4773  0.0816
   52MOL     C433766   2.654   0.887   1.156  0.0463 -0.0571  0.2719
   52MOL     C533767   2.510   0.892   1.185  0.5801  0.0318 -0.0776
   52MOL     C633768   2.451   1.022   1.122 -0.8394  0.0931 -0.7875
   52MOL     C733769   2.497   1.152   1.191 -0.1840 -0.7623 -0.1546
   52MOL     C833770   2.426   1.274   1.144  0.8371 -0.4488  0.3164
   52MOL     C933771   2.472   1.399   1.221 -0.7540  0.2255 -0.4716
   52MOL    C1033772   2.388   1.527   1.216 -0.8346 -1.0078  0.4597
   52MOL    C1133773   2.374   1.587   1.078 -0.8821 -0.2601  0.1762
   52MOL    H1233774   2.975   0.540   1.136 -0.7647  2.7355 -2.1701
   52MOL    H1333775   2.801   0.509   1.162 -0.1860  0.1248  0.3162
   52MOL    H1433776   2.853   0.719   1.061  0.6334  1.3364 -0.2712
   52MOL    H1533777   2.678   0.751   1.308  1.5769  0.9265  0.4383
   52MOL    H1633778   2.637   0.679   1.150  0.3230 -0.2525  0.6689
   52MOL    H1733779   2.667   0.894   1.048 -1.6055  1.6916  0.1658
   52MOL    H1833780   2.718   0.953   1.215 -1.3118  1.4840  0.0365
   52MOL    H1933781   2.450   0.806   1.157  2.1245 -1.8884  2.3606
   52MOL    H2033782   2.487   0.894   1.292  0.8523  0.3455 -0.0261
   52MOL    H2133783   2.344   1.004   1.122 -1.0874  1.4822  1.0050
   52MOL    H2233784   2.491   1.023   1.020 -2.1016 -0.7065 -1.2932
   52MOL    H2333785   2.488   1.139   1.299 -1.1792  0.4165 -0.0798
   52MOL    H2433786   2.604   1.161   1.173 -0.2519 -0.5238 -0.4414
   52MOL    H2533787   2.322   1.250   1.169  1.7320 -1.7840  2.8599
   52MOL    H2633788   2.443   1.281   1.036  0.0655 -2.2904  0.0575
   52MOL    H2733789   2.578   1.418   1.202 -0.5271 -0.9349 -0.4026
   52MOL    H2833790   2.465   1.387   1.329  0.5223  0.0482 -0.4009
   52MOL    H2933791   2.438   1.597   1.283  0.2246 -0.2560 -1.0814
   52MOL    H3033792   2.283   1.505   1.234  0.0969 -3.2941  3.7306
   52MOL    H3133793   2.471   1.623   1.043 -1.8296  1.8912 -0.3118
   52MOL    H3233794   2.339   1.511   1.008  0.8447 -1.8296  0.9793
   52MOL    H3333795   2.303   1.670   1.081 -1.6348 -0.8793 -0.2331
   52MOL    H3433796   2.899   0.536   1.298 -2.4508  0.0273  0.2829
   52MOL    C3533797   2.955   0.819   1.221  0.3144 -1.2064 -0.0559
   52MOL    C3633798   3.100   0.816   1.172  0.2501  0.0132 -0.4006
   52MOL    C3733799   3.179   0.713   1.255 -0.0229  0.2228  0.0822
   52MOL    C3833800   3.240   0.787   1.370 -0.8700  0.2998  0.5164
   52MOL    C3933801   3.299   0.699   1.476  0.2877  0.7971 -0.4222
   52MOL    C4033802   3.352   0.782   1.596  0.4393  0.0906 -0.5453
   52MOL    C4133803   3.409   0.690   1.703 -0.0180  0.0553 -0.0215
   52MOL    C4233804   3.482   0.772   1.810 -0.0751  0.6084  0.4100
   52MOL    C4333805   3.519   0.683   1.922  0.4677 -0.1445 -0.5681
   52MOL    C4433806   3.588   0.759   2.036  0.1616  0.7315 -0.3629
   52MOL    C4533807   3.689   0.671   2.105 -0.8483 -0.8381  0.3210
   52MOL    H4633808   2.953   0.808   1.329 -0.8032  1.9620  0.3031
   52MOL    H4733809   2.924   0.921   1.199  1.5412 -1.2657 -2.2741
   52MOL    H4833810   3.145   0.911   1.201  0.7298 -0.6908  1.2325
   52MOL    H4933811   3.126   0.624   1.288  1.3221 -0.0071  1.7132
   52MOL    H5033812   3.259   0.664   1.200  0.9428  0.5582  1.1669
   52MOL    H5133813   3.174   0.845   1.435 -1.7057 -0.3228  0.2274
   52MOL    H5233814   3.316   0.853   1.329  0.1184 -0.0584  1.7694
   52MOL    H5333815   3.365   0.626   1.429  0.4888  0.8267 -0.1832
   52MOL    H5433816   3.218   0.635   1.511  2.0432 -0.6280  1.1270
   52MOL    H5533817   3.273   0.850   1.627 -0.8999 -1.2616 -0.9287
   52MOL    H5633818   3.416   0.860   1.556  0.4205 -0.1077 -0.9716
   52MOL    H5733819   3.334   0.628   1.752  1.2093 -0.4323  1.3064
   52MOL    H5833820   3.481   0.629   1.647  0.0035  0.2405 -0.1951
   52MOL    H5933821   3.415   0.852   1.841 -0.5082 -0.5865  2.6260
   52MOL    H6033822   3.567   0.815   1.757  0.5788  0.1079  1.0506
   52MOL    H6133823   3.585   0.615   1.870  0.7379  0.3307 -0.8494
   52MOL    H6233824   3.439   0.623   1.964 -0.5881  1.5510 -0.0832
   52MOL    H6333825   3.632   0.855   2.010  0.8802  0.1235 -1.4127
   52MOL    H6433826   3.508   0.772   2.109 -0.6984 -2.2169 -0.7326
   52MOL    H6533827   3.699   0.695   2.210  0.6400  3.2048 -0.6649
   52MOL    H6633828   3.662   0.566   2.119 -0.2446 -0.7053  2.6258
   52MOL    H6733829   3.788   0.674   2.060 -0.8453 -2.3746  0.1823
   52MOL    C6833830   3.125   0.809   1.022 -0.1763 -0.1088 -0.0664
   52MOL    C6933831   3.251   0.881   0.969 -0.3207 -0.6874 -0.8363
   52MOL    C7033832   3.311   0.802   0.848 -0.7909  0.2853  0.3385
   52MOL    C7133833   3.211   0.792   0.729  0.1841  0.5914 -1.0356
   52MOL    C7233834   3.278   0.752   0.593  0.3230  0.0182 -0.3354
   52MOL    C7333835   3.168   0.725   0.490 -0.5147 -0.6467 -0.1119
   52MOL    C7433836   3.221   0.670   0.351 -0.0129 -0.0905  0.2960
   52MOL    C7533837   3.119   0.673   0.233 -0.5885 -0.3984 -0.0856
   52MOL    C7633838   3.169   0.637   0.093 -0.6140 -0.9039 -0.6804
   52MOL    C7733839   3.231   0.750   0.009 -0.1462 -0.0999  0.5764
   52MOL    C7833840   3.377   0.784   0.046  0.1391  1.0891 -0.7498
   52MOL    H7933841   3.039   0.846   0.967 -0.0574 -1.8332 -1.4774
   52MOL    H8033842   3.144   0.705   0.994  2.1426  0.4635 -0.7395
   52MOL    H8133843   3.326   0.867   1.047 -0.0156 -0.9734 -1.1863
   52MOL    H8233844   3.352   0.705   0.875  1.2263  0.5201 -1.7370
   52MOL    H8333845   3.391   0.862   0.805 -0.4383  0.4662  1.2423
   52MOL    H8433846   3.146   0.711   0.762  1.2370  0.5808  1.1079
   52MOL    H8533847   3.148   0.881   0.718 -0.3571  0.4199  0.5164
   52MOL    H8633848   3.340   0.662   0.599  2.7946  1.7754  2.0134
   52MOL    H8733849   3.349   0.826   0.555 -0.1679  0.6470 -0.0342
   52MOL    H8833850   3.100   0.647   0.525 -0.1119 -0.8627  0.2077
   52MOL    H8933851   3.113   0.817   0.472  1.7337  0.4093 -1.9241
   52MOL    H9033852   3.250   0.565   0.363 -2.5175 -0.8902 -0.3580
   52MOL    H9133853   3.312   0.715   0.313  0.7526 -0.7492  1.3224
   52MOL    H9233854   3.045   0.598   0.261 -1.2288 -0.2180 -1.2589
   52MOL    H9333855   3.077   0.773   0.237  0.4504  0.0361  0.4517
   52MOL    H9433856   3.246   0.564   0.116 -0.5613 -0.3333  1.0035
   52MOL    H9533857   3.084   0.599   0.036 -1.0105 -0.6189 -0.2841
   52MOL    H9633858   3.235   0.723   7.607  1.6465 -0.9524  0.8492
   52MOL    H9733859   3.175   0.843   0.009  0.5430  0.3123  0.2354
   52MOL    H9833860   3.397   0.819   0.148  0.9785 -0.1112 -0.4930
   52MOL    H9933861   3.427   0.858   7.688 -0.8674  2.6721  0.2859
   52MOL   H10033862   3.434   0.691   0.043 -3.9301 -1.6349  1.1791
   52MOL   C10133863   3.210   1.031   0.944  0.2408 -0.1025 -0.5177
   52MOL   C10233864   3.329   1.137   0.931 -0.0539  0.0615  0.0211
   52MOL   C10333865   3.375   1.213   1.056  0.6882 -0.2983 -0.8590
   52MOL   C10433866   3.401   1.121   1.174 -0.1134  0.3372 -0.3375
   52MOL   C10533867   3.464   1.196   1.290  0.1881  0.0063  0.6746
   52MOL   C10633868   3.510   1.115   1.405 -0.2140  1.0443 -0.5523
   52MOL   C10733869   3.562   1.202   1.522  0.7682 -0.7757  0.4322
   52MOL   C10833870   3.657   1.124   1.610  0.6001  0.2772  0.0608
   52MOL   C10933871   3.732   1.208   1.714  0.5041  0.1626  0.1114
   52MOL   C11033872   3.828   1.128   1.803 -0.4725 -0.3015 -0.3595
   52MOL   C11133873   3.756   1.026   1.893 -0.4901  0.9193  0.7584
   52MOL   H11233874   3.145   1.039   0.857  0.7227  1.1650 -0.7722
   52MOL   H11333875   3.157   1.068   1.031  0.7754 -0.4050 -0.0638
   52MOL   H11433876   3.415   1.076   0.902  0.6359 -0.0254  2.1581
   52MOL   H11533877   3.463   1.273   1.033  0.1611  0.6841 -0.3609
   52MOL   H11633878   3.308   1.290   1.095  0.1850 -0.3462 -1.6271
   52MOL   H11733879   3.304   1.083   1.205 -1.4307  3.3069 -0.6074
   52MOL   H11833880   3.463   1.035   1.150  1.6931  1.2148  1.0614
   52MOL   H11933881   3.546   1.262   1.262  1.0043 -1.0966  0.4190
   52MOL   H12033882   3.381   1.252   1.331  1.2580  0.8409  1.7213
   52MOL   H12133883   3.428   1.052   1.439  0.4051 -0.7186 -2.2331
   52MOL   H12233884   3.585   1.043   1.371 -2.4916 -2.2366  1.1299
   52MOL   H12333885   3.474   1.242   1.572 -0.4042 -0.2901 -1.9026
   52MOL   H12433886   3.621   1.287   1.488  1.0539 -0.7408  1.0148
   52MOL   H12533887   3.593   1.051   1.659  0.6368  1.5685  2.1039
   52MOL   H12633888   3.733   1.067   1.556 -1.1900 -2.2446  0.1399
   52MOL   H12733889   3.784   1.286   1.660 -0.7944  1.8242  1.2113
   52MOL   H12833890   3.659   1.255   1.780 -2.7049 -0.1698 -3.0218
   52MOL   H12933891   3.872   1.202   1.869 -0.1038  1.4093 -2.4641
   52MOL   H13033892   3.911   1.084   1.748 -0.1305 -0.1103  0.0005
   52MOL   H13133893   3.672   1.078   1.940  1.1623  0.8029  3.9546
   52MOL   H13233894   3.712   0.953   1.825  0.9865  1.2012 -0.5311
   52MOL   H13333895   3.827   0.981   1.962 -1.0901  0.6048  1.1794
   52MOL   C13433896   3.281   1.238   0.820  0.0831 -0.4566  0.5582
   52MOL   C13533897   3.303   1.195   0.666 -0.2948 -0.3396  0.1514
   52MOL   C13633898   3.446   1.185   0.618 -0.4221  0.4335  0.6210
   52MOL   C13733899   3.461   1.105   0.489 -0.2009 -0.8336 -0.3106
   52MOL   C13833900   3.608   1.096   0.441 -0.0636 -0.0466 -0.3507
   52MOL   C13933901   3.620   1.027   0.311  0.0320 -0.1744  0.1191
   52MOL   C14033902   3.762   1.014   0.241  0.5917 -0.6086  0.8300
   52MOL   C14133903   3.758   0.911   0.136 -0.1773 -0.0604  0.2292
   52MOL   C14233904   3.864   0.925   0.016 -0.3157 -0.2763  0.8638
   52MOL   C14333905   3.832   0.860   7.583  0.0278 -0.7300  0.4220
   52MOL   C14433906   3.816   0.712   7.583 -0.3355 -0.0848  0.2519
   52MOL   H14533907   3.179   1.271   0.839  1.0539  0.3846  4.6155
   52MOL   H14633908   3.335   1.332   0.832 -2.1778  0.8828  0.3572
   52MOL   H14733909   3.261   1.095   0.668 -2.8716  0.7119  2.5944
   52MOL   H14833910   3.500   1.127   0.692  1.7202  1.8991  0.2748
   52MOL   H14933911   3.486   1.286   0.607  2.1220 -0.6151 -0.0347
   52MOL   H15033912   3.423   1.003   0.502 -1.6452 -0.1575  0.8599
   52MOL   H15133913   3.400   1.146   0.409  0.2291 -1.7323 -1.1155
   52MOL   H15233914   3.657   1.193   0.447 -0.2342 -0.0918  2.1850
   52MOL   H15333915   3.656   1.030   0.513 -0.1736 -0.6984 -0.8728
   52MOL   H15433916   3.588   0.924   0.327 -0.5643  0.3379  2.2811
   52MOL   H15533917   3.561   1.071   0.230 -0.0765 -0.6042 -0.0356
   52MOL   H15633918   3.802   1.111   0.213 -0.7666 -0.8572 -2.0685
   52MOL   H15733919   3.837   0.992   0.318  2.6712 -0.3853 -1.0723
   52MOL   H15833920   3.788   0.822   0.190 -0.4170  0.4232  1.1803
   52MOL   H15933921   3.660   0.909   0.087 -0.0356  1.3303 -0.1405
   52MOL   H16033922   3.877   1.029   7.691 -1.0157 -0.6203 -0.8080
   52MOL   H16133923   3.961   0.892   0.051  0.0545  0.7771  0.8264
   52MOL   H16233924   3.740   0.898   7.541  0.7714  1.6183  0.8381
   52MOL   H16333925   3.919   0.883   7.522 -1.1500  0.7132 -0.7402
   52MOL   H16433926   3.884   0.663   7.652  0.6037  1.6712  0.6061
   52MOL   H16533927   3.826   0.674   7.481  0.7051  1.8412 -0.3902
   52MOL   H16633928   3.714   0.688   7.615  0.1721 -0.4264  1.6141
   52MOL   C16733929   3.218   1.291   0.576  0.4957  0.3567  0.0110
   52MOL   C16833930   3.069   1.254   0.580 -0.4020  0.2689  0.0913
   52MOL   C16933931   3.024   1.173   0.459 -0.1439  0.3042  0.0493
   52MOL   C17033932   2.894   1.096   0.488 -0.1065 -0.1042  0.2578
   52MOL   C17133933   2.882   0.993   0.378 -0.8412 -0.4648  0.2792
   52MOL   C17233934   2.759   0.901   0.395  0.4380 -0.2286 -0.3975
   52MOL   C17333935   2.733   0.808   0.272 -1.0241  0.2564  0.4291
   52MOL   C17433936   2.643   0.686   0.309 -0.1941 -0.2872  0.4357
   52MOL   C17533937   2.571   0.622   0.194  0.3189  0.6419 -0.5218
   52MOL   C17633938   2.460   0.520   0.248 -0.1948  0.0159 -0.0241
   52MOL   C17733939   2.354   0.491   0.136 -0.2859  0.6680  0.0359
   52MOL   H17833940   3.249   1.394   0.594 -0.9677  0.5606  1.4955
   52MOL   H17933941   3.246   1.266   0.474  1.8733  3.1361 -0.3356
   52MOL   H18033942   3.054   1.206   0.676 -0.2850  0.0476 -0.0002
   52MOL   H18133943   3.098   1.097   0.432 -1.1050 -0.6112 -0.0522
   52MOL   H18233944   3.025   1.234   0.369  0.4652  1.7186  1.0117
   52MOL   H18333945   2.894   1.055   0.589  0.1925  0.4420  0.4846
   52MOL   H18433946   2.809   1.164   0.486 -0.7944 -0.9915 -1.9289
   52MOL   H18533947   2.974   0.935   0.368 -0.0855  0.7986 -0.0972
   52MOL   H18633948   2.888   1.034   0.278  0.6717  0.4654  0.7496
   52MOL   H18733949   2.771   0.839   0.484  1.5762 -0.2670 -0.5686
   52MOL   H18833950   2.670   0.954   0.428  1.2734  0.4601  0.7577
   52MOL   H18933951   2.827   0.786   0.220 -2.1590 -2.1478 -0.6396
   52MOL   H19033952   2.673   0.869   0.204 -1.5931  0.3137  0.9860
   52MOL   H19133953   2.702   0.617   0.368 -1.3329 -0.6142  1.2033
   52MOL   H19233954   2.569   0.726   0.379  1.0790 -0.0100  1.6281
   52MOL   H19333955   2.641   0.563   0.134  1.3758 -0.3269  1.6037
   52MOL   H19433956   2.520   0.699   0.137  1.4942  1.5762 -0.3272
   52MOL   H19533957   2.406   0.570   0.329 -0.3143 -0.0516 -0.0629
   52MOL   H19633958   2.513   0.433   0.287  0.3855  0.3236 -0.1175
   52MOL   H19733959   2.289   0.578   0.125 -0.1935  0.5543 -1.6329
   52MOL   H19833960   2.306   0.396   0.157  0.3589  0.0059 -1.4102
   52MOL   H19933961   2.397   0.480   0.036  0.5426 -0.1103  0.4721
   52MOL   C20033962   2.987   1.381   0.592 -0.1902 -0.6102  0.4254
   52MOL   C20133963   2.912   1.402   0.726 -1.0953  0.0472 -0.8055
   52MOL   C20233964   2.792   1.302   0.739  0.4151  0.5086 -0.5581
   52MOL   C20333965   2.670   1.345   0.650  0.6717 -0.3690 -0.1412
   52MOL   C20433966   2.553   1.241   0.627 -0.6236  1.0011  0.6721
   52MOL   C20533967   2.489   1.196   0.755 -0.3960  0.5306  0.7223
   52MOL   C20633968   2.368   1.107   0.734  0.7219  0.3428 -0.7850
   52MOL   C20733969   2.402   0.982   0.652 -0.4745 -0.3077 -0.1593
   52MOL   C20833970   2.283   0.888   0.631 -0.3565 -0.0183  0.4204
   52MOL   C20933971   2.314   0.772   0.536  0.1498 -0.1602 -0.6937
   52MOL   C21033972   2.196   0.672   0.526  0.7273  0.6523  0.8163
   52MOL   H21133973   3.033   1.474   0.558 -1.5769 -0.2459 -0.4790
   52MOL   H21233974   2.900   1.378   0.526  0.9893  0.5715 -1.2201
   52MOL   H21333975   2.978   1.371   0.806 -1.0643 -1.0339 -1.2413
   52MOL   H21433976   2.773   1.294   0.846  0.4145 -2.4409 -0.7472
   52MOL   H21533977   2.830   1.202   0.719 -0.0054  0.4180 -0.9013
   52MOL   H21633978   2.699   1.388   0.554 -0.9463  3.4364  0.9958
   52MOL   H21733979   2.637   1.437   0.698  3.0219  0.8503 -0.7951
   52MOL   H21833980   2.589   1.155   0.571 -0.9272  1.5442 -0.3723
   52MOL   H21933981   2.470   1.282   0.569 -0.5175  1.0772  0.5742
   52MOL   H22033982   2.551   1.126   0.813 -1.0569 -0.9133 -0.2830
   52MOL   H22133983   2.470   1.281   0.820 -1.6397  0.0426  1.0033
   52MOL   H22233984   2.288   1.166   0.689  0.0410  0.9793  1.1868
   52MOL   H22333985   2.343   1.083   0.837  1.4024  2.1713 -0.1663
   52MOL   H22433986   2.489   0.933   0.695 -0.6679 -0.6158 -0.1109
   52MOL   H22533987   2.416   1.023   0.552  1.6983 -1.7468 -0.4603
   52MOL   H22633988   2.196   0.936   0.587 -0.0463  0.6843  0.5652
   52MOL   H22733989   2.231   0.861   0.723 -0.3427  1.5415  0.9147
   52MOL   H22833990   2.337   0.803   0.434  0.2743 -0.0221 -0.6228
   52MOL   H22933991   2.403   0.719   0.571  0.2289  0.8620  0.6809
   52MOL   H23033992   2.154   0.666   0.626 -0.2548  0.3413  0.3855
   52MOL   H23133993   2.235   0.576   0.492 -1.4678  0.9316 -2.6408
   52MOL   H23233994   2.122   0.700   0.451 -0.5801 -1.3489  1.3394
   52MOL   C23333995   2.865   1.552   0.733 -0.3819 -0.6067 -0.7103
   52MOL   C23433996   2.979   1.656   0.755 -0.2316 -0.5838  0.1642
   52MOL   C23533997   3.049   1.636   0.892  0.5718 -0.1509 -0.0516
   52MOL   C23633998   3.170   1.732   0.925  0.3732 -0.4541  0.9594
   52MOL   C23733999   3.249   1.719   1.057  0.0829  0.1110 -0.3553
   52MOL   C23834000   3.336   1.592   1.068  0.0273  0.0419  0.2758
   52MOL   C23934001   3.377   1.558   1.213 -0.1786 -0.8839 -0.1038
   52MOL   C24034002   3.489   1.657   1.251 -0.9970  0.6785  0.1905
   52MOL   C24134003   3.522   1.652   1.405  0.4592  0.0999  0.6453
   52MOL   C24234004   3.623   1.756   1.455  0.3394 -0.3915  0.2032
   52MOL   C24334005   3.756   1.749   1.382  0.1482 -0.2960 -0.3098
   52MOL   H24434006   2.790   1.576   0.809  0.2748  1.2599 -0.6163
   52MOL   H24534007   2.817   1.576   0.638 -2.5072 -2.4869 -0.1502
   52MOL   H24634008   3.063   1.633   0.690  0.1658  1.4341 -0.0514
   52MOL   H24734009   2.972   1.666   0.964 -0.9100  0.5315 -1.8813
   52MOL   H24834010   3.085   1.536   0.914 -0.6853 -0.2977  1.4117
   52MOL   H24934011   3.145   1.838   0.932  2.4852  0.2155 -0.7861
   52MOL   H25034012   3.236   1.722   0.838 -0.7748  1.1423 -0.1220
   52MOL   H25134013   3.172   1.709   1.133  0.4872 -0.1974  0.0180
   52MOL   H25234014   3.303   1.812   1.073 -2.0180  0.9642  2.0301
   52MOL   H25334015   3.417   1.582   0.995 -1.9386 -0.2806 -1.9493
   52MOL   H25434016   3.279   1.511   1.021 -0.7892  1.2471 -0.8659
   52MOL   H25534017   3.291   1.568   1.279 -0.0140 -1.2533  0.1686
   52MOL   H25634018   3.404   1.452   1.206  0.0731 -0.8279  0.0264
   52MOL   H25734019   3.574   1.629   1.189 -0.4502  2.4503  0.1219
   52MOL   H25834020   3.475   1.762   1.222  0.6758  0.8467 -0.0627
   52MOL   H25934021   3.432   1.670   1.464  0.8865  1.4318  0.9240
   52MOL   H26034022   3.556   1.553   1.434  0.5183  0.2507  1.0997
   52MOL   H26134023   3.636   1.744   1.562  0.2721 -1.4327  0.0990
   52MOL   H26234024   3.583   1.857   1.448 -4.7668 -2.3015 -0.0533
   52MOL   H26334025   3.750   1.761   1.273 -0.9980 -1.8208 -0.4302
   52MOL   H26434026   3.817   1.662   1.402  1.5827  0.5878 -0.7811
   52MOL   H26534027   3.815   1.837   1.406 -0.4400 -0.5285  2.0749
   52MOL   C26634028   2.920   1.804   0.732  0.0506 -0.4112  0.2243
   52MOL   C26734029   2.912   1.846   0.583 -0.5551  0.5221 -0.6751
   52MOL   C26834030   3.052   1.858   0.526  0.1035  0.5625 -0.0580
   52MOL   C26934031   3.050   1.859   0.370  0.0926  0.0424  0.7259
   52MOL   C27034032   3.175   1.846   0.288  0.1483  0.5280  0.2341
   52MOL   C27134033   3.239   1.708   0.314  0.7729 -0.1650 -0.4943
   52MOL   C27234034   3.371   1.694   0.234  0.0738  0.5898 -0.0446
   52MOL   C27334035   3.441   1.564   0.259 -0.6837  0.3207  0.5715
   52MOL   C27434036   3.573   1.538   0.172  0.1074 -0.3754  0.2601
   52MOL   C27534037   3.658   1.429   0.234 -0.7425 -0.4813 -0.9285
   52MOL   C27634038   3.783   1.407   0.149  0.3360  0.5059 -0.8055
   52MOL   H27734039   2.986   1.881   0.772 -1.5379  0.8115  0.4892
   52MOL   H27834040   2.823   1.816   0.779  0.9405  0.5485  1.8741
   52MOL   H27934041   2.860   1.764   0.534  1.8550 -1.9116  0.6549
   52MOL   H28034042   3.103   1.950   0.556 -0.6184  0.4331  1.6542
   52MOL   H28134043   3.117   1.779   0.565 -1.9353 -1.1628 -0.0819
   52MOL   H28234044   3.017   1.961   0.352 -1.4031 -0.5330  0.1347
   52MOL   H28334045   2.975   1.795   0.324 -1.4707  1.8079  0.7440
   52MOL   H28434046   3.243   1.930   0.300  0.6827  0.1193  0.0843
   52MOL   H28534047   3.153   1.856   0.182 -1.6727  1.2087  0.6570
   52MOL   H28634048   3.173   1.628   0.279 -1.6772  0.7512  1.8484
   52MOL   H28734049   3.250   1.683   0.420 -1.8932  1.0217  0.0963
   52MOL   H28834050   3.343   1.701   0.129 -1.6094  3.4701  0.5425
   52MOL   H28934051   3.441   1.772   0.262  1.5699 -0.3062 -1.1754
   52MOL   H29034052   3.383   1.473   0.244  3.4411 -1.9193 -3.0737
   52MOL   H29134053   3.451   1.564   0.367 -1.2964 -0.5201  0.6294
   52MOL   H29234054   3.548   1.512   0.069 -0.3360 -1.0432  0.5325
   52MOL   H29334055   3.633   1.629   0.169 -2.1944  1.1354 -2.3982
   52MOL   H29434056   3.604   1.335   0.249  2.6801 -2.5500 -1.0643
   52MOL   H29534057   3.672   1.461   0.337 -0.5074 -0.6984 -0.8935
   52MOL   H29634058   3.775   1.353   0.055  0.2672 -0.4641 -0.2524
   52MOL   H29734059   3.841   1.335   0.207 -0.4755 -0.0658 -0.6961
   52MOL   H29834060   3.845   1.492   0.121  2.5582 -1.5294 -2.2550
   52MOL   C29934061   2.822   1.962   0.569  0.2436 -0.5978 -0.1869
   52MOL   C30034062   2.669   1.947   0.602 -0.6494 -0.6680  0.0001
   52MOL   C30134063   2.596   1.816   0.547 -0.0613 -0.5399  0.3798
   52MOL   C30234064   2.458   1.789   0.615  0.4801 -0.5086 -0.1904
   52MOL   C30334065   2.399   1.650   0.587 -0.7639  0.5821 -0.7223
   52MOL   C30434066   2.247   1.638   0.636 -1.1748  0.7268 -0.4116
   52MOL   C30534067   2.218   1.496   0.688  0.2328  0.4730 -0.4764
   52MOL   C30634068   2.070   1.472   0.731  0.5397  0.4545  0.8981
   52MOL   C30734069   2.036   1.327   0.755  0.1448 -0.3272 -0.2527
   52MOL   C30834070   2.093   1.271   0.888  0.8302  0.1723  0.1732
   52MOL   C30934071   2.054   1.126   0.922 -0.0316 -0.2508  0.0213
   52MOL   H31034072   2.817   1.990   0.463  0.3564 -0.4997 -0.1671
   52MOL   H31134073   2.869   2.045   0.622  0.3361  0.8788 -2.4697
   52MOL   H31234074   2.658   1.943   0.710  1.4231 -2.4053  0.1885
   52MOL   H31334075   2.589   1.815   0.438 -0.6639  0.0454  0.4137
   52MOL   H31434076   2.653   1.725   0.567 -0.9800 -1.1052  0.4468
   52MOL   H31534077   2.462   1.808   0.723  0.5858 -0.3172 -0.2268
   52MOL   H31634078   2.382   1.861   0.583  1.6017  1.6598  1.8505
   52MOL   H31734079   2.406   1.622   0.482 -1.3686  0.3323 -0.6978
   52MOL   H31834080   2.456   1.581   0.649 -1.4824 -0.0850 -0.7856
   52MOL   H31934081   2.175   1.673   0.561 -1.0944  1.5338 -0.1110
   52MOL   H32034082   2.240   1.702   0.723 -0.5412  1.2189 -0.7250
   52MOL   H32134083   2.229   1.430   0.602 -1.0760  1.8530 -1.7552
   52MOL   H32234084   2.294   1.465   0.759  1.4386  1.9448 -1.1023
   52MOL   H32334085   2.002   1.493   0.648 -1.5094 -0.4276  2.3140
   52MOL   H32434086   2.045   1.527   0.822  0.3910  1.4505  0.2690
   52MOL   H32534087   2.069   1.275   0.666 -0.6309 -1.0699 -0.1141
   52MOL   H32634088   1.927   1.325   0.759  0.1983 -1.3942  1.2635
   52MOL   H32734089   2.066   1.334   0.972 -0.6592 -2.1767  1.5113
   52MOL   H32834090   2.202   1.278   0.881  0.9700 -0.5281  1.3104
   52MOL   H32934091   2.125   1.076   0.987 -3.1158 -2.4452  1.8410
   52MOL   H33034092   1.953   1.125   0.964 -0.2376 -0.9701 -0.4710
   52MOL   H33134093   2.048   1.077   0.825 -0.6396  0.8146 -0.4916
   52MOL   C33234094   2.582   2.073   0.570 -0.0946  0.1138 -0.3848
   52MOL   C33334095   2.591   2.205   0.652 -0.4383 -0.3240  0.2004
   52MOL   C33434096   2.707   2.299   0.603  0.2947 -0.5520  0.3718
   52MOL   C33534097   2.688   2.444   0.652  0.1998 -0.7593 -0.5423
   52MOL   C33634098   2.739   2.541   0.557  0.1888  0.1108  0.1341
   52MOL   C33734099   2.737   2.686   0.600  0.1422  0.2211  0.5434
   52MOL   C33834100   2.788   2.775   0.485 -0.6080  0.3628  0.0111
   52MOL   C33934101   2.782   2.923   0.518  0.0394  0.4973 -0.1901
   52MOL   C34034102   2.799   3.008   0.394  0.0859  0.5037  0.0194
   52MOL   C34134103   2.810   3.155   0.426 -0.3559 -0.1360  0.1627
   52MOL   C34234104   2.782   3.252   0.305  0.5797  0.3089 -0.8460
   52MOL   H34334105   2.597   2.091   0.464 -0.8647  2.1750 -0.1606
   52MOL   H34434106   2.480   2.035   0.565  0.7277 -2.3433  0.5128
   52MOL   H34534107   2.504   2.264   0.623 -0.2038 -1.5784 -3.4194
   52MOL   H34634108   2.711   2.303   0.494 -0.2285 -0.6631  0.3453
   52MOL   H34734109   2.803   2.257   0.634  1.1411  1.7696  0.9643
   52MOL   H34834110   2.586   2.477   0.670  0.6618 -0.5347  1.7712
   52MOL   H34934111   2.737   2.453   0.749  1.6138 -0.5085 -1.2687
   52MOL   H35034112   2.838   2.515   0.519 -0.3617  1.1637 -2.0956
   52MOL   H35134113   2.670   2.546   0.472 -2.6819 -0.6674  2.3339
   52MOL   H35234114   2.792   2.705   0.692 -0.0794  0.1061  0.6970
   52MOL   H35334115   2.634   2.714   0.620  0.4026  1.6875 -0.1104
   52MOL   H35434116   2.723   2.760   0.398  1.9398 -3.0101 -1.4662
   52MOL   H35534117   2.891   2.744   0.466  1.0961  3.7195  3.2781
   52MOL   H35634118   2.689   2.949   0.568  1.3207 -0.7541  2.9869
   52MOL   H35734119   2.852   2.966   0.589  0.7646 -1.4441  0.3101
   52MOL   H35834120   2.701   3.002   0.345  0.2304  2.0932 -0.4772
   52MOL   H35934121   2.872   2.976   0.319 -0.2418  1.7681 -0.8614
   52MOL   H36034122   2.912   3.173   0.461 -0.2397  1.1482 -0.7804
   52MOL   H36134123   2.740   3.189   0.503 -1.0645  0.4641 -0.7391
   52MOL   H36234124   2.855   3.235   0.225  0.7571 -1.4230 -0.3379
   52MOL   H36334125   2.680   3.234   0.271  0.5623  0.7331 -1.0180
   52MOL   H36434126   2.801   3.354   0.336 -2.6963  1.0666 -1.1615
   52MOL   C36534127   2.606   2.188   0.808 -0.3353 -0.1534 -0.7642
   52MOL   C36634128   2.486   2.116   0.864  0.1355  0.1477 -0.2236
   52MOL   C36734129   2.516   2.060   1.009  0.3068  0.4399 -0.1221
   52MOL   C36834130   2.630   1.954   1.029  0.5711 -0.3425 -0.1501
   52MOL   C36934131   2.622   1.882   1.164 -0.6569 -0.2839  0.0726
   52MOL   C37034132   2.714   1.758   1.167  0.0501 -0.3495  0.2519
   52MOL   C37134133   2.721   1.685   1.304  0.6279  0.2687  0.8196
   52MOL   C37234134   2.851   1.609   1.327 -0.4037 -0.4764  1.1274
   52MOL   C37334135   2.862   1.478   1.242  0.0573 -0.3857  0.0821
   52MOL   C37434136   2.988   1.392   1.270  0.5170  0.2840 -0.2961
   52MOL   C37534137   3.001   1.277   1.173 -0.2803 -0.6265  0.0037
   52MOL   H37634138   2.695   2.125   0.817  0.2056  0.4818 -1.5412
   52MOL   H37734139   2.627   2.279   0.863  0.1324 -0.0114 -1.1748
   52MOL   H37834140   2.471   2.023   0.809  0.7342 -0.3440  0.4324
   52MOL   H37934141   2.424   2.015   1.045  1.3692  0.1657  2.3943
   52MOL   H38034142   2.524   2.148   1.073 -1.7477 -0.6701  1.7063
   52MOL   H38134143   2.724   2.006   1.013  1.4890 -1.8810  0.1127
   52MOL   H38234144   2.617   1.884   0.947 -1.9003  2.2425 -2.0555
   52MOL   H38334145   2.515   1.865   1.177 -0.7229 -1.0083 -1.2654
   52MOL   H38434146   2.650   1.960   1.234 -0.7742  0.4682 -0.7051
   52MOL   H38534147   2.815   1.798   1.156 -0.3031  0.1070 -1.4135
   52MOL   H38634148   2.692   1.698   1.079 -0.2829 -1.3527  1.0204
   52MOL   H38734149   2.712   1.761   1.381 -3.7843  0.3227  0.4281
   52MOL   H38834150   2.633   1.624   1.327  0.2362  0.2322 -0.7153
   52MOL   H38934151   2.868   1.596   1.434 -1.7253 -1.6284  1.2167
   52MOL   H39034152   2.932   1.675   1.296  2.4771 -3.7654  1.3223
   52MOL   H39134153   2.776   1.412   1.257 -1.1793  0.7229 -1.9221
   52MOL   H39234154   2.869   1.514   1.139  2.7001 -1.8714 -0.3002
   52MOL   H39334155   3.076   1.451   1.246  1.7234 -1.2977  0.1374
   52MOL   H39434156   3.000   1.352   1.370 -0.8775 -2.0963 -1.0200
   52MOL   H39534157   3.004   1.293   1.065  0.2069 -1.0505 -0.0471
   52MOL   H39634158   2.923   1.202   1.191 -2.8470  1.9346 -0.0425
   52MOL   H39734159   3.092   1.220   1.193  1.1227  2.0690  1.4692
   52MOL   C39834160   2.371   2.217   0.874  0.4988  0.4978 -1.1779
   52MOL   C39934161   2.233   2.151   0.907 -0.6093 -0.3745 -0.4974
   52MOL   C40034162   2.179   2.081   0.778  0.9142 -0.0505  0.2323
   52MOL   C40134163   2.044   2.007   0.795 -0.0467 -0.1694  0.1913
   52MOL   C40234164   2.004   1.925   0.673 -0.0666  0.1115  0.7282
   52MOL   C40334165   1.904   1.819   0.715  0.5453  0.2936  0.0909
   52MOL   C40434166   1.855   1.741   0.582 -0.3170 -0.0739  0.0791
   52MOL   C40534167   1.791   1.827   0.471  0.1555 -0.0661 -0.1838
   52MOL   C40634168   1.757   1.751   0.346 -0.0118 -0.3633  0.1892
   52MOL   C40734169   1.866   1.681   0.279 -0.5521 -0.5725 -0.3952
   52MOL   C40834170   1.852   1.658   0.125  0.3027  0.0782  0.2343
   52MOL   H40934171   2.367   2.282   0.786  0.2605  2.5684  0.3307
   52MOL   H41034172   2.408   2.293   0.943  2.1436 -1.5349  0.2209
   52MOL   H41134173   2.231   2.076   0.987 -1.0733  0.1841  0.0184
   52MOL   H41234174   2.251   2.010   0.738 -0.7907 -0.6363 -1.9355
   52MOL   H41334175   2.157   2.165   0.712 -2.7016  0.3043  1.7717
   52MOL   H41434176   2.054   1.930   0.872  1.6945  1.1296  1.2996
   52MOL   H41534177   1.965   2.072   0.832 -1.2779 -0.7774 -1.3399
   52MOL   H41634178   1.953   1.997   0.609  0.3928 -0.2615 -0.0658
   52MOL   H41734179   2.090   1.882   0.621 -1.7094 -2.9178  0.4234
   52MOL   H41834180   1.813   1.861   0.758 -0.2358 -3.0831  1.8836
   52MOL   H41934181   1.942   1.744   0.784 -0.0648  0.1210  0.2491
   52MOL   H42034182   1.936   1.690   0.530 -0.2540  1.1363 -1.0271
   52MOL   H42134183   1.780   1.665   0.605  0.4960 -0.4959  1.3692
   52MOL   H42234184   1.863   1.902   0.440 -0.5636  0.8303  0.2897
   52MOL   H42334185   1.704   1.880   0.511  0.5228 -0.3143  0.9520
   52MOL   H42434186   1.678   1.679   0.368  2.5744 -2.8295  1.7964
   52MOL   H42534187   1.714   1.827   0.280 -0.5496 -0.5874  0.2770
   52MOL   H42634188   1.894   1.587   0.326 -0.6956 -0.0042  0.8444
   52MOL   H42734189   1.953   1.745   0.299 -0.5366 -1.1479  1.4315
   52MOL   H42834190   1.761   1.598   0.119 -0.2795  0.9768  0.0634
   52MOL   H42934191   1.936   1.598   0.090 -0.3919 -1.4362  1.0553
   52MOL   H43034192   1.842   1.754   0.075 -1.9022  0.4249  1.2731
   52MOL   C43134193   2.130   2.264   0.951  0.1212  0.8162  0.1032
   52MOL   C43234194   2.150   2.336   1.083  0.2216 -0.0899 -0.3500
   52MOL   C43334195   2.151   2.231   1.196 -0.4640  0.3643 -0.4108
   52MOL   C43434196   2.206   2.293   1.328  0.9666  0.2879  0.7736
   52MOL   C43534197   2.204   2.193   1.447 -0.2466  0.3165 -0.0129
   52MOL   C43634198   2.297   2.073   1.424  0.3959  0.2929 -0.1240
   52MOL   C43734199   2.291   1.985   1.555 -0.2339 -0.3589 -0.2629
   52MOL   C43834200   2.386   1.862   1.552  0.5074 -0.3772  0.2923
   52MOL   C43934201   2.369   1.762   1.666 -0.2740 -0.3959  0.1152
   52MOL   C44034202   2.223   1.723   1.713  0.3870 -0.4964 -0.4127
   52MOL   C44134203   2.149   1.651   1.602  0.0931 -0.0121 -0.5632
   52MOL   H44234204   2.023   2.245   0.944  0.1612  0.5172  0.3173
   52MOL   H44334205   2.130   2.343   0.876 -2.7448  1.4343  0.6849
   52MOL   H44434206   2.252   2.374   1.076 -0.5880  2.3249  0.6620
   52MOL   H44534207   2.056   2.178   1.198  0.7047 -1.7846  2.0469
   52MOL   H44634208   2.209   2.140   1.177 -1.9886 -0.8110  0.4959
   52MOL   H44734209   2.144   2.377   1.363  0.5490 -0.8831  2.9616
   52MOL   H44834210   2.304   2.332   1.301  0.4127  0.2028 -1.4593
   52MOL   H44934211   2.108   2.157   1.483  0.1902 -0.4565  0.4080
   52MOL   H45034212   2.233   2.256   1.531 -0.5754 -0.3208  0.5857
   52MOL   H45134213   2.398   2.107   1.403  1.3835 -3.0804 -1.1486
   52MOL   H45234214   2.258   2.007   1.346 -0.0694  0.0450  0.3174
   52MOL   H45334215   2.192   1.942   1.549 -1.2982  1.6446  2.0692
   52MOL   H45434216   2.295   2.047   1.645 -1.2697 -1.9731  0.9082
   52MOL   H45534217   2.353   1.813   1.460  0.5001  0.4095 -0.1281
   52MOL   H45634218   2.489   1.892   1.534 -0.0914  2.3072  1.1485
   52MOL   H45734219   2.424   1.794   1.755 -3.1557  0.8204  1.5151
   52MOL   H45834220   2.413   1.670   1.627  0.6378  0.9802 -2.1287
   52MOL   H45934221   2.177   1.813   1.753  1.6918  0.0528 -0.1344
   52MOL   H46034222   2.224   1.663   1.804 -1.2786  0.4007  0.2096
   52MOL   H46134223   2.048   1.629   1.636  0.3867 -0.8530 -0.2156
   52MOL   H46234224   2.150   1.702   1.505 -2.9392  2.8643  0.8022
   52MOL   H46334225   2.193   1.555   1.574 -1.2266 -1.1002  1.0062
   52MOL   C46434226   2.054   2.457   1.097  0.2370 -1.0695 -0.4032
   52MOL   C46534227   2.064   2.566   0.986  0.5171 -0.3052 -0.3821
   52MOL   C46634228   1.960   2.675   1.022 -0.4625 -0.3982 -0.0085
   52MOL   C46734229   1.982   2.757   1.146 -0.4191 -0.5859  0.0459
   52MOL   C46834230   1.870   2.859   1.164  0.8035 -0.1958  0.0087
   52MOL   C46934231   1.880   2.974   1.064  0.3891 -0.2046  0.5015
   52MOL   C47034232   1.782   3.082   1.111 -0.1435 -0.9230 -0.8341
   52MOL   C47134233   1.762   3.191   1.010  0.0477  0.1691  0.6827
   52MOL   C47234234   1.891   3.275   0.965  0.2821  0.3135 -0.4172
   52MOL   C47334235   1.850   3.409   0.896  0.3895 -0.7655 -0.4836
   52MOL   C47434236   1.977   3.490   0.847 -0.2851  0.0940 -0.1894
   52MOL   H47534237   2.075   2.501   1.195  0.5194  0.3260 -1.0839
   52MOL   H47634238   1.950   2.424   1.093  0.3661 -1.6822  1.0325
   52MOL   H47734239   2.034   2.533   0.887 -2.1471  2.6444 -0.6307
   52MOL   H47834240   1.855   2.645   1.016 -0.3118 -1.0186  0.4746
   52MOL   H47934241   1.956   2.740   0.935  0.3758 -2.6161 -1.7819
   52MOL   H48034242   1.966   2.682   1.223  1.1437 -1.5140 -0.4954
   52MOL   H48134243   2.084   2.789   1.170 -0.5856 -1.4409  1.9560
   52MOL   H48234244   1.902   2.897   1.261  0.4053  1.0545 -0.3485
   52MOL   H48334245   1.771   2.813   1.164  0.9408 -0.4922 -0.3761
   52MOL   H48434246   1.977   3.016   1.038  0.5093 -0.9699 -0.3011
   52MOL   H48534247   1.849   2.943   0.964  0.5232  1.9693 -0.2270
   52MOL   H48634248   1.689   3.046   1.153  0.8695 -0.7716  1.6162
   52MOL   H48734249   1.832   3.131   1.195  0.9878 -2.8484 -0.3578
   52MOL   H48834250   1.722   3.149   0.918 -1.6709 -0.1650  1.5555
   52MOL   H48934251   1.693   3.267   1.047 -0.7139 -1.0847  1.8803
   52MOL   H49034252   1.944   3.309   1.054 -1.0847  1.5270 -0.0438
   52MOL   H49134253   1.956   3.215   0.902 -0.7515 -0.0948 -1.1003
   52MOL   H49234254   1.777   3.393   0.816 -0.4101 -1.0907  0.2971
   52MOL   H49334255   1.801   3.457   0.980  0.4198  0.7483 -1.3107
   52MOL   H49434256   1.954   3.589   0.809  1.0946  0.8336  0.8270
   52MOL   H49534257   2.033   3.450   0.763  1.3428  0.8134  0.5285
   52MOL   H49634258   2.051   3.497   0.928 -2.5882  0.3110  1.9639
   52MOL   C49734259   2.211   2.625   0.983  0.4419  0.6461 -1.0204
   52MOL   C49834260   2.234   2.760   0.910 -0.2039 -0.6263 -0.5597
   52MOL   C49934261   2.193   2.764   0.757  0.6345 -0.4235  0.2073
   52MOL   C50034262   2.277   2.662   0.667 -0.5147  0.2969 -0.1759
   52MOL   C50134263   2.224   2.618   0.535 -0.1126  0.5054 -0.1263
   52MOL   C50234264   2.289   2.492   0.479 -0.1161 -0.4653 -0.4772
   52MOL   C50334265   2.215   2.436   0.354  0.3929  0.6210 -0.3600
   52MOL   C50434266   2.095   2.347   0.392  0.2723 -0.2356 -0.1831
   52MOL   C50534267   2.002   2.329   0.266 -0.3317 -0.0802  0.7556
   52MOL   C50634268   1.894   2.222   0.300  0.2047  0.9608 -0.2145
   52MOL   C50734269   1.802   2.197   0.184  0.7131  0.7509 -0.1623
   52MOL   H50834270   2.244   2.645   1.085 -1.1300  1.0620 -0.5811
   52MOL   H50934271   2.284   2.552   0.947  0.6336  0.6095 -0.5593
   52MOL   H51034272   2.168   2.833   0.958 -1.1142 -0.3471 -2.2138
   52MOL   H51134273   2.189   2.863   0.710 -3.4157 -0.7936 -0.4144
   52MOL   H51234274   2.090   2.730   0.753  0.2705  0.8131 -2.1071
   52MOL   H51334275   2.303   2.571   0.721  1.6650  1.0587  0.0960
   52MOL   H51434276   2.369   2.721   0.661  0.0796 -0.4960  0.8613
   52MOL   H51534277   2.115   2.622   0.539 -0.1569  1.7574 -1.7536
   52MOL   H51634278   2.256   2.695   0.465  2.6420 -0.9604 -0.5591
   52MOL   H51734279   2.395   2.509   0.458 -0.4159 -0.8329 -2.4086
   52MOL   H51834280   2.283   2.416   0.556 -2.4959  0.8149  0.6576
   52MOL   H51934281   2.182   2.509   0.280 -0.0363 -1.0652 -1.8528
   52MOL   H52034282   2.293   2.376   0.308 -0.6603  0.0314 -1.3979
   52MOL   H52134283   2.045   2.395   0.475  0.7733  0.0680 -0.0539
   52MOL   H52234284   2.128   2.253   0.436  0.6478  0.2464  0.5879
   52MOL   H52334285   2.064   2.298   0.182 -2.3399  0.9607 -1.1693
   52MOL   H52434286   1.951   2.423   0.246  0.7223  0.8131  2.1452
   52MOL   H52534287   1.846   2.262   0.390 -0.0422  0.8473 -0.2958
   52MOL   H52634288   1.946   2.132   0.332  0.5523  0.4362 -2.1931
   52MOL   H52734289   1.851   2.195   0.087 -1.8349 -0.3450 -1.4806
   52MOL   H52834290   1.736   2.284   0.176 -0.2866  0.0586  0.3427
   52MOL   H52934291   1.742   2.107   0.201 -0.8581  2.1273  1.9114
   52MOL   C53034292   2.389   2.800   0.924  0.6516 -0.6273  1.0155
   52MOL   C53134293   2.421   2.947   0.876 -0.0673 -0.7630 -0.0467
   52MOL   C53234294   2.577   2.977   0.842  0.7546 -0.3030 -0.3257
   52MOL   C53334295   2.661   2.953   0.963 -0.0523 -0.4723 -0.1133
   52MOL   C53434296   2.809   2.964   0.927 -0.1777 -0.1213 -0.2647
   52MOL   C53534297   2.906   2.960   1.049  0.3802 -0.0122  0.2076
   52MOL   C53634298   2.906   3.092   1.137  0.1217  0.1606  0.0851
   52MOL   C53734299   2.914   3.228   1.061 -0.0225 -0.1792  0.8705
   52MOL   C53834300   2.786   3.312   1.040  0.5764  0.5298 -0.0810
   52MOL   C53934301   2.813   3.453   1.002 -0.2632  0.0339  0.3706
   52MOL   C54034302   2.693   3.546   0.984 -0.1311 -0.6147 -0.2154
   52MOL   H54134303   2.418   2.792   1.029 -0.6771 -0.4162  1.3966
   52MOL   H54234304   2.467   2.743   0.873 -1.3850 -0.6516 -2.1823
   52MOL   H54334305   2.384   2.963   0.774  0.3496  1.6897  0.1520
   52MOL   H54434306   2.584   3.084   0.822 -1.5657 -0.0942 -0.1568
   52MOL   H54534307   2.604   2.912   0.759 -1.0030 -1.0902 -0.2960
   52MOL   H54634308   2.637   2.861   1.015  0.1767 -0.5229 -0.0958
   52MOL   H54734309   2.634   3.028   1.038 -0.8694  0.2295 -1.1052
   52MOL   H54834310   2.825   3.054   0.866  0.3627 -0.4258 -0.5707
   52MOL   H54934311   2.821   2.882   0.857  1.7546 -0.5159  0.4881
   52MOL   H55034312   3.005   2.948   1.003  0.7120 -0.2453  0.9727
   52MOL   H55134313   2.887   2.868   1.104  3.6342 -0.3472  0.8815
   52MOL   H55234314   2.989   3.085   1.207 -0.4117  0.2268  0.7330
   52MOL   H55334315   2.815   3.089   1.197  0.2823  2.1093  0.4487
   52MOL   H55434316   2.982   3.233   0.977  0.5869  1.3190  1.4443
   52MOL   H55534317   2.968   3.294   1.129 -0.0989  0.9790 -0.1911
   52MOL   H55634318   2.729   3.311   1.133 -0.4573 -2.1233 -0.6834
   52MOL   H55734319   2.726   3.255   0.969  0.3102  1.7857 -0.8773
   52MOL   H55834320   2.885   3.454   0.920 -1.4197  0.1285 -0.6542
   52MOL   H55934321   2.871   3.499   1.082  0.8330 -1.1275  0.2597
   52MOL   H56034322   2.608   3.487   0.952 -2.0702  1.7129  0.5249
   52MOL   H56134323   2.659   3.590   1.077 -1.9225 -0.1436 -1.0747
   52MOL   H56234324   2.718   3.623   0.911  1.5879 -1.5247 -0.6235
   52MOL   C56334325   2.360   3.057   0.971 -0.9180 -0.2108 -0.2007
   52MOL   C56434326   2.364   3.206   0.922  0.0310 -0.3524 -0.6206
   52MOL   C56534327   2.319   3.300   1.034 -0.1028 -0.2154  0.1649
   52MOL   C56634328   2.405   3.306   1.165 -0.5734 -0.0936  0.3276
   52MOL   C56734329   2.416   3.437   1.242  0.1597 -0.1463 -0.1156
   52MOL   C56834330   2.289   3.472   1.330  0.6247 -0.1548 -0.2606
   52MOL   C56934331   2.151   3.444   1.268  0.1542 -0.0928 -0.1513
   52MOL   C57034332   2.038   3.525   1.339 -0.2593 -0.1280 -0.0064
   52MOL   C57134333   1.899   3.490   1.293  0.5477  0.2919  0.0389
   52MOL   C57234334   1.786   3.533   1.378  0.8961 -0.0466 -0.8304
   52MOL   C57334335   1.759   3.465   1.508 -0.0212  0.2304 -0.7341
   52MOL   H57434336   2.396   3.048   1.073 -0.4198  0.4873 -0.3067
   52MOL   H57534337   2.254   3.035   0.970 -1.0546  0.4468  0.3769
   52MOL   H57634338   2.471   3.224   0.909  0.2502 -0.2950  1.0964
   52MOL   H57734339   2.215   3.276   1.053 -0.5339 -1.3495 -3.2504
   52MOL   H57834340   2.315   3.401   0.993  0.3863  0.0251  0.6971
   52MOL   H57934341   2.508   3.278   1.144 -1.0027 -1.0983 -0.5023
   52MOL   H58034342   2.365   3.227   1.230 -0.8675  1.3575  1.9496
   52MOL   H58134343   2.428   3.519   1.171  3.2352 -0.7808 -0.4018
   52MOL   H58234344   2.505   3.445   1.303  0.0260 -0.9061  0.1834
   52MOL   H58334345   2.296   3.417   1.424  0.0036 -0.0156 -0.1279
   52MOL   H58434346   2.300   3.578   1.351  0.9873 -0.3675  0.6451
   52MOL   H58534347   2.154   3.471   1.163  2.4599 -0.4922 -0.2178
   52MOL   H58634348   2.129   3.337   1.271  1.4545 -0.3558  0.4356
   52MOL   H58734349   2.056   3.633   1.336 -0.5960 -0.0993 -1.3642
   52MOL   H58834350   2.042   3.490   1.442  1.7744  0.5829  0.1883
   52MOL   H58934351   1.891   3.382   1.279 -2.0309  0.0575  2.7387
   52MOL   H59034352   1.892   3.520   1.189  2.0813  1.0217  0.1343
   52MOL   H59134353   1.702   3.503   1.316  2.1472 -0.4690 -2.3334
   52MOL   H59234354   1.781   3.642   1.381 -0.5715 -0.0832 -1.1411
   52MOL   H59334355   1.751   3.359   1.483  0.7703  0.2265 -0.9707
   52MOL   H59434356   1.840   3.487   1.577 -0.9013 -0.5692  0.5692
   52MOL   H59534357   1.669   3.500   1.559  1.3724 -0.1904  2.0850
   52MOL   C59634358   2.294   3.238   0.784 -0.4665  0.0696 -0.0810
   52MOL   C59734359   2.402   3.283   0.679  0.0537  0.2538  0.7821
   52MOL   C59834360   2.425   3.432   0.699  0.3162  0.5499  0.2489
   52MOL   C59934361   2.574   3.470   0.670 -0.3900  0.4561 -0.1285
   52MOL   C60034362   2.605   3.618   0.644 -0.3084 -0.2884 -0.2976
   52MOL   C60134363   2.744   3.636   0.574 -0.1388  0.3744  0.5360
   52MOL   C60234364   2.755   3.781   0.516 -0.4901  0.5635  0.3415
   52MOL   C60334365   2.890   3.818   0.458 -0.7125 -0.3343 -0.7174
   52MOL   C60434366   2.913   3.966   0.410 -0.1318 -0.1660 -0.4200
   52MOL   C60534367   3.052   3.980   0.348 -0.8621  0.3899  0.4001
   52MOL   C60634368   3.098   4.121   0.330  0.1048 -0.3839 -0.2977
   52MOL   H60734369   2.244   3.146   0.752 -0.1708 -0.4269  0.8868
   52MOL   H60834370   2.211   3.309   0.787 -0.5289 -0.0502  0.9615
   52MOL   H60934371   2.495   3.227   0.691  0.2740  0.1706 -1.2008
   52MOL   H61034372   2.411   3.462   0.803 -0.8500  1.5903 -0.1995
   52MOL   H61134373   2.351   3.497   0.651 -0.0346 -0.5839 -0.7527
   52MOL   H61234374   2.597   3.424   0.574  1.5855  1.0749  0.0326
   52MOL   H61334375   2.647   3.429   0.739  1.9086  1.0018 -2.1526
   52MOL   H61434376   2.607   3.663   0.743  1.1926 -2.9248  0.9416
   52MOL   H61534377   2.527   3.657   0.580 -0.8741  0.3231  0.7531
   52MOL   H61634378   2.826   3.613   0.642  0.8449  2.9589  0.2924
   52MOL   H61734379   2.744   3.562   0.494 -1.6632 -0.0257  0.8839
   52MOL   H61834380   2.733   3.857   0.591  1.3128  0.3788  1.0770
   52MOL   H61934381   2.689   3.792   0.430 -0.0966  0.5164  0.0317
   52MOL   H62034382   2.905   3.747   0.377  2.5993 -1.6633  0.9843
   52MOL   H62134383   2.963   3.784   0.531  0.6266 -1.5938 -2.6111
   52MOL   H62234384   2.834   3.990   0.339 -1.2861  0.3854  1.0360
   52MOL   H62334385   2.883   4.039   0.485  0.9048  0.1032 -0.2635
   52MOL   H62434386   3.049   3.925   0.254 -0.5825 -1.4889  1.4533
   52MOL   H62534387   3.124   3.931   0.414 -1.4206  0.9962  1.4703
   52MOL   H62634388   3.196   4.132   0.285 -0.2721  0.8172 -0.8627
   52MOL   H62734389   3.030   4.175   0.263 -2.0286 -0.5182  1.6871
   52MOL   H62834390   3.110   4.170   0.427 -0.8302 -2.5510  0.9359
   52MOL   C62934391   2.356   3.249   0.534  0.2600 -0.1626 -0.5569
   52MOL   C63034392   2.354   3.102   0.495 -0.3462 -0.2967 -0.4233
   52MOL   C63134393   2.374   3.069   0.345  0.0023 -0.0627 -0.8903
   52MOL   C63234394   2.399   2.917   0.325  0.5785 -0.0003 -0.0696
   52MOL   C63334395   2.432   2.883   0.180  0.5219  0.4740 -0.6110
   52MOL   C63434396   2.429   2.735   0.160  0.3209  0.0854  0.5222
   52MOL   C63534397   2.455   2.709   0.015  0.2589  0.0077  0.3441
   52MOL   C63634398   2.443   2.558   7.679 -0.0698  0.0531 -0.3825
   52MOL   C63734399   2.461   2.535   7.531 -0.4443 -0.1878 -0.0071
   52MOL   C63834400   2.470   2.387   7.507  0.3111 -0.4901 -0.7556
   52MOL   C63934401   2.339   2.306   7.503 -0.0665  0.6096  0.2265
   52MOL   H64034402   2.262   3.298   0.511  1.1969 -0.0390 -4.3958
   52MOL   H64134403   2.420   3.305   0.466  0.5691  1.2197  0.8538
   52MOL   H64234404   2.440   3.061   0.548 -0.5595  0.8872  0.8895
   52MOL   H64334405   2.279   3.081   0.293 -0.5593 -1.8259 -0.3059
   52MOL   H64434406   2.456   3.127   0.302  0.5846  0.6435  1.0857
   52MOL   H64534407   2.302   2.870   0.346 -0.6185  1.7922 -1.4100
   52MOL   H64634408   2.465   2.877   0.402 -0.3752 -0.7869  0.3727
   52MOL   H64734409   2.532   2.918   0.155  0.0526  0.1632 -3.0458
   52MOL   H64834410   2.363   2.939   0.116 -0.2442 -0.1436 -0.3384
   52MOL   H64934411   2.327   2.699   0.173  0.6436 -0.2202  2.2502
   52MOL   H65034412   2.504   2.679   0.216 -1.1863 -2.0412  0.4469
   52MOL   H65134413   2.554   2.740   7.684  0.0391  0.7450  0.3612
   52MOL   H65234414   2.388   2.773   7.662  0.0885  0.3954  0.9870
   52MOL   H65334415   2.345   2.524   0.010 -0.2393  1.7765  0.8908
   52MOL   H65434416   2.507   2.494   0.036 -0.9559 -0.5960 -0.1133
   52MOL   H65534417   2.554   2.584   7.502  0.7651 -0.7015  2.8744
   52MOL   H65634418   2.383   2.571   7.465  1.1370 -0.0524 -1.8413
   52MOL   H65734419   2.536   2.350   7.585 -1.2625 -1.0526  0.3429
   52MOL   H65834420   2.514   2.347   7.416  0.3467 -0.9244 -0.5545
   52MOL   H65934421   2.368   2.203   7.522  0.7813  1.2248  2.5028
   52MOL   H66034422   2.287   2.323   7.409  0.1336 -1.8536 -0.3635
   52MOL   H66134423   2.279   2.330   7.591  1.5055  1.2385  1.1367
   52MOL   H66234424   2.262   3.059   0.535 -0.9628  1.1806 -0.1915
   53MOL     C134425   1.035   4.072   0.333 -0.4574  0.1552  0.0669
   53MOL     C234426   1.093   4.216   0.334 -0.4786 -0.0765 -0.5688
   53MOL     C334427   1.222   4.225   0.255  0.2374 -0.2571 -0.3655
   53MOL     C434428   1.338   4.156   0.322 -0.9543 -0.1333 -0.4290
   53MOL     C534429   1.472   4.231   0.273 -0.4434 -0.0959  0.4255
   53MOL     C634430   1.604   4.169   0.314  0.0604  0.1718 -0.4721
   53MOL     C734431   1.733   4.216   0.236 -0.2117  1.1819 -0.0378
   53MOL     C834432   1.752   4.359   0.195  0.1583 -0.0244  0.1252
   53MOL     C934433   1.893   4.403   0.148 -0.0716  0.5905 -1.0333
   53MOL    C1034434   2.006   4.384   0.260 -0.5829 -0.1519  0.7960
   53MOL    C1134435   2.150   4.386   0.205  0.5002  0.2717  0.7007
   53MOL    H1234436   1.103   4.002   0.382  0.2614  0.3081 -0.7008
   53MOL    H1334437   1.033   4.028   0.234  0.7042  1.6520 -0.6348
   53MOL    H1434438   1.117   4.249   0.436  0.9873 -0.7940 -0.6689
   53MOL    H1534439   1.250   4.330   0.247  0.3770 -0.1865  0.9528
   53MOL    H1634440   1.208   4.185   0.154 -1.9312  0.8478 -0.5408
   53MOL    H1734441   1.345   4.055   0.280 -1.7871 -0.0076 -0.8775
   53MOL    H1834442   1.318   4.144   0.428 -0.0335 -0.3556 -0.2751
   53MOL    H1934443   1.470   4.218   0.165  0.4056 -1.1758  0.5382
   53MOL    H2034444   1.463   4.338   0.294 -1.0970 -0.4273  1.9522
   53MOL    H2134445   1.597   4.062   0.296  1.0967 -0.2308  1.3327
   53MOL    H2234446   1.610   4.177   0.423  1.5078 -3.1007 -0.2680
   53MOL    H2334447   1.818   4.184   0.296 -0.2521  2.3425  0.6641
   53MOL    H2434448   1.736   4.154   0.146 -0.6905 -0.3861  1.0235
   53MOL    H2534449   1.736   4.416   0.287  0.3499  0.0404  0.1172
   53MOL    H2634450   1.672   4.393   0.128 -2.2510 -1.2222  2.2859
   53MOL    H2734451   1.893   4.511   0.140  3.0387  0.8406  1.2982
   53MOL    H2834452   1.919   4.356   0.053  0.6263  2.2372 -1.6690
   53MOL    H2934453   1.998   4.283   0.301  0.4638  1.0297  4.1038
   53MOL    H3034454   1.992   4.452   0.344 -1.5171 -0.1940  0.6825
   53MOL    H3134455   2.190   4.480   0.167 -1.6479  0.5993 -0.8374
   53MOL    H3234456   2.225   4.350   0.275 -1.2372  0.6784  2.8390
   53MOL    H3334457   2.151   4.312   0.125  0.9443  0.7334  0.2777
   53MOL    H3434458   0.938   4.061   0.381 -0.5819  0.6599 -0.0720
   53MOL    C3534459   0.984   4.317   0.279 -0.0134  0.7985  0.0881
   53MOL    C3634460   1.014   4.462   0.320 -0.2120 -0.0590  0.5199
   53MOL    C3734461   0.940   4.559   0.221  0.3237 -1.0166  0.1751
   53MOL    C3834462   1.019   4.578   0.096 -0.9000 -0.2308  0.2065
   53MOL    C3934463   1.007   4.717   0.028  0.5347  0.3290 -0.1011
   53MOL    C4034464   0.865   4.738   7.681  0.5056  0.3285  0.0490
   53MOL    C4134465   0.854   4.850   7.576  0.0959 -0.1819 -0.3099
   53MOL    C4234466   0.853   4.989   7.642 -0.5702  0.1253 -0.6057
   53MOL    C4334467   0.819   5.102   7.545 -1.0847 -0.1423 -0.3943
   53MOL    C4434468   0.915   5.111   7.422 -0.0260 -0.4531  0.1862
   53MOL    C4534469   0.851   5.213   7.313 -0.4890  0.8802  0.3936
   53MOL    H4634470   0.886   4.297   0.324  0.0060  0.6559  0.0670
   53MOL    H4734471   0.969   4.293   0.173 -0.9448  0.4270  0.2986
   53MOL    H4834472   1.120   4.487   0.313 -0.4771  2.1695  3.4693
   53MOL    H4934473   0.849   4.504   0.196  0.7074 -0.5986 -2.3060
   53MOL    H5034474   0.901   4.646   0.274 -2.2867 -1.0547 -1.6231
   53MOL    H5134475   0.997   4.498   0.026  3.2241  0.2260 -1.7660
   53MOL    H5234476   1.124   4.568   0.124 -1.3009 -0.8729  1.5243
   53MOL    H5334477   1.071   4.729   7.644  0.0519  1.9802 -0.2484
   53MOL    H5434478   1.025   4.798   0.099 -0.0898  0.1994  0.2079
   53MOL    H5534479   0.793   4.770   0.053 -0.4570 -2.6153  0.4472
   53MOL    H5634480   0.822   4.644   7.645  2.3242  0.2138 -1.9416
   53MOL    H5734481   0.940   4.853   7.509 -1.0252 -2.3791 -1.9154
   53MOL    H5834482   0.768   4.842   7.510 -0.5832 -0.7095  0.6305
   53MOL    H5934483   0.948   5.010   7.692  0.3019 -1.7935 -1.3899
   53MOL    H6034484   0.784   4.990   0.022  0.6169  1.7666  0.4040
   53MOL    H6134485   0.813   5.199   7.593 -4.6106  0.1194 -1.2015
   53MOL    H6234486   0.715   5.103   7.512 -0.9987 -0.3479 -0.6738
   53MOL    H6334487   1.008   5.154   7.460  0.0653 -0.6319  0.1666
   53MOL    H6434488   0.938   5.016   7.374  0.7713  1.0040 -2.4203
   53MOL    H6534489   0.921   5.242   7.235 -0.7416  2.3047  0.6851
   53MOL    H6634490   0.757   5.190   7.264  1.0031 -3.3679 -0.6626
   53MOL    H6734491   0.822   5.303   7.367  0.8096  1.8286 -0.4501
   53MOL    C6834492   0.973   4.486   0.464  0.4961  0.2937  0.5574
   53MOL    C6934493   1.041   4.604   0.537 -0.6735  0.4669 -0.0731
   53MOL    C7034494   0.950   4.683   0.634  0.0893 -0.4669  0.4107
   53MOL    C7134495   0.820   4.752   0.572 -0.1088 -1.1412  0.4460
   53MOL    C7234496   0.848   4.880   0.489 -0.3145 -0.4530 -0.0302
   53MOL    C7334497   0.724   4.965   0.451 -0.7528 -0.2468 -0.5664
   53MOL    C7434498   0.757   5.097   0.368  0.5988  0.5705  0.2335
   53MOL    C7534499   0.637   5.171   0.313 -0.1428  0.3218 -0.0073
   53MOL    C7634500   0.669   5.289   0.220  0.3238  1.0904 -0.1640
   53MOL    C7734501   0.538   5.365   0.185 -0.1900 -0.5015  0.1729
   53MOL    C7834502   0.562   5.486   0.090 -0.0497  0.7018 -0.3982
   53MOL    H7934503   0.984   4.400   0.530 -0.1539  1.5235  2.3240
   53MOL    H8034504   0.865   4.503   0.467  0.4474 -0.1838  2.9646
   53MOL    H8134505   1.065   4.672   0.456  1.8011 -2.1215 -1.5812
   53MOL    H8234506   1.008   4.759   0.686 -0.1188  1.5605 -2.2087
   53MOL    H8334507   0.917   4.609   0.706  1.7396 -0.6343  1.0009
   53MOL    H8434508   0.759   4.687   0.510  1.8232 -3.8966  1.3175
   53MOL    H8534509   0.755   4.775   0.657 -1.0601  1.1929 -0.8608
   53MOL    H8634510   0.893   4.860   0.391  0.5340 -1.2830  0.5132
   53MOL    H8734511   0.921   4.942   0.541  1.3988 -3.0896  0.8175
   53MOL    H8834512   0.655   4.905   0.392 -0.4876 -1.7710  0.6499
   53MOL    H8934513   0.664   4.979   0.540  0.4402 -0.9147  0.3584
   53MOL    H9034514   0.829   5.071   0.291  0.7452  3.5926 -0.7299
   53MOL    H9134515   0.808   5.172   0.429  1.9078 -0.4050  0.3653
   53MOL    H9234516   0.572   5.107   0.254  0.9331 -0.8217  0.0298
   53MOL    H9334517   0.577   5.220   0.391 -0.0966  0.0412  0.2057
   53MOL    H9434518   0.738   5.366   0.253 -1.2485  1.7269  1.7611
   53MOL    H9534519   0.719   5.244   0.134 -0.9147 -1.5196  0.4409
   53MOL    H9634520   0.465   5.297   0.141  0.9216 -1.6795  0.1361
   53MOL    H9734521   0.494   5.400   0.278  1.7270 -0.4978  1.0943
   53MOL    H9834522   0.470   5.529   0.050 -0.9795 -0.7019  0.2182
   53MOL    H9934523   0.625   5.451   0.008  0.0150 -1.2353  0.4595
   53MOL   H10034524   0.613   5.572   0.134 -1.9946  0.6742  1.9992
   53MOL   C10134525   1.173   4.570   0.605 -0.1264 -0.6743  0.3077
   53MOL   C10234526   1.289   4.669   0.578 -0.3310 -0.0050 -0.3038
   53MOL   C10334527   1.365   4.628   0.447 -0.4812 -0.2682  0.3308
   53MOL   C10434528   1.469   4.724   0.406 -0.2185 -0.6379 -0.6336
   53MOL   C10534529   1.524   4.735   0.264 -0.1976  0.8315 -0.3805
   53MOL   C10634530   1.405   4.763   0.164  0.6783  0.0825 -0.0372
   53MOL   C10734531   1.453   4.789   0.023 -0.4202 -0.2770  0.0515
   53MOL   C10834532   1.519   4.671   7.658  0.2007 -0.1006  0.0157
   53MOL   C10934533   1.420   4.554   7.648 -0.0126  0.2132 -0.4691
   53MOL   C11034534   1.480   4.441   7.567 -0.2948  0.3267  0.3127
   53MOL   C11134535   1.385   4.319   7.567 -0.1709 -0.1303 -0.3861
   53MOL   H11234536   1.151   4.554   0.710 -1.5786 -2.2356 -0.2018
   53MOL   H11334537   1.208   4.470   0.580  0.6377 -1.0755  2.8693
   53MOL   H11434538   1.252   4.770   0.568  1.8973  1.1628  2.4966
   53MOL   H11534539   1.402   4.528   0.471  1.0023 -0.5825 -2.9545
   53MOL   H11634540   1.298   4.618   0.361  0.9209 -1.2646 -0.6619
   53MOL   H11734541   1.430   4.822   0.436  1.0945 -0.6667  1.2176
   53MOL   H11834542   1.553   4.703   0.472  0.1904  0.4150 -0.8090
   53MOL   H11934543   1.608   4.804   0.258  1.3058 -0.8412  1.0847
   53MOL   H12034544   1.569   4.638   0.244 -0.2091  0.6641  0.3990
   53MOL   H12134545   1.328   4.686   0.161  2.3481 -1.7218  1.7980
   53MOL   H12234546   1.366   4.862   0.189  1.1883  0.8538 -2.2063
   53MOL   H12334547   1.515   4.878   0.021  0.4597 -0.8602  1.2862
   53MOL   H12434548   1.362   4.824   7.676 -1.1014 -1.1161  0.6844
   53MOL   H12534549   1.555   4.702   7.560 -2.0758 -2.8733 -1.7712
   53MOL   H12634550   1.611   4.649   0.010  1.3755  0.3830 -1.7156
   53MOL   H12734551   1.383   4.529   0.044 -1.5672  3.2391 -0.2207
   53MOL   H12834552   1.328   4.580   7.596 -0.9405 -1.2107  0.4416
   53MOL   H12934553   1.580   4.424   7.607 -0.5840 -1.7571  0.1809
   53MOL   H13034554   1.487   4.459   7.459  0.3497 -0.2821  0.2538
   53MOL   H13134555   1.302   4.339   7.499  0.6448  0.2849 -1.2788
   53MOL   H13234556   1.437   4.228   7.536  2.1451 -0.0210  2.8683
   53MOL   H13334557   1.349   4.305   7.669 -0.1536 -2.8013 -0.7146
   53MOL   C13434558   1.382   4.681   0.711  0.1820 -0.2207 -0.5594
   53MOL   C13534559   1.317   4.775   0.818 -0.1968 -0.1181  0.2717
   53MOL   C13634560   1.350   4.926   0.783 -0.0832 -0.0958  0.2576
   53MOL   C13734561   1.265   5.026   0.862 -0.1958 -0.1216 -0.1206
   53MOL   C13834562   1.298   5.168   0.808  0.0509 -0.4602  0.2752
   53MOL   C13934563   1.251   5.274   0.901 -0.0971 -0.0535  0.9211
   53MOL   C14034564   1.278   5.418   0.859 -0.4735 -0.8723  0.6388
   53MOL   C14134565   1.268   5.517   0.973  0.2282 -0.3621  0.7488
   53MOL   C14234566   1.264   5.665   0.921 -0.0120  0.1368  0.8175
   53MOL   C14334567   1.300   5.751   1.045 -0.2297  0.2015  0.7007
   53MOL   C14434568   1.312   5.900   1.032  0.0815 -0.3808 -0.2988
   53MOL   H14534569   1.406   4.580   0.744 -1.0714 -0.5628 -0.6555
   53MOL   H14634570   1.479   4.721   0.682  1.1574 -0.7805  1.7875
   53MOL   H14734571   1.209   4.767   0.828 -0.0845 -1.0076  0.7689
   53MOL   H14834572   1.319   4.938   0.680  1.4381  1.4817 -0.0366
   53MOL   H14934573   1.457   4.949   0.791  0.3325 -0.7676 -2.8459
   53MOL   H15034574   1.158   5.015   0.848 -0.4677  2.0634  0.0386
   53MOL   H15134575   1.290   5.026   0.968 -1.9437 -0.4166  0.3087
   53MOL   H15234576   1.405   5.187   0.814  0.1021 -0.6650  0.0060
   53MOL   H15334577   1.269   5.185   0.705  0.6565 -1.6777 -0.0998
   53MOL   H15434578   1.144   5.261   0.916 -0.1871 -0.3553  0.0339
   53MOL   H15534579   1.298   5.246   0.996 -0.4078  0.1563  1.1380
   53MOL   H15634580   1.373   5.422   0.806  0.0127 -0.7110  1.5163
   53MOL   H15734581   1.205   5.441   0.782 -0.2210 -1.5639  0.1877
   53MOL   H15834582   1.184   5.497   1.039  0.0657  0.7733  0.8996
   53MOL   H15934583   1.351   5.512   1.043 -1.3525 -0.1892  2.6760
   53MOL   H16034584   1.345   5.675   0.849 -0.8937 -3.0210 -0.7308
   53MOL   H16134585   1.167   5.694   0.880 -0.7640 -0.5641  2.0455
   53MOL   H16234586   1.215   5.727   1.110 -1.0708 -0.6310 -0.6879
   53MOL   H16334587   1.384   5.708   1.100  0.4339  2.0652  1.1931
   53MOL   H16434588   1.384   5.921   0.953  1.5843  1.8497  1.6096
   53MOL   H16534589   1.358   5.932   1.125  1.3398 -0.2445 -0.9620
   53MOL   H16634590   1.214   5.946   1.017 -0.7321 -1.5373  1.3430
   53MOL   C16734591   1.377   4.756   0.967  0.0288  0.1487  0.2429
   53MOL   C16834592   1.323   4.638   1.046  0.0314 -0.3728 -0.3892
   53MOL   C16934593   1.179   4.652   1.092  0.1770 -0.8058 -0.0888
   53MOL   C17034594   1.109   4.511   1.118  1.0701  0.8376  0.3207
   53MOL   C17134595   0.985   4.521   1.202  0.1537  0.5139  0.7092
   53MOL   C17234596   0.877   4.613   1.138  0.0525 -0.2648 -0.6001
   53MOL   C17334597   0.738   4.584   1.203  0.6473 -0.4866 -0.3044
   53MOL   C17434598   0.625   4.685   1.171 -0.1625  0.0469  0.0182
   53MOL   C17534599   0.495   4.639   1.238  0.2939 -0.2977  0.5512
   53MOL   C17634600   0.373   4.735   1.234  0.2317  0.3429  0.2658
   53MOL   C17734601   0.285   4.736   1.106  0.3704  0.0448  0.2905
   53MOL   H17834602   1.484   4.743   0.950  0.3517  1.8506  0.8844
   53MOL   H17934603   1.367   4.841   1.035 -1.4612  0.3940 -0.2451
   53MOL   H18034604   1.338   4.549   0.985  3.4617 -0.3153  0.2657
   53MOL   H18134605   1.118   4.703   1.017 -0.6724 -0.5114  0.7988
   53MOL   H18234606   1.170   4.718   1.178  1.4237 -1.6690  0.7192
   53MOL   H18334607   1.086   4.461   1.024 -0.3745  0.1877  0.9986
   53MOL   H18434608   1.174   4.448   1.178  0.6202 -0.8814 -0.9554
   53MOL   H18534609   1.009   4.581   1.290  1.0059  0.6813  0.3688
   53MOL   H18634610   0.946   4.422   1.227  1.5427  0.1286  1.3566
   53MOL   H18734611   0.904   4.716   1.160 -1.1219 -0.4608  2.0209
   53MOL   H18834612   0.871   4.607   1.030  0.5674  0.8509 -0.6880
   53MOL   H18934613   0.749   4.587   1.312 -3.3664 -2.8473  0.2399
   53MOL   H19034614   0.719   4.480   1.176  3.7350 -0.7603 -1.6774
   53MOL   H19134615   0.652   4.790   1.184  1.9983 -0.4772  0.0638
   53MOL   H19234616   0.602   4.677   1.065  1.2614  2.3367 -0.4859
   53MOL   H19334617   0.525   4.629   1.342 -1.6016  0.0226  1.1429
   53MOL   H19434618   0.461   4.542   1.203  1.6092 -0.6818  0.2904
   53MOL   H19534619   0.408   4.838   1.245  0.8122  0.3269 -1.2019
   53MOL   H19634620   0.314   4.725   1.325  0.8444 -2.8602  0.3646
   53MOL   H19734621   0.198   4.801   1.117  0.6938  0.5215  0.0954
   53MOL   H19834622   0.244   4.636   1.096  1.5553 -0.5150  0.9172
   53MOL   H19934623   0.336   4.768   1.015 -0.9906  2.7864  0.4470
   53MOL   C20034624   1.404   4.618   1.180 -0.2179 -0.4795  0.2885
   53MOL   C20134625   1.558   4.593   1.182  0.3805 -0.4464 -0.8155
   53MOL   C20234626   1.639   4.720   1.187  0.5959  0.3261 -1.3922
   53MOL   C20334627   1.637   4.799   1.321 -0.5616  0.1106 -0.0497
   53MOL   C20434628   1.747   4.738   1.412 -0.3977 -0.5397 -0.2498
   53MOL   C20534629   1.771   4.828   1.531 -0.4809  0.3351  0.2998
   53MOL   C20634630   1.868   4.768   1.626 -0.2471 -0.0436  0.2578
   53MOL   C20734631   1.852   4.820   1.770 -0.0058 -0.0911  0.4338
   53MOL   C20834632   1.942   4.754   1.865 -0.0713  0.1802 -0.3034
   53MOL   C20934633   2.064   4.836   1.899  0.7689  0.1205  0.3311
   53MOL   C21034634   2.180   4.751   1.930 -0.4150 -0.2280 -0.6985
   53MOL   H21134635   1.384   4.705   1.242  0.6288 -0.9008  1.1628
   53MOL   H21234636   1.349   4.545   1.239 -1.6677 -1.3603 -2.0902
   53MOL   H21334637   1.569   4.546   1.279  0.3324  1.9537  0.3865
   53MOL   H21434638   1.619   4.794   1.110 -0.3111 -0.2308 -1.6959
   53MOL   H21534639   1.739   4.678   1.173  0.6814 -0.0732  0.2924
   53MOL   H21634640   1.536   4.796   1.362 -0.6167  0.3376 -0.1708
   53MOL   H21734641   1.662   4.901   1.292  3.8934 -0.8399  0.0973
   53MOL   H21834642   1.844   4.732   1.363  0.4494 -0.5629  1.3952
   53MOL   H21934643   1.711   4.639   1.441  0.9066 -0.9954 -0.1602
   53MOL   H22034644   1.802   4.925   1.491  0.0748 -0.3478 -0.9408
   53MOL   H22134645   1.672   4.842   1.576 -0.6458 -0.6413  0.2507
   53MOL   H22234646   1.967   4.773   1.579 -0.3159  1.0967  0.2042
   53MOL   H22334647   1.844   4.662   1.625 -0.6364  0.0422 -1.1036
   53MOL   H22434648   1.749   4.806   1.803  0.1271  0.3134  1.0296
   53MOL   H22534649   1.861   4.928   1.778 -1.2660 -0.0045  0.6721
   53MOL   H22634650   1.974   4.658   1.823  0.9776  1.0826 -1.6198
   53MOL   H22734651   1.898   4.730   1.961  1.5752 -1.6153  0.0328
   53MOL   H22834652   2.093   4.901   1.817 -0.4032  1.0358  0.6303
   53MOL   H22934653   2.038   4.904   1.980 -0.3967  1.2339 -0.9707
   53MOL   H23034654   2.212   4.682   1.852  1.3258 -0.2574  0.0174
   53MOL   H23134655   2.174   4.692   2.022 -1.4922  0.0969 -0.5519
   53MOL   H23234656   2.264   4.818   1.946 -0.5561 -0.5868  1.8230
   53MOL   C23334657   1.606   4.485   1.081  0.7230 -1.2660  0.3979
   53MOL   C23434658   1.520   4.352   1.070 -0.2261  0.3110 -0.1564
   53MOL   C23534659   1.517   4.285   1.209 -0.9031  0.2454 -0.1269
   53MOL   C23634660   1.429   4.159   1.217  0.3058 -0.1451 -0.2982
   53MOL   C23734661   1.417   4.123   1.363 -0.7912  0.0947  0.1455
   53MOL   C23834662   1.542   4.039   1.413  0.3218 -0.3805  0.7094
   53MOL   C23934663   1.506   3.943   1.531 -0.2637 -0.6312  0.3194
   53MOL   C24034664   1.638   3.886   1.596  0.4945 -0.3206  0.1691
   53MOL   C24134665   1.608   3.781   1.710 -0.0709 -0.3334  1.1844
   53MOL   C24234666   1.714   3.756   1.816 -0.0035  0.2928 -0.0961
   53MOL   C24334667   1.690   3.642   1.917  0.6170 -0.5961  0.8072
   53MOL   H24434668   1.707   4.461   1.113  0.1767 -0.6030  2.7786
   53MOL   H24534669   1.622   4.530   0.984 -1.5167 -2.6420 -0.6622
   53MOL   H24634670   1.414   4.373   1.052  0.0366  1.2938 -0.5983
   53MOL   H24734671   1.618   4.259   1.241 -0.3700 -0.0005 -1.9651
   53MOL   H24834672   1.479   4.359   1.279  0.4944 -0.8091  1.7959
   53MOL   H24934673   1.473   4.073   1.166 -0.5366 -0.6548 -0.1743
   53MOL   H25034674   1.332   4.169   1.169  0.4501  1.8051 -0.2341
   53MOL   H25134675   1.328   4.060   1.363  0.4951 -1.7743 -0.7319
   53MOL   H25234676   1.392   4.206   1.428  1.0400  0.4888  0.3870
   53MOL   H25334677   1.621   4.107   1.443  1.8172 -1.3363 -0.9339
   53MOL   H25434678   1.581   3.986   1.326 -2.8790 -0.9987 -0.4570
   53MOL   H25534679   1.437   3.997   1.597 -0.9577 -2.4762  1.1312
   53MOL   H25634680   1.451   3.860   1.486 -1.6856  0.8664 -0.7814
   53MOL   H25734681   1.701   3.848   1.516 -0.4022 -0.0730 -0.6631
   53MOL   H25834682   1.693   3.973   1.631  0.9900  0.3428 -2.1639
   53MOL   H25934683   1.511   3.791   1.758 -1.4797  2.6232 -2.0552
   53MOL   H26034684   1.591   3.685   1.661 -0.3232  0.2220  0.1714
   53MOL   H26134685   1.726   3.845   1.878 -1.6359  0.0711  0.5482
   53MOL   H26234686   1.807   3.739   1.761 -0.5126 -3.0975  0.0417
   53MOL   H26334687   1.682   3.546   1.867  2.6078 -0.0982 -0.5172
   53MOL   H26434688   1.602   3.659   1.980 -0.2677  0.0166 -0.5804
   53MOL   H26534689   1.778   3.642   1.982  1.6986 -0.6373 -0.6503
   53MOL   C26634690   1.584   4.260   0.963 -1.1751 -0.6466  0.3887
   53MOL   C26734691   1.550   4.303   0.817  0.1186  0.4738  0.7250
   53MOL   C26834692   1.434   4.208   0.759 -0.0240  0.8844  0.3694
   53MOL   C26934693   1.298   4.246   0.813 -0.2115 -0.4309  0.6516
   53MOL   C27034694   1.180   4.162   0.765  0.2445  0.3946  1.1145
   53MOL   C27134695   1.047   4.219   0.804  0.5993  0.4136  0.2997
   53MOL   C27234696   0.931   4.131   0.763 -0.2595 -0.0816 -0.4634
   53MOL   C27334697   0.801   4.167   0.830 -0.0709 -0.0097 -0.4650
   53MOL   C27434698   0.745   4.295   0.760 -0.2244 -0.1595  0.0846
   53MOL   C27534699   0.633   4.362   0.836  0.4040 -0.1513  0.5594
   53MOL   C27634700   0.600   4.488   0.750 -0.2796  0.0009 -0.2120
   53MOL   H27734701   1.549   4.157   0.973 -0.2781 -0.8139  1.9671
   53MOL   H27834702   1.693   4.261   0.976 -1.1219  3.3480  0.0150
   53MOL   H27934703   1.517   4.407   0.814 -0.6960  0.1731 -1.7419
   53MOL   H28034704   1.436   4.231   0.652  3.1297  1.0027  0.4004
   53MOL   H28134705   1.449   4.100   0.768  0.5659  0.9216 -0.1569
   53MOL   H28234706   1.277   4.352   0.805  2.4570 -0.0436 -1.6120
   53MOL   H28334707   1.311   4.215   0.917 -0.4996 -1.0068  0.5192
   53MOL   H28434708   1.182   4.058   0.798  2.1275 -0.3424 -1.1380
   53MOL   H28534709   1.183   4.164   0.656 -3.5422  0.0364  0.9344
   53MOL   H28634710   1.041   4.319   0.760  2.8291 -0.0433 -1.1288
   53MOL   H28734711   1.041   4.223   0.913  0.0458  1.5208  0.2415
   53MOL   H28834712   0.932   4.123   0.654  2.8570  2.3234 -0.6732
   53MOL   H28934713   0.956   4.030   0.795 -1.0608 -0.4390 -0.9389
   53MOL   H29034714   0.801   4.177   0.938 -2.1676  1.6227 -0.5755
   53MOL   H29134715   0.725   4.091   0.813  1.8889 -1.7577 -1.6650
   53MOL   H29234716   0.829   4.365   0.765 -0.6987  0.6325 -2.2754
   53MOL   H29334717   0.708   4.285   0.658 -0.7181 -2.0715  0.4284
   53MOL   H29434718   0.677   4.386   0.933 -0.6717 -0.2751  1.0793
   53MOL   H29534719   0.546   4.300   0.855 -0.0922  0.6866  1.0073
   53MOL   H29634720   0.685   4.542   0.708 -1.6052  0.9977 -1.6695
   53MOL   H29734721   0.536   4.567   0.790 -1.9759 -0.3344 -2.1662
   53MOL   H29834722   0.547   4.456   0.661 -1.7890  0.6911  0.4180
   53MOL   C29934723   1.669   4.291   0.715  0.0407 -0.3542 -0.4149
   53MOL   C30034724   1.790   4.385   0.736 -0.0593  0.5396  0.2462
   53MOL   C30134725   1.764   4.529   0.671  0.0157 -0.0478 -0.1776
   53MOL   C30234726   1.834   4.645   0.737  0.4062  0.3761 -0.6442
   53MOL   C30334727   1.771   4.788   0.719  0.4756 -0.4075 -0.6809
   53MOL   C30434728   1.853   4.907   0.789  0.6038  0.9257 -0.3123
   53MOL   C30534729   1.861   4.911   0.942 -0.1050 -0.4267  0.4611
   53MOL   C30634730   1.912   5.041   0.988  0.2058 -0.0119  0.2202
   53MOL   C30734731   1.818   5.161   0.974 -0.8331 -0.2248  0.2646
   53MOL   C30834732   1.677   5.156   1.051 -0.0066  0.4110 -0.3724
   53MOL   C30934733   1.600   5.284   1.065  0.6087 -0.6447 -0.1070
   53MOL   H31034734   1.627   4.316   0.617  1.6613  1.7240 -0.6024
   53MOL   H31134735   1.711   4.191   0.720  1.0329  0.1518  1.6500
   53MOL   H31234736   1.801   4.395   0.844 -3.5834 -3.7790  1.1573
   53MOL   H31334737   1.799   4.530   0.568  2.9389  1.6767  0.7775
   53MOL   H31434738   1.656   4.544   0.678 -0.3128 -1.3877 -2.1879
   53MOL   H31534739   1.835   4.641   0.846 -0.7036  1.9942 -0.5538
   53MOL   H31634740   1.938   4.643   0.702  0.9484  2.2177  0.7758
   53MOL   H31734741   1.752   4.807   0.613  0.5204 -0.0400 -0.6241
   53MOL   H31834742   1.674   4.793   0.769 -0.1366 -1.8642 -1.7030
   53MOL   H31934743   1.807   4.995   0.745  1.7559  1.9355  0.4764
   53MOL   H32034744   1.958   4.902   0.759  0.0616  1.0031 -2.2917
   53MOL   H32134745   1.760   4.902   0.982 -0.3350 -0.8699 -0.2048
   53MOL   H32234746   1.908   4.816   0.967 -0.5285 -1.0974 -1.2278
   53MOL   H32334747   2.007   5.051   0.935  1.0156 -2.2554  1.1521
   53MOL   H32434748   1.960   5.041   1.086 -0.1167  2.8442  0.3975
   53MOL   H32534749   1.791   5.191   0.873  0.6739  4.9519  1.2335
   53MOL   H32634750   1.872   5.251   1.005  0.5018 -0.8381 -0.2536
   53MOL   H32734751   1.704   5.120   1.150  1.1559  1.0767 -0.4380
   53MOL   H32834752   1.618   5.079   1.001 -1.8044  1.8332 -0.4425
   53MOL   H32934753   1.570   5.308   0.964  2.1567 -0.7651 -0.6169
   53MOL   H33034754   1.511   5.264   1.124 -0.2132  1.0852 -0.7419
   53MOL   H33134755   1.653   5.367   1.112 -3.1426  0.5133  2.3224
   53MOL   C33234756   1.912   4.318   0.665  0.0550 -0.7031 -0.4991
   53MOL   C33334757   1.981   4.198   0.733  0.0411 -0.2401 -0.0116
   53MOL   C33434758   2.047   4.230   0.868  0.3341  0.0807  0.5726
   53MOL   C33534759   2.155   4.341   0.883  0.3185  0.6866 -0.6109
   53MOL   C33634760   2.153   4.390   1.030  0.1166  0.1790  0.3616
   53MOL   C33734761   2.268   4.495   1.037 -0.4559 -0.0231 -0.0599
   53MOL   C33834762   2.280   4.567   1.170 -0.4844  0.3498  0.4123
   53MOL   C33934763   2.176   4.678   1.193 -0.1289  0.2772 -0.3883
   53MOL   C34034764   2.188   4.736   1.340 -0.5589  0.9224 -0.4746
   53MOL   C34134765   2.328   4.794   1.380 -0.3852 -0.3547 -0.3684
   53MOL   C34234766   2.334   4.850   1.526 -0.6908  0.3853  0.2565
   53MOL   H34334767   1.885   4.299   0.561 -1.4735  2.3123 -0.7100
   53MOL   H34434768   1.994   4.389   0.663  0.3691 -1.0786 -0.9058
   53MOL   H34534769   1.909   4.116   0.744 -0.6821 -0.1566 -3.4694
   53MOL   H34634770   2.067   4.135   0.918  1.0177  0.2953  0.7078
   53MOL   H34734771   1.963   4.264   0.928  0.2880  1.8594 -0.4857
   53MOL   H34834772   2.248   4.290   0.860 -0.2889 -0.9575  0.4655
   53MOL   H34934773   2.140   4.425   0.815 -1.7660  0.2372 -0.7435
   53MOL   H35034774   2.054   4.434   1.039  0.0384 -0.1269  1.0512
   53MOL   H35134775   2.172   4.309   1.101 -2.9408 -0.9864 -0.0513
   53MOL   H35234776   2.268   4.566   0.955 -0.6442 -0.1295 -0.1521
   53MOL   H35334777   2.367   4.449   1.036 -0.1726  0.5843  0.0238
   53MOL   H35434778   2.377   4.616   1.158 -1.0972  0.8889 -2.7444
   53MOL   H35534779   2.271   4.493   1.249 -1.3870  0.6844  0.6314
   53MOL   H35634780   2.173   4.761   1.123 -3.6002  0.5666  0.0227
   53MOL   H35734781   2.082   4.625   1.178 -0.9176  1.1396  1.4039
   53MOL   H35834782   2.173   4.652   1.407 -0.5792  0.5339 -0.9648
   53MOL   H35934783   2.110   4.811   1.352 -0.9123  0.6802 -1.2219
   53MOL   H36034784   2.359   4.875   1.313  0.6197 -0.6073 -0.2039
   53MOL   H36134785   2.413   4.727   1.384  0.3931  0.6368 -0.0537
   53MOL   H36234786   2.286   4.788   1.602  1.1472  1.0107  1.9464
   53MOL   H36334787   2.434   4.880   1.558 -0.3734  1.7863 -1.9467
   53MOL   H36434788   2.268   4.935   1.542  0.5530  1.5242 -0.5611
   53MOL   C36534789   2.085   4.138   0.644 -0.7215  0.4964  0.2832
   53MOL   C36634790   2.196   4.038   0.691 -1.3443  0.1562  0.3899
   53MOL   C36734791   2.136   3.906   0.731 -0.2310 -0.0747 -0.1152
   53MOL   C36834792   2.221   3.807   0.806 -0.2517 -0.4716  0.0113
   53MOL   C36934793   2.274   3.876   0.940  0.2857 -0.3043 -0.1393
   53MOL   C37034794   2.375   3.800   1.020 -0.6416 -0.4625  0.2325
   53MOL   C37134795   2.422   3.866   1.149 -0.8854 -0.0475  0.6221
   53MOL   C37234796   2.557   3.823   1.212 -0.5886  0.4532 -0.0197
   53MOL   C37334797   2.618   3.915   1.318  1.1378 -0.4913  0.3381
   53MOL   C37434798   2.534   3.908   1.447  0.6607 -0.6180  0.2674
   53MOL   C37534799   2.596   4.005   1.553  0.7219 -0.0519 -0.0481
   53MOL   H37634800   2.030   4.095   0.561 -0.1347  0.4267 -0.0633
   53MOL   H37734801   2.145   4.222   0.611  0.4628 -0.9125 -1.1914
   53MOL   H37834802   2.252   4.088   0.770 -0.2325  1.6007 -1.2704
   53MOL   H37934803   2.100   3.855   0.642 -1.6503  0.6757  0.0005
   53MOL   H38034804   2.038   3.906   0.779 -0.1516 -0.2944  0.0462
   53MOL   H38134805   2.303   3.762   0.750  0.4569  0.8986 -0.0767
   53MOL   H38234806   2.154   3.724   0.825 -0.0410 -0.8357 -0.8378
   53MOL   H38334807   2.188   3.905   1.000 -1.8576 -1.9501 -2.3204
   53MOL   H38434808   2.324   3.970   0.918 -0.0835 -0.2973 -0.9437
   53MOL   H38534809   2.461   3.768   0.961 -1.8617  0.5148 -2.1419
   53MOL   H38634810   2.330   3.704   1.044  1.5134 -1.2299  1.3223
   53MOL   H38734811   2.445   3.968   1.120 -0.7901  0.0406  1.0042
   53MOL   H38834812   2.341   3.869   1.222  0.7122  1.6351  2.3917
   53MOL   H38934813   2.633   3.813   1.134 -1.2490  1.4694 -0.8179
   53MOL   H39034814   2.553   3.724   1.257 -0.4500  0.5119  0.1221
   53MOL   H39134815   2.721   3.886   1.342  1.3420  1.4089  1.8548
   53MOL   H39234816   2.622   4.015   1.275 -2.3386 -0.5655 -0.2552
   53MOL   H39334817   2.430   3.924   1.419  1.3080 -0.0984 -1.9512
   53MOL   H39434818   2.528   3.807   1.489 -0.8903 -0.1442  1.2044
   53MOL   H39534819   2.562   4.107   1.535  1.3614 -0.4500 -3.8033
   53MOL   H39634820   2.704   4.013   1.545  0.7975 -0.5616  0.4276
   53MOL   H39734821   2.557   3.980   1.652  4.1965  1.8840  1.9174
   53MOL   C39834822   2.297   4.024   0.572  0.3079  0.7193 -0.0799
   53MOL   C39934823   2.411   4.128   0.555 -0.1491  0.7389 -0.1856
   53MOL   C40034824   2.457   4.107   0.409 -0.0858  0.3833 -0.0463
   53MOL   C40134825   2.574   4.193   0.361  0.0543  0.4098  0.0103
   53MOL   C40234826   2.594   4.199   0.212 -0.2505 -0.3319  1.0968
   53MOL   C40334827   2.696   4.301   0.178  0.1239 -0.6744  0.0603
   53MOL   C40434828   2.705   4.347   0.029  0.3435  0.2865  0.0869
   53MOL   C40534829   2.582   4.423   7.672 -0.3753 -0.1455  0.7868
   53MOL   C40634830   2.540   4.540   0.055 -0.1246  0.4675 -0.1767
   53MOL   C40734831   2.442   4.632   7.689 -0.3846 -0.5304  0.2882
   53MOL   C40834832   2.460   4.779   0.031  0.1626  0.4187  0.2006
   53MOL   H40934833   2.237   4.011   0.481  0.6825 -0.1421 -0.2028
   53MOL   H41034834   2.346   3.928   0.584  0.9188  1.0811  0.3332
   53MOL   H41134835   2.375   4.230   0.562  3.2904  2.0624 -0.7229
   53MOL   H41234836   2.373   4.111   0.341  0.5768  0.3357 -0.8722
   53MOL   H41334837   2.488   4.004   0.392 -0.7357  0.2139 -0.2349
   53MOL   H41434838   2.564   4.295   0.398  0.7104 -0.3320  2.3224
   53MOL   H41534839   2.665   4.157   0.410 -1.2876 -1.0095  1.5393
   53MOL   H41634840   2.632   4.108   0.168  0.8808 -0.1388  1.6525
   53MOL   H41734841   2.501   4.223   0.160 -0.2117  0.4296  1.3712
   53MOL   H41834842   2.796   4.273   0.211  0.0033 -0.0820  0.9513
   53MOL   H41934843   2.670   4.386   0.241 -1.6105  0.4381 -2.0739
   53MOL   H42034844   2.788   4.416   0.016  0.0814  0.4546 -0.7008
   53MOL   H42134845   2.727   4.268   7.660  0.7548  0.9461 -0.5042
   53MOL   H42234846   2.505   4.349   7.647  0.2338 -0.2471 -0.8575
   53MOL   H42334847   2.607   4.466   7.575  0.1834  0.6691  1.2824
   53MOL   H42434848   2.498   4.517   0.154  1.0799  1.3155  0.5405
   53MOL   H42534849   2.630   4.596   0.077  0.0350  0.8487 -1.7787
   53MOL   H42634850   2.340   4.595   7.695 -0.3746 -0.5094  0.6400
   53MOL   H42734851   2.460   4.635   7.582  4.2653  0.0780  0.9712
   53MOL   H42834852   2.387   4.843   7.683  1.4232  0.1426 -2.0136
   53MOL   H42934853   2.560   4.811   0.001  0.0581 -0.8994 -1.6681
   53MOL   H43034854   2.440   4.792   0.137  0.6976  3.3362 -0.0047
   53MOL   C43134855   2.513   4.099   0.665  0.1983 -0.3689 -1.4838
   53MOL   C43234856   2.631   4.193   0.701 -0.4608  0.3624 -1.0967
   53MOL   C43334857   2.704   4.145   0.832  0.0412 -0.0405 -0.3087
   53MOL   C43434858   2.804   4.031   0.797 -0.0630 -0.0131 -0.1909
   53MOL   C43534859   2.880   3.979   0.911 -0.0384 -0.0548 -0.2918
   53MOL   C43634860   2.938   3.840   0.885 -0.4962 -0.1383 -0.6108
   53MOL   C43734861   3.030   3.780   0.992  0.3058  0.4198  0.5999
   53MOL   C43834862   3.158   3.853   0.993 -0.2065  0.7162  0.2238
   53MOL   C43934863   3.251   3.812   1.111 -0.1424  0.1587 -0.8408
   53MOL   C44034864   3.390   3.882   1.109 -0.2841  0.0263  0.0883
   53MOL   C44134865   3.477   3.867   1.234  0.1908 -0.4546  0.4256
   53MOL   H44234866   2.565   4.006   0.641  3.5092  1.9336 -3.7592
   53MOL   H44334867   2.456   4.093   0.758  0.8318 -1.5834 -1.1644
   53MOL   H44434868   2.700   4.194   0.616  0.7481  2.1432 -0.1286
   53MOL   H44534869   2.759   4.225   0.883 -1.2460  1.0543 -0.5872
   53MOL   H44634870   2.638   4.108   0.911  1.1455  0.9109  1.1004
   53MOL   H44734871   2.871   4.062   0.716 -0.1430  1.9539  0.4751
   53MOL   H44834872   2.732   3.959   0.759  0.7169 -0.2313 -1.2893
   53MOL   H44934873   2.832   3.982   1.009  3.6862  0.0672  1.6586
   53MOL   H45034874   2.965   4.045   0.931 -0.4607 -0.2245  2.2049
   53MOL   H45134875   2.980   3.839   0.784  0.9371 -2.6922 -0.0245
   53MOL   H45234876   2.848   3.779   0.893  1.4027 -3.6394 -4.0496
   53MOL   H45334877   3.047   3.675   0.966  1.0040  0.5959  0.3358
   53MOL   H45434878   2.984   3.765   1.090 -1.2649  1.9209  0.1168
   53MOL   H45534879   3.207   3.848   0.896 -0.8528 -1.9765  0.0027
   53MOL   H45634880   3.141   3.961   0.997  1.3851  0.9674  0.7928
   53MOL   H45734881   3.263   3.704   1.107 -2.1685 -0.0209 -3.0261
   53MOL   H45834882   3.205   3.838   1.206 -1.9467 -0.2065 -1.5850
   53MOL   H45934883   3.374   3.989   1.099  1.2260  0.2961  0.4637
   53MOL   H46034884   3.450   3.837   1.030 -0.0319 -1.0782  0.8972
   53MOL   H46134885   3.575   3.902   1.204 -1.7012  1.9566 -3.3882
   53MOL   H46234886   3.436   3.923   1.318  0.1517  0.4329 -0.1748
   53MOL   H46334887   3.478   3.759   1.253  0.0997 -0.9971 -2.3873
   53MOL   C46434888   2.582   4.336   0.716  0.0341  0.0128 -0.0318
   53MOL   C46534889   2.692   4.448   0.728 -0.2022  0.0477 -0.4028
   53MOL   C46634890   2.754   4.476   0.590 -0.4061 -0.1053  0.0542
   53MOL   C46734891   2.902   4.427   0.569  0.1161 -0.2006  0.0226
   53MOL   C46834892   3.018   4.494   0.647  0.0468  0.1500 -0.0060
   53MOL   C46934893   3.141   4.401   0.662  0.4427  0.1831 -0.7016
   53MOL   C47034894   3.110   4.278   0.748  0.1190  0.6802 -0.4280
   53MOL   C47134895   3.230   4.226   0.832 -0.4157 -0.3862  0.6693
   53MOL   C47234896   3.309   4.122   0.743  0.0317 -0.3485 -0.1660
   53MOL   C47334897   3.451   4.083   0.785 -0.4645 -0.6954 -0.8235
   53MOL   C47434898   3.517   3.969   0.716  0.4982 -0.4915 -0.1113
   53MOL   H47534899   2.505   4.336   0.793  1.9058 -0.4624  1.9119
   53MOL   H47634900   2.526   4.378   0.632 -0.0115  0.2909  0.1356
   53MOL   H47734901   2.774   4.415   0.792 -1.4629 -0.6174  0.8861
   53MOL   H47834902   2.736   4.578   0.558 -1.3538 -0.8729 -1.9859
   53MOL   H47934903   2.700   4.423   0.511 -0.4037  2.1029 -1.4833
   53MOL   H48034904   2.902   4.322   0.599 -1.7308 -0.2185  0.0543
   53MOL   H48134905   2.921   4.420   0.462 -0.1189 -1.1436  0.0410
   53MOL   H48234906   2.976   4.521   0.744 -1.3333 -0.3661 -0.4461
   53MOL   H48334907   3.062   4.583   0.603 -0.8210 -0.3384 -1.8784
   53MOL   H48434908   3.179   4.371   0.565 -1.8429  0.1585 -1.6307
   53MOL   H48534909   3.208   4.471   0.711  0.0022  0.1288 -0.0147
   53MOL   H48634910   3.032   4.301   0.819  0.2539 -3.1262  1.0770
   53MOL   H48734911   3.066   4.198   0.687  0.3564  0.6306 -0.5352
   53MOL   H48834912   3.295   4.305   0.870 -0.9876  0.9507 -1.0623
   53MOL   H48934913   3.185   4.183   0.921  1.1919 -1.3996  1.0278
   53MOL   H49034914   3.251   4.029   0.742 -2.0323  0.8802  1.9159
   53MOL   H49134915   3.317   4.159   0.640  2.7733  1.0664  0.4926
   53MOL   H49234916   3.527   4.161   0.785 -1.1301 -0.0356  0.9880
   53MOL   H49334917   3.445   4.063   0.892  1.0456  1.8234 -0.2291
   53MOL   H49434918   3.530   3.886   0.785  0.0910  1.1524  2.0262
   53MOL   H49534919   3.616   3.989   0.675  0.0320  1.6757 -0.2379
   53MOL   H49634920   3.461   3.922   0.635 -0.3049 -2.1451  1.3727
   53MOL   C49734921   2.616   4.577   0.780  0.6392 -0.0710 -0.7629
   53MOL   C49834922   2.711   4.660   0.861  0.8477  0.0839 -0.3561
   53MOL   C49934923   2.771   4.593   0.990  0.1839  0.8049  0.1128
   53MOL   C50034924   2.668   4.536   1.085  0.0502  0.1366 -0.0712
   53MOL   C50134925   2.710   4.448   1.208 -0.2153 -0.1966  0.1780
   53MOL   C50234926   2.810   4.332   1.180  0.0687  0.9675  0.1229
   53MOL   C50334927   2.873   4.293   1.319  0.3629  0.7709 -0.0385
   53MOL   C50434928   2.984   4.183   1.311 -0.4452 -0.6713 -0.0716
   53MOL   C50534929   3.025   4.119   1.445  0.1071  0.5018  0.1024
   53MOL   C50634930   3.122   3.999   1.419  0.1816  0.4916  1.2715
   53MOL   C50734931   3.145   3.914   1.548  0.5486  0.8276 -0.0794
   53MOL   H50834932   2.583   4.637   0.696  0.6985  0.3280 -0.5058
   53MOL   H50934933   2.532   4.555   0.846  1.2815  0.2058  0.1636
   53MOL   H51034934   2.799   4.679   0.799  0.0877  1.6911 -0.9849
   53MOL   H51134935   2.829   4.669   1.043 -0.5610  2.1029 -0.8996
   53MOL   H51234936   2.847   4.518   0.965 -0.1359  0.3775  0.4145
   53MOL   H51334937   2.596   4.474   1.032 -1.7364  2.4393 -0.4288
   53MOL   H51434938   2.611   4.622   1.121  0.0260  0.2670 -0.4187
   53MOL   H51534939   2.739   4.512   1.291  0.3617  1.3203 -1.1686
   53MOL   H51634940   2.619   4.405   1.249  0.2436 -1.3050  0.0636
   53MOL   H51734941   2.761   4.247   1.133  0.7650 -1.2987  3.3141
   53MOL   H51834942   2.893   4.358   1.113 -0.2351  2.5088  0.3253
   53MOL   H51934943   2.903   4.384   1.370 -1.9513  0.9409  1.0647
   53MOL   H52034944   2.791   4.260   1.382  1.0706 -1.7028 -0.3546
   53MOL   H52134945   3.062   4.240   1.260 -0.3279 -1.4277 -0.7459
   53MOL   H52234946   2.961   4.098   1.246 -1.0355 -1.1432  0.7476
   53MOL   H52334947   2.935   4.097   1.503 -1.5210  1.7711 -1.8824
   53MOL   H52434948   3.076   4.188   1.512  1.6207 -0.8669  0.4079
   53MOL   H52534949   3.218   4.037   1.384  0.6362 -0.2221  1.7141
   53MOL   H52634950   3.084   3.933   1.341 -1.2457  0.1831  2.2024
   53MOL   H52734951   3.227   3.843   1.543  0.1458  0.4245 -1.0026
   53MOL   H52834952   3.047   3.866   1.549 -0.5638  2.9977 -0.7280
   53MOL   H52934953   3.156   3.978   1.636 -0.0143  1.6211 -0.5845
   53MOL   C53034954   2.659   4.799   0.897  0.5533  0.0769  0.9290
   53MOL   C53134955   2.763   4.907   0.903  0.3207 -0.5279  0.2650
   53MOL   C53234956   2.729   4.992   1.034 -0.1652  1.1498  0.2248
   53MOL   C53334957   2.775   4.926   1.168  0.2154 -0.0576 -0.1758
   53MOL   C53434958   2.724   5.011   1.287 -0.9136  0.9957 -1.1446
   53MOL   C53534959   2.764   4.938   1.413  0.7768 -0.2485  0.2280
   53MOL   C53634960   2.724   5.007   1.540 -0.5270  0.2085 -0.4047
   53MOL   C53734961   2.763   4.921   1.665  0.6203 -0.1938  0.3143
   53MOL   C53834962   2.740   4.994   1.798 -0.1522  0.0238  0.3417
   53MOL   C53934963   2.588   5.022   1.819  0.1345 -0.1977  0.2658
   53MOL   C54034964   2.572   5.128   1.934 -0.0944  0.3663  0.0432
   53MOL   H54134965   2.592   4.838   0.820  1.8491 -1.1236 -0.8486
   53MOL   H54234966   2.597   4.791   0.986 -1.1283 -1.1066 -0.3180
   53MOL   H54334967   2.863   4.872   0.926  0.8077  1.0621  0.6104
   53MOL   H54434968   2.625   5.024   1.030 -0.4429  0.2106 -0.1506
   53MOL   H54534969   2.785   5.085   1.022 -0.4121  1.3205  0.3800
   53MOL   H54634970   2.881   4.900   1.170  0.0250 -0.8495 -0.4665
   53MOL   H54734971   2.730   4.828   1.179  0.3468 -0.1729 -0.6616
   53MOL   H54834972   2.616   5.019   1.287 -0.9732  0.2575 -0.1902
   53MOL   H54934973   2.776   5.107   1.292  0.9428 -0.0474  0.3832
   53MOL   H55034974   2.872   4.925   1.405  0.4691 -1.4104 -2.4725
   53MOL   H55134975   2.720   4.840   1.397 -1.1910  1.0418 -2.6910
   53MOL   H55234976   2.621   5.042   1.545 -0.5144 -0.0141  1.8423
   53MOL   H55334977   2.789   5.095   1.536 -0.8435  0.6574  2.6928
   53MOL   H55434978   2.866   4.887   1.669  1.1663  1.2312 -0.8417
   53MOL   H55534979   2.696   4.835   1.660 -0.3467  0.5890 -0.4037
   53MOL   H55634980   2.794   5.089   1.802  0.1611 -0.0302 -2.3023
   53MOL   H55734981   2.770   4.936   1.885  0.9609 -0.6443 -0.4883
   53MOL   H55834982   2.556   4.925   1.859 -0.6496  0.2178  0.6525
   53MOL   H55934983   2.518   5.042   1.738 -1.0576  0.2357  1.3923
   53MOL   H56034984   2.609   5.221   1.889  1.8857 -0.6481 -0.4632
   53MOL   H56134985   2.468   5.120   1.967  0.1072 -1.2961  0.2948
   53MOL   H56234986   2.635   5.102   2.019  1.5467 -0.5162 -1.4222
   53MOL   C56334987   2.769   5.008   0.782 -0.0791  0.0292  0.2441
   53MOL   C56434988   2.858   4.981   0.658 -0.5156  0.3598 -0.1310
   53MOL   C56534989   2.795   4.877   0.562 -0.2975 -0.2380 -0.3721
   53MOL   C56634990   2.649   4.907   0.500 -0.7946  0.0534  0.4885
   53MOL   C56734991   2.642   5.028   0.404  0.2063  0.5504 -1.0842
   53MOL   C56834992   2.502   5.054   0.341  0.5374  0.6356 -1.2868
   53MOL   C56934993   2.506   5.192   0.274  0.4880  0.7890  0.0372
   53MOL   C57034994   2.369   5.223   0.207 -0.5236 -0.2909  0.4098
   53MOL   C57134995   2.376   5.356   0.133 -1.0008 -0.0225  0.2256
   53MOL   C57234996   2.235   5.394   0.073 -0.0494 -0.1881  0.3156
   53MOL   C57334997   2.217   5.540   0.061  0.7628 -0.0460 -0.3787
   53MOL   H57434998   2.789   5.110   0.815  2.6385  0.3263 -2.0992
   53MOL   H57534999   2.670   5.027   0.740  0.2520 -2.3690 -1.7566
   53MOL   H57635000   2.859   5.079   0.611 -0.9894 -0.3671 -1.7057
   53MOL   H57735001   2.776   4.789   0.623  0.8547 -0.0869  0.2118
   53MOL   H57835002   2.863   4.840   0.486  0.2499 -2.8003  1.3284
   53MOL   H57935003   2.567   4.902   0.572 -2.1824 -2.1208 -1.1600
   53MOL   H58035004   2.632   4.817   0.441 -0.5075 -0.2953  0.9286
   53MOL   H58135005   2.715   5.032   0.323  0.0393 -0.1568 -1.2743
   53MOL   H58235006   2.664   5.117   0.464 -1.7558 -0.7694  1.7191
   53MOL   H58335007   2.467   4.980   0.269 -0.8955  0.8958 -0.8775
   53MOL   H58435008   2.433   5.055   0.425  3.6223  2.5981  1.3278
   53MOL   H58535009   2.524   5.267   0.350 -0.9550 -0.2094  1.4097
   53MOL   H58635010   2.592   5.200   0.209 -0.0619 -0.4670 -0.8757
   53MOL   H58735011   2.289   5.241   0.280  0.8496  0.2312  1.8238
   53MOL   H58835012   2.325   5.147   0.143 -1.3030  0.0855  0.4881
   53MOL   H58935013   2.443   5.350   0.047  0.4502  0.1082  1.3225
   53MOL   H59035014   2.412   5.435   0.199 -0.0049  0.1246 -0.4872
   53MOL   H59135015   2.156   5.356   0.137 -0.9762 -1.8148 -1.7218
   53MOL   H59235016   2.221   5.361   7.673 -1.0851  0.1614  0.3427
   53MOL   H59335017   2.308   5.577   0.014  1.2602  1.5680  1.7736
   53MOL   H59435018   2.141   5.569   7.691  3.4428  1.3310 -2.7092
   53MOL   H59535019   2.207   5.596   0.154 -0.0163 -0.6991 -0.0642
   53MOL   C59635020   3.006   4.956   0.701 -0.0092  0.9102 -0.4585
   53MOL   C59735021   3.121   4.955   0.593  0.4148  0.2525 -0.1215
   53MOL   C59835022   3.257   4.894   0.646  0.1751 -0.2617 -0.4828
   53MOL   C59935023   3.342   4.827   0.537 -0.7252  0.1154  0.0945
   53MOL   C60035024   3.283   4.707   0.476 -0.2011 -0.0299 -0.3039
   53MOL   C60135025   3.347   4.664   0.347  0.2658  0.3975  0.4009
   53MOL   C60235026   3.278   4.539   0.275 -0.3785 -0.4972  0.1971
   53MOL   C60335027   3.331   4.511   0.133 -0.0987  0.1206  0.2359
   53MOL   C60435028   3.293   4.379   0.066 -0.7523 -0.4469  0.2641
   53MOL   C60535029   3.340   4.363   7.623 -0.3704 -0.3929 -0.5497
   53MOL   C60635030   3.312   4.217   7.566 -0.1873 -0.3917  0.1413
   53MOL   H60735031   3.048   5.013   0.784 -0.2685  0.2320  0.1376
   53MOL   H60835032   2.999   4.852   0.734 -1.9575  0.5980 -1.7660
   53MOL   H60935033   3.076   4.890   0.517 -0.7033  1.9625 -0.9635
   53MOL   H61035034   3.242   4.809   0.713  1.8167 -0.3361 -0.1844
   53MOL   H61135035   3.309   4.957   0.719 -2.6475 -0.0314  1.3968
   53MOL   H61235036   3.438   4.806   0.584 -0.3191  0.3492 -0.6313
   53MOL   H61335037   3.368   4.899   0.460  0.1471 -0.1702  0.1182
   53MOL   H61435038   3.180   4.724   0.445 -0.4249 -0.3614  0.2387
   53MOL   H61535039   3.266   4.628   0.550 -1.3868 -0.7849 -1.3679
   53MOL   H61635040   3.341   4.751   0.281 -2.7042 -1.7260 -2.3221
   53MOL   H61735041   3.450   4.642   0.373  0.4783 -0.0871 -0.8089
   53MOL   H61835042   3.170   4.546   0.267 -0.2337 -0.8136 -2.7388
   53MOL   H61935043   3.290   4.454   0.342  2.1050  1.1841  1.9848
   53MOL   H62035044   3.439   4.511   0.150 -0.2677  0.1804  1.4085
   53MOL   H62135045   3.308   4.593   0.066  0.2816  0.6935  0.7995
   53MOL   H62235046   3.343   4.299   0.120 -0.5410 -0.0630  0.6338
   53MOL   H62335047   3.185   4.363   0.062 -0.6999 -0.8459  0.4126
   53MOL   H62435048   3.448   4.379   7.623 -0.5482  0.9279 -1.0033
   53MOL   H62535049   3.296   4.448   7.570 -1.6260 -1.1781 -0.7711
   53MOL   H62635050   3.361   4.155   7.641  2.4238  3.0031  1.3604
   53MOL   H62735051   3.204   4.209   7.578  0.0709 -1.0772  2.1794
   53MOL   H62835052   3.341   4.209   7.461  2.7329 -2.1413  1.0073
   53MOL   C62935053   3.137   5.095   0.524  0.8296  0.0281  0.5445
   53MOL   C63035054   3.171   5.221   0.614  0.0587 -0.2377 -0.0607
   53MOL   C63135055   3.247   5.324   0.522 -0.2693 -0.3317 -0.2446
   53MOL   C63235056   3.246   5.464   0.598  0.0792 -0.3629  0.4971
   53MOL   C63335057   3.324   5.573   0.523 -0.0907 -0.2402  0.0822
   53MOL   C63435058   3.224   5.639   0.428 -0.2593  0.3674  0.3676
   53MOL   C63535059   3.295   5.735   0.328 -0.5740  0.1619 -0.6369
   53MOL   C63635060   3.213   5.773   0.206 -0.5707  0.5186 -0.9570
   53MOL   C63735061   3.213   5.667   0.103 -0.0137  0.2295 -0.8177
   53MOL   C63835062   3.143   5.707   7.679 -0.2959  0.0483  0.3071
   53MOL   C63935063   3.124   5.595   7.567 -0.0861  0.0475  0.9034
   53MOL   H64035064   3.218   5.087   0.451 -0.9475 -1.4439 -1.3041
   53MOL   H64135065   3.050   5.117   0.463  1.4633  0.7897 -0.1025
   53MOL   H64235066   3.086   5.274   0.656  0.6142  0.4640  0.2049
   53MOL   H64335067   3.351   5.298   0.500 -0.1496 -0.9187  0.9984
   53MOL   H64435068   3.192   5.342   0.430 -2.4186  0.0141  1.0734
   53MOL   H64535069   3.282   5.449   0.699  0.6010  1.0921  0.5311
   53MOL   H64635070   3.150   5.502   0.634  0.0911  2.4061 -2.2247
   53MOL   H64735071   3.406   5.529   0.466 -0.1377  0.6602 -0.7000
   53MOL   H64835072   3.373   5.641   0.593 -1.5041  1.5175 -0.5982
   53MOL   H64935073   3.163   5.699   0.495 -1.0155 -0.7075  0.6440
   53MOL   H65035074   3.156   5.567   0.384  0.1397  0.3880 -0.2938
   53MOL   H65135075   3.381   5.675   0.297  0.5424  0.6064  1.5087
   53MOL   H65235076   3.337   5.822   0.377 -2.1054  0.5672 -0.0139
   53MOL   H65335077   3.266   5.860   0.166  0.3789  0.5997  0.4521
   53MOL   H65435078   3.114   5.802   0.240 -0.1984  2.4465 -1.4466
   53MOL   H65535079   3.165   5.578   0.142  1.0115 -0.1135 -0.3039
   53MOL   H65635080   3.315   5.640   0.074  0.6356  1.0042  0.6726
   53MOL   H65735081   3.191   5.790   7.627 -1.1645  1.6053  1.9400
   53MOL   H65835082   3.043   5.736   0.007 -0.7027 -1.5888  0.5597
   53MOL   H65935083   3.102   5.637   7.468  0.1622 -0.4088  0.6566
   53MOL   H66035084   3.043   5.526   7.590  1.5123 -2.2187 -0.1145
   53MOL   H66135085   3.211   5.531   7.557 -0.4491 -0.0280 -2.5183
   53MOL   H66235086   3.249   5.202   0.688 -0.7481 -2.8490  0.1595
   54MOL     C135087   6.802   3.673   6.991 -0.3835 -0.1401 -0.5133
   54MOL     C235088   6.681   3.679   6.897 -0.3104  0.3145 -0.1906
   54MOL     C335089   6.688   3.564   6.792 -0.3891  0.3688  0.2374
   54MOL     C435090   6.628   3.612   6.661  0.8461 -0.2355 -0.0483
   54MOL     C535091   6.626   3.506   6.550  0.2643  0.2252  0.6387
   54MOL     C635092   6.567   3.564   6.420  0.0106 -0.1122  0.0876
   54MOL     C735093   6.575   3.471   6.297  0.0799  0.0871  0.0333
   54MOL     C835094   6.469   3.500   6.197 -0.2562  0.4392 -0.5304
   54MOL     C935095   6.477   3.634   6.114  0.7522  0.0680 -0.1070
   54MOL    C1035096   6.369   3.644   6.008 -0.0552  0.0413  0.5064
   54MOL    C1135097   6.399   3.772   5.932  0.3688  0.5890  0.5831
   54MOL    H1235098   6.894   3.700   6.939 -0.2616  0.8290  0.1977
   54MOL    H1335099   6.809   3.569   7.024 -3.0723  0.0687  0.8218
   54MOL    H1435100   6.683   3.780   6.855 -1.0267  1.4027  2.2579
   54MOL    H1535101   6.641   3.473   6.829 -3.2219  1.3269 -0.9115
   54MOL    H1635102   6.794   3.543   6.778 -0.1861  0.6200  1.3298
   54MOL    H1735103   6.677   3.698   6.615  0.2929  0.1576  0.0926
   54MOL    H1835104   6.525   3.643   6.678 -0.1874 -3.4279 -0.0806
   54MOL    H1935105   6.727   3.470   6.529  0.2744  0.1838  0.7557
   54MOL    H2035106   6.557   3.426   6.578  1.2747  0.1211  3.0043
   54MOL    H2135107   6.608   3.664   6.403  0.5059 -0.3030  0.1362
   54MOL    H2235108   6.463   3.590   6.436 -0.4251 -1.8882  0.2012
   54MOL    H2335109   6.672   3.472   6.246 -0.3748  1.0732 -0.8282
   54MOL    H2435110   6.556   3.365   6.317  0.4267  0.0873  0.3755
   54MOL    H2535111   6.377   3.515   6.253  1.2065 -1.6668  2.5397
   54MOL    H2635112   6.457   3.420   6.124 -1.1360 -1.3147  1.4942
   54MOL    H2735113   6.581   3.633   6.081  1.4282  0.5666  1.9732
   54MOL    H2835114   6.466   3.715   6.186  2.5414 -0.4034  0.7301
   54MOL    H2935115   6.271   3.666   6.049  0.9772 -0.4791  3.3948
   54MOL    H3035116   6.372   3.560   5.938  0.6957  1.2894 -0.9744
   54MOL    H3135117   6.394   3.860   5.996  1.1769  0.7321  0.4615
   54MOL    H3235118   6.500   3.758   5.893  0.0073 -0.8159  0.1254
   54MOL    H3335119   6.330   3.792   5.849 -1.4570 -1.6278  1.5230
   54MOL    H3435120   6.784   3.731   7.082  0.9150  0.5667 -0.6884
   54MOL    C3535121   6.548   3.661   6.968  0.1192  0.4602  0.0296
   54MOL    C3635122   6.513   3.753   7.082 -0.7938 -0.0549 -0.4762
   54MOL    C3735123   6.518   3.900   7.031 -0.3443  0.3639  0.9092
   54MOL    C3835124   6.500   4.001   7.135  0.2063 -1.0121  0.2104
   54MOL    C3935125   6.449   4.140   7.094  0.0770 -0.0885  0.3543
   54MOL    C4035126   6.550   4.228   7.026 -0.4800 -0.0519 -0.4475
   54MOL    C4135127   6.503   4.371   7.012  0.0985 -0.8303  0.0725
   54MOL    C4235128   6.518   4.451   7.149 -0.0969 -0.2167 -0.4325
   54MOL    C4335129   6.511   4.601   7.139 -0.0380 -0.1216 -0.0047
   54MOL    C4435130   6.496   4.658   7.280  0.5681  0.2446  0.0724
   54MOL    C4535131   6.459   4.811   7.286  0.5352  0.1808  0.0408
   54MOL    H4635132   6.550   3.558   7.002  1.4281  0.0376 -1.2927
   54MOL    H4735133   6.473   3.667   6.889 -2.2153  0.6107  2.1736
   54MOL    H4835134   6.585   3.746   7.164 -1.0388 -0.4624 -0.2921
   54MOL    H4935135   6.612   3.927   6.984 -0.3001 -1.0128  0.1874
   54MOL    H5035136   6.447   3.910   6.949 -3.1605  0.1910  3.2217
   54MOL    H5135137   6.599   4.029   7.171 -0.8436  1.6598  1.1803
   54MOL    H5235138   6.467   3.969   7.234  1.2043 -3.7211 -0.2983
   54MOL    H5335139   6.413   4.188   7.185  1.2463 -0.6070  1.0958
   54MOL    H5435140   6.361   4.133   7.030  0.5046  0.3083 -0.2816
   54MOL    H5535141   6.571   4.186   6.927  0.1272 -2.6149  0.7249
   54MOL    H5635142   6.648   4.228   7.073 -0.8678 -0.2344  0.3682
   54MOL    H5735143   6.570   4.415   6.938 -0.5346 -3.1268 -1.8903
   54MOL    H5835144   6.402   4.378   6.972  0.5397 -0.5548 -1.0090
   54MOL    H5935145   6.608   4.427   7.205 -0.1113  1.1148  0.1708
   54MOL    H6035146   6.439   4.421   7.217  1.1491 -0.5241  0.8939
   54MOL    H6135147   6.420   4.628   7.085  0.5046 -0.9786 -1.3582
   54MOL    H6235148   6.590   4.650   7.083 -1.2071 -0.7093 -2.2424
   54MOL    H6335149   6.422   4.606   7.341  0.3694 -0.1577 -0.5116
   54MOL    H6435150   6.594   4.646   7.327  0.0578 -0.5656  0.9544
   54MOL    H6535151   6.517   4.865   7.211  0.3682  0.0647 -0.1724
   54MOL    H6635152   6.356   4.833   7.260  0.3723  1.5560  1.8061
   54MOL    H6735153   6.485   4.851   7.384  1.2379 -3.6526  1.5166
   54MOL    C6835154   6.375   3.711   7.142 -0.3625  0.2505  0.2229
   54MOL    C6935155   6.385   3.590   7.245  0.0835  0.0073 -0.7220
   54MOL    C7035156   6.426   3.638   7.385 -0.1431 -0.0609  0.4134
   54MOL    C7135157   6.322   3.698   7.468  0.1576 -0.3505  0.1336
   54MOL    C7235158   6.379   3.728   7.606 -0.4364  0.3797 -0.2521
   54MOL    C7335159   6.480   3.842   7.620 -0.4681  0.0991  0.2338
   54MOL    C7435160   6.425   3.974   7.570  0.6043  0.2764 -0.2245
   54MOL    C7535161   6.532   4.088   7.571 -0.2893  0.1351  0.0616
   54MOL    C7635162   6.487   4.233   7.527  0.1279  0.1104  0.3331
   54MOL    C7735163   6.607   4.323   7.486  0.0857 -0.6665  0.1027
   54MOL    C7835164   6.708   4.358   7.596 -0.3476  0.1864  0.9375
   54MOL    H7935165   6.306   3.696   7.059 -1.3324  0.3413  0.9918
   54MOL    H8035166   6.323   3.791   7.194  5.3287  3.0988  1.9124
   54MOL    H8135167   6.461   3.520   7.211  0.7943  1.9637 -3.2930
   54MOL    H8235168   6.509   3.706   7.370  1.3703 -1.9173  0.1207
   54MOL    H8335169   6.464   3.556   7.446 -0.4409 -0.8235 -0.3962
   54MOL    H8435170   6.273   3.786   7.424 -3.5126 -1.4323  1.8360
   54MOL    H8535171   6.240   3.627   7.480  0.9813 -1.4865 -0.9519
   54MOL    H8635172   6.436   3.642   7.638 -0.0869  0.4238 -0.7465
   54MOL    H8735173   6.299   3.756   7.675  0.2448  2.3502 -0.2192
   54MOL    H8835174   6.504   3.855   0.022  2.2017  0.1316 -0.3585
   54MOL    H8935175   6.578   3.829   7.574 -0.9692  1.0741 -1.1414
   54MOL    H9035176   6.342   3.993   7.639  0.0705  1.5708 -1.2186
   54MOL    H9135177   6.383   3.975   7.470  2.1134 -0.4400 -0.8726
   54MOL    H9235178   6.572   4.099   7.672  1.5821 -0.3251 -0.6050
   54MOL    H9335179   6.611   4.044   7.510  1.5014  0.1733  2.2756
   54MOL    H9435180   6.420   4.243   7.442 -1.5336 -1.6384  1.4034
   54MOL    H9535181   6.440   4.284   7.611 -3.7095  0.4782 -1.9109
   54MOL    H9635182   6.654   4.284   7.396 -0.4545 -0.5172 -0.2471
   54MOL    H9735183   6.568   4.420   7.456  1.0779 -1.1283 -2.8318
   54MOL    H9835184   6.759   4.449   7.566 -0.0389 -0.3544 -0.2466
   54MOL    H9935185   6.774   4.271   7.597  1.8040  1.7917  0.4997
   54MOL   H10035186   6.649   4.375   7.686 -1.2159  2.0577  0.0418
   54MOL   C10135187   6.261   3.492   7.247 -0.0574 -0.3195 -0.3674
   54MOL   C10235188   6.278   3.353   7.320 -0.2329 -0.4346  0.6595
   54MOL   C10335189   6.393   3.274   7.248  0.8065 -0.1131  0.0520
   54MOL   C10435190   6.370   3.240   7.095  0.1615  0.2724  0.1424
   54MOL   C10535191   6.448   3.110   7.064  0.1849  0.1151 -0.4064
   54MOL   C10635192   6.601   3.107   7.086  0.6639  0.5508  0.1666
   54MOL   C10735193   6.688   3.188   6.989 -0.3038  0.3207  0.3166
   54MOL   C10835194   6.834   3.181   7.035  0.3159  0.0524  0.2025
   54MOL   C10935195   6.915   3.266   6.929  0.8727  0.2243  0.6215
   54MOL   C11035196   7.067   3.221   6.933 -1.5848 -0.4296  0.0210
   54MOL   C11135197   7.148   3.269   6.820 -0.2044 -0.1645 -0.4995
   54MOL   H11235198   6.178   3.551   7.284  2.9104  1.8156  3.3362
   54MOL   H11335199   6.231   3.469   7.145  0.8249  0.0193 -0.7150
   54MOL   H11435200   6.309   3.376   7.422 -1.2096  3.2196  0.2048
   54MOL   H11535201   6.488   3.323   7.265 -0.0443  0.7776  2.5850
   54MOL   H11635202   6.400   3.179   7.301  0.6512 -1.2436 -1.9413
   54MOL   H11735203   6.268   3.215   7.066  0.3136 -3.2185  2.3475
   54MOL   H11835204   6.398   3.326   7.035 -0.0917  0.4782  0.3189
   54MOL   H11935205   6.401   3.034   7.126  0.0767  0.9359  0.5233
   54MOL   H12035206   6.423   3.064   6.968 -2.1261  1.7440 -0.6420
   54MOL   H12135207   6.622   3.152   7.183  5.4155  0.0419 -0.5487
   54MOL   H12235208   6.632   3.003   7.087 -1.2359 -0.0485  0.2403
   54MOL   H12335209   6.646   3.288   7.002 -0.6532  0.0639  1.2300
   54MOL   H12435210   6.672   3.158   6.886 -0.3064 -0.7066  0.6084
   54MOL   H12535211   6.838   3.220   7.136  1.0100 -2.1227  1.0597
   54MOL   H12635212   6.867   3.077   7.033 -1.8713 -0.6755  0.7731
   54MOL   H12735213   6.858   3.251   6.837 -0.6866  0.7297  1.4882
   54MOL   H12835214   6.911   3.372   6.953  1.2372  0.2669  0.4826
   54MOL   H12935215   7.068   3.112   6.941 -2.3472 -0.6666 -2.6277
   54MOL   H13035216   7.120   3.260   7.019  1.9490 -2.8313 -0.9477
   54MOL   H13135217   7.104   3.221   6.734 -1.8483 -0.2419  0.3651
   54MOL   H13235218   7.134   3.377   6.821 -1.5075 -0.3314  0.3605
   54MOL   H13335219   7.254   3.242   6.821 -0.0700  0.3432 -0.5944
   54MOL   C13435220   6.136   3.284   7.330 -0.1728  0.0872  0.8452
   54MOL   C13535221   6.138   3.136   7.390 -0.1114  0.4757 -0.5508
   54MOL   C13635222   5.999   3.057   7.392  0.0947 -0.3501  0.4944
   54MOL   C13735223   5.940   3.034   7.255 -0.3254  0.3475  0.3225
   54MOL   C13835224   5.799   2.983   7.257 -0.1513 -0.0675 -0.6996
   54MOL   C13935225   5.744   2.979   7.111 -0.5878  0.8455 -0.4519
   54MOL   C14035226   5.632   2.870   7.096 -0.1886 -0.1671  0.0650
   54MOL   C14135227   5.669   2.745   7.010  0.1825  0.3909 -0.1083
   54MOL   C14235228   5.548   2.657   6.998  1.1913 -0.3669 -0.3389
   54MOL   C14335229   5.563   2.519   6.924  0.2496 -0.2613 -0.1764
   54MOL   C14435230   5.609   2.409   7.021  0.3880  0.1266 -0.3079
   54MOL   H14535231   6.074   3.344   7.396 -2.1623 -1.2075  0.1847
   54MOL   H14635232   6.094   3.283   7.229  0.2222  3.9955  0.6002
   54MOL   H14735233   6.211   3.084   7.328  0.2329  2.0882 -1.5163
   54MOL   H14835234   5.930   3.111   7.456  1.0606  2.6552 -0.8686
   54MOL   H14935235   6.022   2.961   7.437 -1.0100  0.8563  3.7695
   54MOL   H15035236   5.937   3.127   7.197 -0.3908  0.5641  0.6755
   54MOL   H15135237   5.999   2.976   7.183 -1.4275  0.6523 -0.8433
   54MOL   H15235238   5.785   2.885   7.302 -1.6945 -0.3493 -1.7560
   54MOL   H15335239   5.742   3.049   7.322 -0.8259  1.6503 -2.9682
   54MOL   H15435240   5.715   3.081   7.086  0.0103  1.3734  0.9398
   54MOL   H15535241   5.817   2.963   7.031  0.3749 -2.3104  0.9654
   54MOL   H15635242   5.595   2.849   7.196  1.3731 -0.4310  0.6057
   54MOL   H15735243   5.560   2.937   7.049  0.4039  0.9930  0.7590
   54MOL   H15835244   5.714   2.767   6.913 -1.1247  2.5501 -0.2677
   54MOL   H15935245   5.752   2.696   7.060 -0.9446  0.6739  2.0958
   54MOL   H16035246   5.488   2.639   7.087  2.1301 -1.5336  0.0834
   54MOL   H16135247   5.479   2.705   6.929 -0.2632 -0.7015  0.8599
   54MOL   H16235248   5.464   2.496   6.882  0.5107 -1.0334 -0.3804
   54MOL   H16335249   5.628   2.543   6.840 -0.0247  1.4749  0.0849
   54MOL   H16435250   5.643   2.318   6.971  1.5385  0.3002  0.1303
   54MOL   H16535251   5.538   2.389   7.101  0.5660 -0.4807 -0.2937
   54MOL   H16635252   5.692   2.451   7.078  0.2834  0.0953 -0.1322
   54MOL   C16735253   6.200   3.119   7.534  0.8373  0.0566  0.2285
   54MOL   C16835254   6.252   2.980   7.579 -0.0372 -0.2933 -0.7448
   54MOL   C16935255   6.281   2.975   0.024 -0.4129  0.5912 -0.1206
   54MOL   C17035256   6.395   3.069   0.066 -0.4686 -0.5224 -0.3024
   54MOL   C17135257   6.443   3.041   0.212  0.6560  0.4534  0.3581
   54MOL   C17235258   6.564   3.121   0.244  0.1366 -0.2450 -0.4833
   54MOL   C17335259   6.699   3.063   0.186 -0.7122  0.2012  0.1882
   54MOL   C17435260   6.822   3.157   0.196  0.2865 -0.0555  0.4089
   54MOL   C17535261   6.954   3.100   0.142  1.2360 -0.0029 -0.1075
   54MOL   C17635262   7.064   3.207   0.131  0.0376 -0.4003  0.4327
   54MOL   C17735263   7.169   3.170   0.019 -0.6229 -0.0244 -0.2245
   54MOL   H17835264   6.287   3.185   7.540  0.6949  0.3134 -0.4526
   54MOL   H17935265   6.140   3.165   7.612  0.2512  0.1816 -0.2952
   54MOL   H18035266   6.168   2.911   7.581  0.3488 -0.7555  2.1941
   54MOL   H18135267   6.293   2.870   0.048  1.4091  0.9958  0.8197
   54MOL   H18235268   6.188   3.009   0.071 -0.9420 -2.0268  0.8298
   54MOL   H18335269   6.475   3.049   7.698  1.0418  0.6572  1.0298
   54MOL   H18435270   6.378   3.176   0.054  1.1620 -0.2283 -0.0730
   54MOL   H18535271   6.472   2.936   0.220 -1.6112 -0.1857  0.2791
   54MOL   H18635272   6.355   3.049   0.275  1.4500 -2.6800  1.9444
   54MOL   H18735273   6.550   3.227   0.221  1.5755  0.2935  1.0113
   54MOL   H18835274   6.568   3.116   0.352  2.1185  2.2531 -0.3678
   54MOL   H18935275   6.677   3.045   0.080  1.7239 -0.2933 -0.2545
   54MOL   H19035276   6.719   2.976   0.248  1.3384  0.9536  0.6253
   54MOL   H19135277   6.790   3.243   0.137 -0.4048 -0.9660 -0.5721
   54MOL   H19235278   6.836   3.194   0.298 -1.1508 -1.2006  1.0477
   54MOL   H19335279   6.924   3.056   0.047 -0.5802  0.0206  0.4387
   54MOL   H19435280   7.003   3.017   0.192  1.9595 -0.9723 -2.3509
   54MOL   H19535281   7.115   3.194   0.227  1.7680 -0.6296 -0.4955
   54MOL   H19635282   7.033   3.311   0.129 -0.4497 -0.5653 -1.5312
   54MOL   H19735283   7.134   3.222   7.633 -1.0558 -0.8181 -0.5226
   54MOL   H19835284   7.172   3.064   7.700 -0.4067 -0.0544 -0.0515
   54MOL   H19935285   7.269   3.196   0.053 -0.9814 -0.0874  0.9088
   54MOL   C20035286   6.356   2.930   7.480 -0.4255 -0.2568  0.1962
   54MOL   C20135287   6.428   2.795   7.511 -0.5807 -0.0192  0.1823
   54MOL   C20235288   6.552   2.758   7.418 -0.2541  0.2690 -0.7235
   54MOL   C20335289   6.645   2.880   7.397  0.5094 -0.3867  0.8318
   54MOL   C20435290   6.792   2.839   7.362  0.5103  0.7081 -0.1002
   54MOL   C20535291   6.870   2.970   7.334 -0.1381 -0.7640  0.5113
   54MOL   C20635292   7.021   2.951   7.319 -0.0939 -0.2820  0.5984
   54MOL   C20735293   7.104   3.075   7.307  0.5620 -0.4843 -0.3333
   54MOL   C20835294   7.250   3.046   7.296 -0.1129  0.3876  0.2489
   54MOL   C20935295   7.345   3.159   7.300 -1.0133 -0.1637  0.1225
   54MOL   C21035296   7.490   3.109   7.275 -0.4536  0.1039  0.5896
   54MOL   H21135297   6.324   2.928   7.376 -0.0661 -1.3977  0.1015
   54MOL   H21235298   6.435   3.004   7.467 -0.9363  0.6056  1.8132
   54MOL   H21335299   6.472   2.816   7.609  1.8191 -1.0239 -0.6331
   54MOL   H21435300   6.521   2.710   7.325 -0.5260  2.1121 -1.5923
   54MOL   H21535301   6.608   2.677   7.466  2.1661  1.5040 -1.3808
   54MOL   H21635302   6.644   2.937   7.490  0.0051 -2.0082  1.8316
   54MOL   H21735303   6.608   2.937   7.312 -1.4843 -0.1063  1.8702
   54MOL   H21835304   6.804   2.776   7.274  0.9368 -1.4859  1.4688
   54MOL   H21935305   6.832   2.789   7.450  1.2455 -0.1550 -0.9091
   54MOL   H22035306   6.837   3.006   7.237 -1.0313  0.1823  1.1470
   54MOL   H22135307   6.842   3.051   7.402  0.6706 -0.7288  0.8008
   54MOL   H22235308   7.036   2.882   7.237  0.0947 -1.8004  1.8897
   54MOL   H22335309   7.058   2.896   7.406  1.8543  2.5475  1.6454
   54MOL   H22435310   7.077   3.142   7.389 -1.5613 -1.3377 -0.3153
   54MOL   H22535311   7.081   3.134   7.218  0.2991  0.4535  0.3414
   54MOL   H22635312   7.265   2.983   7.208 -0.8615  2.1163 -1.1639
   54MOL   H22735313   7.271   2.976   7.376 -1.4131 -0.1852  0.1067
   54MOL   H22835314   7.312   3.227   7.222 -2.7773 -1.9961 -0.7767
   54MOL   H22935315   7.344   3.212   7.395 -3.6247 -0.1947  0.1605
   54MOL   H23035316   7.536   3.058   7.359  0.9338  0.9094  0.3303
   54MOL   H23135317   7.550   3.195   7.246 -0.0144  0.0910  1.4667
   54MOL   H23235318   7.481   3.037   7.193  1.0914 -1.7146  1.9899
   54MOL   C23335319   6.339   2.669   7.525  0.3154 -0.1664  0.1421
   54MOL   C23435320   6.400   2.546   7.604 -0.0133 -0.1436  0.1415
   54MOL   C23535321   6.318   2.413   7.574  0.2215 -0.0943  0.1509
   54MOL   C23635322   6.357   2.326   7.446  0.6473  0.3201 -0.1118
   54MOL   C23735323   6.256   2.216   7.431  0.6835  0.1712  0.6529
   54MOL   C23835324   6.291   2.116   7.316  0.2255  0.0987  0.8576
   54MOL   C23935325   6.209   1.988   7.320 -0.5950 -0.2117  0.4124
   54MOL   C24035326   6.259   1.883   7.221 -0.4492 -0.0035  0.7795
   54MOL   C24135327   6.177   1.749   7.224 -0.5401  0.0056  0.1701
   54MOL   C24235328   6.201   1.660   7.105 -0.1201 -0.1828  0.1218
   54MOL   C24335329   6.132   1.523   7.123 -0.0064  0.0176  0.0778
   54MOL   H24435330   6.302   2.623   7.433  0.3910  0.3127 -0.1299
   54MOL   H24535331   6.248   2.702   7.575  0.4078 -1.3765  1.1253
   54MOL   H24635332   6.506   2.526   7.588  0.7873  2.0294  2.3775
   54MOL   H24735333   6.339   2.345   7.657  2.2311 -1.8323 -1.7359
   54MOL   H24835334   6.211   2.434   7.578  0.6223  1.8822  1.0284
   54MOL   H24935335   6.456   2.286   7.469  1.6346  1.3784 -2.4231
   54MOL   H25035336   6.361   2.392   7.360 -2.9755  0.9005  0.0752
   54MOL   H25135337   6.152   2.248   7.424  0.8287  1.2793  2.8493
   54MOL   H25235338   6.253   2.158   7.524  1.2723  0.9062  1.1378
   54MOL   H25335339   6.396   2.087   7.323  0.1286 -0.0738  1.6472
   54MOL   H25435340   6.278   2.160   7.217 -0.6738 -1.1386  0.4229
   54MOL   H25535341   6.191   1.947   7.419  1.4430  1.4560  1.5228
   54MOL   H25635342   6.111   2.024   7.288 -1.1393 -2.3959 -0.5578
   54MOL   H25735343   6.274   1.937   7.128  1.9161 -0.9686  0.5565
   54MOL   H25835344   6.363   1.856   7.243  0.0325 -0.2279 -1.5680
   54MOL   H25935345   6.180   1.698   7.320  0.4779  0.8199  0.5702
   54MOL   H26035346   6.076   1.784   7.202 -0.6185 -0.7632 -0.7686
   54MOL   H26135347   6.309   1.640   7.106 -0.3738 -1.6019  1.5073
   54MOL   H26235348   6.167   1.704   7.012  0.9887 -2.5385 -1.4559
   54MOL   H26335349   6.032   1.530   7.166  0.2607 -0.3596  0.7721
   54MOL   H26435350   6.187   1.470   7.201 -2.7944  0.1733  2.2100
   54MOL   H26535351   6.130   1.459   7.035  0.7709  0.1838 -0.0608
   54MOL   C26635352   6.390   2.571   0.054 -0.0146  0.6239  0.4708
   54MOL   C26735353   6.501   2.505   0.136 -0.0984  0.2753 -0.5630
   54MOL   C26835354   6.443   2.484   0.272 -0.9190  0.4752  0.1710
   54MOL   C26935355   6.382   2.351   0.290  0.3883 -0.5781 -0.4003
   54MOL   C27035356   6.329   2.319   0.429  0.1254  0.6387  0.2892
   54MOL   C27135357   6.261   2.182   0.440 -0.2512  0.1935  0.0817
   54MOL   C27235358   6.172   2.167   0.563 -0.2403  0.0396 -0.2394
   54MOL   C27335359   6.122   2.027   0.573 -0.1989  0.1926  0.4297
   54MOL   C27435360   6.031   1.996   0.691  0.0453  0.0795  0.1472
   54MOL   C27535361   5.991   1.840   0.705 -0.7015 -0.0178  0.1608
   54MOL   C27635362   6.111   1.766   0.755 -0.3580  0.1085 -0.0719
   54MOL   H27735363   6.294   2.531   0.087  1.4346 -1.2620  2.4985
   54MOL   H27835364   6.371   2.678   0.064 -0.7519  0.7304 -1.6290
   54MOL   H27935365   6.526   2.406   0.098 -1.5909 -0.3156 -0.0566
   54MOL   H28035366   6.526   2.503   0.340 -0.1394  0.7440 -0.8421
   54MOL   H28135367   6.377   2.565   0.303 -1.6458  0.5467 -1.5462
   54MOL   H28235368   6.446   2.274   0.247 -0.5888 -0.2997 -2.4723
   54MOL   H28335369   6.294   2.351   0.224  0.9519  0.1113 -1.1648
   54MOL   H28435370   6.261   2.400   0.456 -1.7486 -0.6497 -0.4842
   54MOL   H28535371   6.411   2.314   0.501 -0.2864 -2.1994  0.6245
   54MOL   H28635372   6.350   2.119   0.445  0.3650  1.0896  0.4231
   54MOL   H28735373   6.214   2.166   0.343 -0.0210  0.9543 -0.1552
   54MOL   H28835374   6.241   2.203   0.640  0.9238  0.3379 -1.3895
   54MOL   H28935375   6.095   2.243   0.551  1.5388  2.5799  3.3540
   54MOL   H29035376   6.212   1.966   0.580 -2.3168 -3.0652  0.2372
   54MOL   H29135377   6.070   2.001   0.481  1.2406  0.3340 -0.4318
   54MOL   H29235378   6.066   2.029   0.789  0.6716  1.4032 -0.5077
   54MOL   H29335379   5.949   2.060   0.658  1.7082  1.8279 -0.6432
   54MOL   H29435380   5.953   1.811   0.607 -0.3518 -1.3925  0.4183
   54MOL   H29535381   5.911   1.827   0.777 -0.4943  0.5058  0.4887
   54MOL   H29635382   6.126   1.786   0.862 -1.4001  0.9393 -0.0730
   54MOL   H29735383   6.203   1.783   0.699  0.8617 -2.9420  0.9200
   54MOL   H29835384   6.094   1.659   0.760  0.6209 -0.0434  0.1302
   54MOL   C29935385   6.619   2.603   0.134 -0.1979  0.0210  0.5345
   54MOL   C30035386   6.754   2.553   0.181 -0.8999 -0.5853  0.1309
   54MOL   C30135387   6.861   2.671   0.198  0.4657  0.4361  0.7404
   54MOL   C30235388   6.993   2.621   0.266 -1.0300 -0.1428  0.2134
   54MOL   C30335389   7.108   2.720   0.294  0.1294  0.0849 -0.0409
   54MOL   C30435390   7.078   2.824   0.404  1.2219  0.7939 -0.2851
   54MOL   C30535391   7.190   2.931   0.433  0.2591  0.0500  0.0600
   54MOL   C30635392   7.137   3.043   0.517 -0.2162 -0.6808 -0.4335
   54MOL   C30735393   7.121   2.996   0.668  0.0565 -0.0745 -0.8323
   54MOL   C30835394   7.081   3.113   0.756  0.5694  0.0706  0.0658
   54MOL   C30935395   7.056   3.067   0.901  0.8268 -0.3635 -0.2603
   54MOL   H31035396   6.590   2.693   0.187 -2.8024 -0.5559  0.1678
   54MOL   H31135397   6.635   2.637   0.032  0.7561  0.9781  1.0011
   54MOL   H31235398   6.754   2.521   0.285 -3.0925  1.9481  0.9647
   54MOL   H31335399   6.877   2.717   0.100  1.4912  0.6273  0.9981
   54MOL   H31435400   6.829   2.748   0.268  1.3185 -0.1534  1.7970
   54MOL   H31535401   6.962   2.561   0.353  0.5929  0.0450  0.9404
   54MOL   H31635402   7.035   2.553   0.192  0.9169  1.8709 -0.5962
   54MOL   H31735403   7.202   2.669   0.315 -0.6458 -0.5560  1.9295
   54MOL   H31835404   7.124   2.772   0.199 -0.6860  0.4404  0.0124
   54MOL   H31935405   7.060   2.764   0.493  0.7690  0.9230 -0.2914
   54MOL   H32035406   6.982   2.869   0.379  0.3791 -1.3531 -1.0865
   54MOL   H32135407   7.279   2.882   0.472 -0.4018  0.6158  2.3565
   54MOL   H32235408   7.221   2.967   0.335  2.3893  3.4399  1.8714
   54MOL   H32335409   7.046   3.092   0.482 -1.3764 -3.9973 -2.3342
   54MOL   H32435410   7.213   3.120   0.512  0.8632 -1.7038  0.0366
   54MOL   H32535411   7.220   2.959   0.698  1.8047  2.7666 -2.8699
   54MOL   H32635412   7.049   2.916   0.687 -2.6500  2.6952  1.0192
   54MOL   H32735413   6.988   3.151   0.713  1.5876 -0.0685 -2.3683
   54MOL   H32835414   7.151   3.195   0.747  1.7013 -0.6554  1.9011
   54MOL   H32935415   6.977   3.131   0.940  0.2407 -1.3868  0.2532
   54MOL   H33035416   7.009   2.970   0.914 -0.4414  0.5222  1.9717
   54MOL   H33135417   7.151   3.071   0.955  1.1250  0.3808 -0.8417
   54MOL   C33235418   6.804   2.430   0.096 -0.7000 -0.8846 -0.5560
   54MOL   C33335419   6.853   2.306   0.172 -0.3136 -0.1581  0.0405
   54MOL   C33435420   6.925   2.219   0.078  0.0115  0.5727 -0.3323
   54MOL   C33535421   7.073   2.250   0.071 -0.4775  0.0494 -0.2364
   54MOL   C33635422   7.147   2.179   7.655  0.1737  0.4690  0.8918
   54MOL   C33735423   7.307   2.198   7.671  0.2897  0.1020 -0.4918
   54MOL   C33835424   7.380   2.145   7.551  0.1441 -0.0010 -0.8682
   54MOL   C33935425   7.530   2.171   7.553  0.0991  0.3731 -0.0836
   54MOL   C34035426   7.611   2.100   7.653  0.3413  0.8524  0.2987
   54MOL   C34135427   0.046   2.165   7.673 -0.0454 -0.6168  0.5018
   54MOL   C34235428   0.135   2.105   0.069  0.0002  0.2058  0.2454
   54MOL   H34335429   6.741   2.400   0.013 -1.9629 -0.3010  0.1743
   54MOL   H34435430   6.887   2.471   0.039 -1.2052 -1.1373 -1.4770
   54MOL   H34535431   6.921   2.343   0.248 -0.6540 -0.2947  0.4141
   54MOL   H34635432   6.877   2.214   7.684 -1.5405 -1.4506  0.4863
   54MOL   H34735433   6.923   2.115   0.112  2.1659  0.2945 -0.9885
   54MOL   H34835434   7.084   2.358   0.063  0.8909 -0.2206 -2.8450
   54MOL   H34935435   7.112   2.224   0.169 -1.7356 -0.3973  0.1476
   54MOL   H35035436   7.119   2.074   7.658  0.0010  0.4229 -1.4256
   54MOL   H35135437   7.126   2.227   7.559  0.2095 -1.8851 -0.3271
   54MOL   H35235438   7.346   2.148   0.056  1.6057 -1.3731 -1.8620
   54MOL   H35335439   7.331   2.303   7.688  0.6796 -0.1435  0.4931
   54MOL   H35435440   7.341   2.180   7.455 -0.6741  0.3201 -0.4155
   54MOL   H35535441   7.351   2.040   7.546 -0.7943  0.2080  0.1261
   54MOL   H35635442   7.564   2.152   7.451  0.1858  2.5398 -0.4864
   54MOL   H35735443   7.530   2.279   7.570  0.0095  0.4997 -0.8758
   54MOL   H35835444   7.632   1.998   7.620 -1.0355  0.7908 -0.3943
   54MOL   H35935445   7.566   2.103   0.048  0.5505  0.7129  0.3988
   54MOL   H36035446   0.018   2.266   0.002  0.8852  0.4988 -2.0498
   54MOL   H36135447   0.100   2.165   7.578  0.4147  0.0289  0.7512
   54MOL   H36235448   0.200   2.029   0.025  1.1110  2.2411 -1.7567
   54MOL   H36335449   0.210   2.169   0.117  0.0545 -0.2789  0.8227
   54MOL   H36435450   0.076   2.057   0.147 -0.5665 -0.2984 -0.4912
   54MOL   C36535451   6.739   2.225   0.239  0.7180  0.5019  0.0142
   54MOL   C36635452   6.783   2.103   0.332  0.2428 -0.6323  0.0117
   54MOL   C36735453   6.917   2.119   0.411  0.3971  0.0564  0.1499
   54MOL   C36835454   6.905   2.229   0.520 -0.8304 -0.0211  0.4493
   54MOL   C36935455   7.044   2.279   0.573 -0.8083  0.2888 -0.6622
   54MOL   C37035456   7.021   2.382   0.683 -0.0761  0.6716 -0.8858
   54MOL   C37135457   7.147   2.459   0.718 -0.3159  0.1223 -0.5726
   54MOL   C37235458   7.162   2.517   0.867  0.5691 -0.1368  0.8995
   54MOL   C37335459   7.296   2.587   0.893  0.1397  0.5306 -0.1451
   54MOL   C37435460   7.308   2.649   1.039  1.1508 -0.1142 -0.7269
   54MOL   C37535461   7.215   2.768   1.043 -0.1066  0.0219 -0.2696
   54MOL   H37635462   6.693   2.303   0.300  0.0203  0.3414 -0.2975
   54MOL   H37735463   6.666   2.178   0.173 -1.8189 -1.2647  3.8368
   54MOL   H37835464   6.806   2.025   0.260  1.8125  1.5563 -1.9651
   54MOL   H37935465   6.992   2.142   0.336 -3.5035 -1.6921 -4.5518
   54MOL   H38035466   6.938   2.018   0.447  0.5913 -0.1162 -0.4480
   54MOL   H38135467   6.837   2.202   0.601 -2.2930 -1.7637 -1.3171
   54MOL   H38235468   6.853   2.312   0.473  0.4547  0.3536 -0.3294
   54MOL   H38335469   7.103   2.320   0.491  0.2669  0.7475  0.3296
   54MOL   H38435470   7.098   2.194   0.613 -0.8108 -0.2271 -1.7319
   54MOL   H38535471   7.006   2.330   0.777 -0.8683 -1.4377 -2.1322
   54MOL   H38635472   6.934   2.446   0.668 -0.1266  1.0636  0.9568
   54MOL   H38735473   7.230   2.389   0.710  1.3818  2.0441 -0.3192
   54MOL   H38835474   7.162   2.536   0.642 -0.2791  0.9917  0.2977
   54MOL   H38935475   7.164   2.424   0.924 -0.3283 -1.5331 -1.2751
   54MOL   H39035476   7.081   2.582   0.900 -0.7182 -2.2213  1.9582
   54MOL   H39135477   7.370   2.507   0.890 -2.9756 -2.4746 -1.2951
   54MOL   H39235478   7.315   2.664   0.819 -3.5652 -0.6531 -2.5093
   54MOL   H39335479   7.268   2.583   1.116 -2.4682  1.3003 -1.2908
   54MOL   H39435480   7.410   2.663   1.076  0.5522 -0.4330  1.1015
   54MOL   H39535481   7.118   2.718   1.044  0.1717 -0.5004  0.5211
   54MOL   H39635482   7.231   2.847   0.969  1.3831  1.2187  1.3119
   54MOL   H39735483   7.231   2.818   1.138 -1.6737 -0.7785  0.4340
   54MOL   C39835484   6.666   2.045   0.411 -0.1342 -0.9377 -0.1523
   54MOL   C39935485   6.686   1.907   0.465 -0.0557  0.8743 -0.0770
   54MOL   C40035486   6.664   1.790   0.362  0.2178 -0.0836  0.2914
   54MOL   C40135487   6.738   1.657   0.380 -0.4608 -0.1230  0.2904
   54MOL   C40235488   6.732   1.563   0.259  0.1380 -0.3848  0.8798
   54MOL   C40335489   6.745   1.416   0.295 -0.1276  0.5000 -0.6214
   54MOL   C40435490   6.787   1.330   0.178  0.7383 -0.8900  0.5001
   54MOL   C40535491   6.775   1.181   0.223 -0.3659  0.5090 -0.3711
   54MOL   C40635492   6.777   1.081   0.104 -0.1002  0.0439 -0.3427
   54MOL   C40735493   6.764   0.936   0.145 -0.5016 -0.3143  0.1120
   54MOL   C40835494   6.628   0.888   0.207 -0.1343 -0.4238 -0.1410
   54MOL   H40935495   6.579   2.036   0.345 -0.1574  3.7427 -0.9181
   54MOL   H41035496   6.642   2.116   0.491  2.0621 -0.4685  0.1263
   54MOL   H41135497   6.790   1.900   0.496  0.1008 -3.1392 -1.1595
   54MOL   H41235498   6.695   1.822   0.262 -0.5444 -0.4297 -0.0540
   54MOL   H41335499   6.558   1.767   0.351 -0.0277 -1.2132  4.2130
   54MOL   H41435500   6.845   1.655   0.403  0.0195  1.6850 -1.6123
   54MOL   H41535501   6.691   1.611   0.467  0.9371  0.8623  1.6007
   54MOL   H41635502   6.639   1.586   0.206 -0.0758 -1.5343  0.7479
   54MOL   H41735503   6.809   1.593   0.188 -1.2270  1.1540  0.0282
   54MOL   H41835504   6.660   1.378   0.352 -0.6917 -2.7058 -3.4343
   54MOL   H41935505   6.825   1.408   0.368  0.1978 -0.7382 -1.0982
   54MOL   H42035506   6.726   1.349   0.090  0.4224 -0.0033  0.8982
   54MOL   H42135507   6.887   1.358   0.146  0.6413 -1.2582 -0.1373
   54MOL   H42235508   6.685   1.165   0.281 -1.1277 -2.2850 -2.2382
   54MOL   H42335509   6.855   1.157   0.293  0.9785  1.6179 -1.4837
   54MOL   H42435510   6.713   1.110   0.021 -0.5252  5.2077  1.5447
   54MOL   H42535511   6.873   1.078   0.052  0.2155 -3.7001  0.3565
   54MOL   H42635512   6.841   0.902   0.214  2.5514  1.7465 -2.1085
   54MOL   H42735513   6.781   0.878   0.054  0.3185 -1.5728  1.0398
   54MOL   H42835514   6.557   0.885   0.124  0.6863 -1.2730 -0.8305
   54MOL   H42935515   6.597   0.954   0.287 -1.9325 -1.9004  0.4308
   54MOL   H43035516   6.633   0.786   0.247 -2.3605  0.1465  1.7136
   54MOL   C43135517   6.595   1.886   0.585 -0.5903 -0.1032 -0.1647
   54MOL   C43235518   6.636   1.947   0.720  0.0665 -0.0081 -0.1258
   54MOL   C43335519   6.735   1.871   0.810 -0.3589 -0.4110  0.3235
   54MOL   C43435520   6.883   1.899   0.782 -0.6493 -0.0237 -0.4160
   54MOL   C43535521   6.978   1.848   0.888 -0.0795  0.3453 -0.0976
   54MOL   C43635522   7.125   1.867   0.839  0.4144  0.8888 -0.5686
   54MOL   C43735523   7.231   1.819   0.939  0.4977  0.6799  0.4139
   54MOL   C43835524   7.374   1.865   0.908 -0.3396 -0.4724  0.3566
   54MOL   C43935525   7.468   1.868   1.028 -0.0673  0.1937 -0.2152
   54MOL   C44035526   7.617   1.843   0.995 -0.0569 -0.5088  1.0556
   54MOL   C44135527   0.019   1.846   1.111 -0.7735 -0.6865 -0.3059
   54MOL   H44235528   6.594   1.779   0.607  0.1248  0.4902  2.9253
   54MOL   H44335529   6.498   1.919   0.547  0.1232  0.5622 -1.4668
   54MOL   H44435530   6.694   2.034   0.689 -1.8798  1.0835 -0.7712
   54MOL   H44535531   6.722   1.898   0.915  1.7863  1.3196  0.1912
   54MOL   H44635532   6.722   1.763   0.806  2.7218 -0.7830 -0.8747
   54MOL   H44735533   6.896   2.007   0.782 -2.5871  0.2443 -2.3637
   54MOL   H44835534   6.908   1.858   0.685  0.3290 -0.7472  0.1391
   54MOL   H44935535   6.969   1.743   0.916 -0.2993  0.3064 -0.3053
   54MOL   H45035536   6.963   1.901   0.982 -0.6152 -3.9302  2.3678
   54MOL   H45135537   7.136   1.972   0.810 -1.5960  1.3710  0.3142
   54MOL   H45235538   7.127   1.808   0.748  2.7282 -1.0266  0.6951
   54MOL   H45335539   7.230   1.711   0.953  0.1842  0.8672  1.8499
   54MOL   H45435540   7.207   1.862   1.036  0.5314 -0.1094  0.7737
   54MOL   H45535541   7.421   1.805   0.831 -0.9371  0.5262 -0.7965
   54MOL   H45635542   7.371   1.964   0.863 -1.4771 -1.4849 -1.8398
   54MOL   H45735543   7.453   1.789   1.101  0.7124 -1.1273 -1.4532
   54MOL   H45835544   7.456   1.966   1.074 -0.6776 -0.1284  0.3145
   54MOL   H45935545   7.642   1.917   0.920 -0.1753 -0.1116  1.4079
   54MOL   H46035546   7.618   1.746   0.945 -0.4990  0.5529 -1.0936
   54MOL   H46135547   7.682   1.802   1.202  0.0561 -1.8942 -0.5070
   54MOL   H46235548   0.107   1.795   1.071 -0.0906 -0.3553  0.7286
   54MOL   H46335549   0.055   1.949   1.123 -0.0891 -1.2797  3.2711
   54MOL   C46435550   6.520   1.996   0.808  0.3038 -0.3656 -0.5735
   54MOL   C46535551   6.569   2.111   0.907  0.3442  0.0993 -0.5077
   54MOL   C46635552   6.511   2.255   0.876  0.2255  0.5017 -0.4852
   54MOL   C46735553   6.576   2.331   0.757  0.8123  0.7173 -0.1006
   54MOL   C46835554   6.523   2.472   0.718 -0.5194 -0.2860  0.3513
   54MOL   C46935555   6.625   2.545   0.640 -0.5310  0.0453  0.3244
   54MOL   C47035556   6.611   2.699   0.651 -0.1501  0.0554 -0.7500
   54MOL   C47135557   6.738   2.769   0.600  0.1561  0.4437  0.6307
   54MOL   C47235558   6.711   2.917   0.565  0.2359  0.3508 -0.2160
   54MOL   C47335559   6.705   3.004   0.688 -0.1243  0.2205 -0.2155
   54MOL   C47435560   6.693   3.151   0.664  0.1757 -0.1871 -0.6228
   54MOL   H47535561   6.485   1.907   0.860  0.6890  1.6699  3.3942
   54MOL   H47635562   6.438   2.035   0.747  0.9413 -1.3472 -2.0567
   54MOL   H47735563   6.678   2.111   0.910  0.3019 -0.5386  2.3943
   54MOL   H47835564   6.522   2.311   0.969  0.4576  0.6341 -0.5934
   54MOL   H47935565   6.404   2.241   0.861  0.1650 -0.6810  0.9641
   54MOL   H48035566   6.683   2.340   0.775  1.2646  0.0753 -2.3959
   54MOL   H48135567   6.574   2.280   0.661 -0.3937  1.0037 -0.2451
   54MOL   H48235568   6.512   2.540   0.803  1.1290 -1.3055  1.4021
   54MOL   H48335569   6.432   2.472   0.658  0.2503  0.6753 -0.8573
   54MOL   H48435570   6.728   2.530   0.672 -0.5639 -1.3242 -0.1689
   54MOL   H48535571   6.629   2.497   0.542  0.8185 -1.0895  0.9229
   54MOL   H48635572   6.526   2.737   0.596 -0.7047  1.6453  1.1718
   54MOL   H48735573   6.601   2.732   0.754 -2.0849 -1.1955 -0.5022
   54MOL   H48835574   6.826   2.760   0.664  0.2182  2.4315  0.8489
   54MOL   H48935575   6.759   2.719   0.505 -0.6158 -1.5229  1.4549
   54MOL   H49035576   6.784   2.961   0.497 -0.4359  0.9841 -0.5413
   54MOL   H49135577   6.617   2.929   0.510 -1.9695 -2.9031  2.6479
   54MOL   H49235578   6.630   2.979   0.763  1.3620  1.6589  1.7942
   54MOL   H49335579   6.798   2.989   0.744 -1.7100  2.8673  3.3371
   54MOL   H49435580   6.765   3.178   0.588 -0.4038  0.4888 -0.9302
   54MOL   H49535581   6.720   3.196   0.760 -0.6642 -2.4462  0.7337
   54MOL   H49635582   6.594   3.184   0.633  0.3051 -0.5632 -1.4436
   54MOL   C49735583   6.539   2.067   1.048  0.6649  0.1543 -0.3234
   54MOL   C49835584   6.578   2.160   1.167 -0.2722 -0.3093 -0.3199
   54MOL   C49935585   6.716   2.214   1.149 -0.2557 -0.8384  0.1659
   54MOL   C50035586   6.826   2.114   1.184 -0.4254  0.7598  0.1251
   54MOL   C50135587   6.967   2.172   1.152  0.0652 -0.7257 -0.6406
   54MOL   C50235588   7.090   2.104   1.222 -0.2932 -0.1322  0.2850
   54MOL   C50335589   7.219   2.176   1.207 -0.4429  0.0832 -0.2222
   54MOL   C50435590   7.333   2.137   1.293 -0.3265 -0.7088 -0.4793
   54MOL   C50535591   7.453   2.232   1.280 -0.0940  0.3775  0.2718
   54MOL   C50635592   7.567   2.205   1.377  0.4559 -0.5659 -0.3892
   54MOL   C50735593   7.675   2.308   1.359 -0.5113 -0.7157  0.3786
   54MOL   H50835594   6.432   2.053   1.065  0.7055 -1.9427 -1.5854
   54MOL   H50935595   6.589   1.974   1.074  0.7244  0.1160 -0.5707
   54MOL   H51035596   6.514   2.248   1.166 -0.2002 -0.2562 -2.3401
   54MOL   H51135597   6.721   2.300   1.216 -0.9625 -1.2821  0.7887
   54MOL   H51235598   6.734   2.258   1.051 -1.4011 -0.2468  0.2042
   54MOL   H51335599   6.824   2.023   1.123  2.0136  0.4843  0.4208
   54MOL   H51435600   6.832   2.080   1.287  0.9079 -2.0825 -0.8227
   54MOL   H51535601   6.982   2.183   1.044  1.5077  2.1731 -0.1776
   54MOL   H51635602   6.972   2.278   1.175  3.8456 -0.7300 -1.0591
   54MOL   H51735603   7.076   2.100   1.330 -1.1047 -1.5774  0.1396
   54MOL   H51835604   7.089   1.999   1.191  0.1852 -0.4035  1.1546
   54MOL   H51935605   7.240   2.185   1.100 -0.9185 -0.7294 -0.3915
   54MOL   H52035606   7.194   2.272   1.252 -0.8784 -0.4063  0.5925
   54MOL   H52135607   7.366   2.035   1.275  2.2895  0.0737 -0.4511
   54MOL   H52235608   7.302   2.135   1.398  1.0700  3.1686  0.1226
   54MOL   H52335609   7.424   2.336   1.299 -0.3152  0.1682  1.0835
   54MOL   H52435610   7.497   2.216   1.181 -1.7184  3.7537 -1.0832
   54MOL   H52535611   7.595   2.100   1.373 -1.4499 -1.1059 -0.1132
   54MOL   H52635612   7.523   2.214   1.476  0.0742 -1.0073 -0.5147
   54MOL   H52735613   0.063   2.287   1.414  0.2701 -0.8200 -0.9413
   54MOL   H52835614   7.649   2.412   1.380 -1.4515 -0.1990 -3.0156
   54MOL   H52935615   0.016   2.313   1.260 -2.2474 -0.4162 -0.4028
   54MOL   C53035616   6.551   2.093   1.308 -0.4020  0.2547  0.2595
   54MOL   C53135617   6.416   2.121   1.372  0.4425  0.0206 -0.2770
   54MOL   C53235618   6.417   2.241   1.478  0.0079 -0.1723  0.0104
   54MOL   C53335619   6.439   2.379   1.414 -0.8840 -0.1179 -0.3761
   54MOL   C53435620   6.444   2.478   1.526  0.1026  0.1485 -1.2067
   54MOL   C53535621   6.485   2.617   1.474 -0.2812 -0.5290  0.2239
   54MOL   C53635622   6.495   2.727   1.589  0.3234  0.4846 -0.3427
   54MOL   C53735623   6.499   2.867   1.529 -0.1076  0.2473 -0.0489
   54MOL   C53835624   6.540   2.975   1.636 -0.5856  0.4622 -0.0379
   54MOL   C53935625   6.529   3.118   1.574  0.6039  0.2687 -0.5130
   54MOL   C54035626   6.587   3.225   1.674  0.2136  0.2691 -0.1435
   54MOL   H54135627   6.592   1.993   1.292 -0.2266  0.2964  0.4454
   54MOL   H54235628   6.624   2.140   1.373  0.4696  1.9310 -1.8529
   54MOL   H54335629   6.342   2.145   1.296 -0.6312 -2.1138  0.0563
   54MOL   H54435630   6.502   2.222   1.543 -0.7100 -1.1128  0.7046
   54MOL   H54535631   6.326   2.256   1.538  0.9714  1.0112  1.2052
   54MOL   H54635632   6.365   2.408   1.340 -1.8768  1.4831  1.1989
   54MOL   H54735633   6.535   2.371   1.363 -1.1654  1.9905 -1.3062
   54MOL   H54835634   6.524   2.442   1.591  0.5504  1.2858 -1.1029
   54MOL   H54935635   6.358   2.477   1.592  1.0047 -1.4144 -0.0318
   54MOL   H55035636   6.415   2.652   1.397 -2.0110 -0.6030  1.7395
   54MOL   H55135637   6.581   2.604   1.423 -0.6949 -2.7126 -0.0503
   54MOL   H55235638   6.585   2.696   1.642 -0.3063  1.8238  1.5727
   54MOL   H55335639   6.407   2.711   1.652  1.3320  0.5046  1.0818
   54MOL   H55435640   6.404   2.880   1.479 -1.1423 -0.9304  1.5733
   54MOL   H55535641   6.574   2.862   1.450  0.8235 -0.2176  0.8443
   54MOL   H55635642   6.639   2.952   1.676 -0.1130  1.6070 -0.5123
   54MOL   H55735643   6.479   2.967   1.726  0.1702  0.0548  0.4447
   54MOL   H55835644   6.428   3.139   1.539 -0.2372 -1.9873  0.4457
   54MOL   H55935645   6.592   3.117   1.484  2.4228 -0.6117  0.7440
   54MOL   H56035646   6.584   3.195   1.778 -0.4152  2.2718  0.4293
   54MOL   H56135647   6.691   3.251   1.654  0.6042 -0.3733  1.0437
   54MOL   H56235648   6.530   3.318   1.670  0.9464  0.7521  0.4931
   54MOL   C56335649   6.368   1.991   1.446  0.6284  0.7279 -0.8706
   54MOL   C56435650   6.212   1.988   1.457  0.2002  0.5399 -0.6198
   54MOL   C56535651   6.155   1.941   1.596  0.0745  0.5883  0.2594
   54MOL   C56635652   6.181   2.039   1.718 -0.2120  0.2327 -0.1539
   54MOL   C56735653   6.093   2.004   1.839 -0.2880 -0.2772  0.3854
   54MOL   C56835654   6.101   2.110   1.951 -0.1381  0.0786 -0.3058
   54MOL   C56935655   6.023   2.063   2.075 -0.5187  0.1287  0.2022
   54MOL   C57035656   6.019   2.164   2.193  0.0981  0.1220  0.2787
   54MOL   C57135657   6.159   2.200   2.256  0.1897 -0.1559  0.0340
   54MOL   C57235658   6.149   2.289   2.385  0.6793  0.4189  0.5938
   54MOL   C57335659   6.279   2.328   2.444  0.0351  0.3414 -0.8135
   54MOL   H57435660   6.427   1.977   1.536  1.0644 -2.4576 -1.5774
   54MOL   H57535661   6.395   1.897   1.398 -0.3403 -0.2565  0.4813
   54MOL   H57635662   6.184   2.092   1.442 -0.9667  0.5425  1.3927
   54MOL   H57735663   6.192   1.842   1.621  0.5341 -0.0232 -2.6066
   54MOL   H57835664   6.047   1.930   1.584  0.1076  1.0231 -0.5103
   54MOL   H57935665   6.164   2.143   1.687  0.2531  0.1825 -0.5741
   54MOL   H58035666   6.287   2.046   1.742  0.1627 -2.5920 -0.9027
   54MOL   H58135667   6.125   1.905   1.871 -1.2539 -0.6326  0.2766
   54MOL   H58235668   5.991   1.991   1.803  0.5712 -1.2161 -1.8686
   54MOL   H58335669   6.207   2.130   1.967 -0.1887 -1.3753  2.1907
   54MOL   H58435670   6.075   2.212   1.923 -2.0401  1.0038  4.3648
   54MOL   H58535671   5.922   2.043   2.039 -0.0997 -0.1270 -0.8286
   54MOL   H58635672   6.063   1.964   2.099 -0.3491 -0.1505 -1.1759
   54MOL   H58735673   5.961   2.114   2.271 -2.0021 -2.6468 -2.8962
   54MOL   H58835674   5.970   2.257   2.164  1.2800  0.2001 -1.5721
   54MOL   H58935675   6.217   2.260   2.186  0.2211  2.0375  1.8767
   54MOL   H59035676   6.198   2.098   2.264 -1.5067 -0.7918  0.5043
   54MOL   H59135677   6.092   2.237   2.462  0.3804 -0.2353 -0.0554
   54MOL   H59235678   6.082   2.370   2.356 -0.1666 -0.4800 -0.0095
   54MOL   H59335679   6.327   2.399   2.377 -1.2692 -0.0666 -2.2096
   54MOL   H59435680   6.259   2.364   2.544  0.8676 -0.6799 -0.2682
   54MOL   H59535681   6.344   2.241   2.452 -1.4140 -0.9019 -2.1909
   54MOL   C59635682   6.150   1.908   1.330 -0.0502 -0.1629  0.9917
   54MOL   C59735683   6.024   1.968   1.261  0.1618 -0.9137  0.5548
   54MOL   C59835684   5.891   1.894   1.300  0.4015  0.0514 -0.1778
   54MOL   C59935685   5.768   1.979   1.276  0.0816 -0.2699 -0.0176
   54MOL   C60035686   5.634   1.916   1.307 -0.5285 -0.8914 -0.0387
   54MOL   C60135687   5.517   2.004   1.284 -0.5204 -0.0379 -0.3100
   54MOL   C60235688   5.392   1.932   1.324 -0.4644 -0.1295 -0.6881
   54MOL   C60335689   5.355   1.960   1.468  0.2165  0.0911  0.1673
   54MOL   C60435690   5.223   1.894   1.502 -0.2930 -0.1520 -0.2469
   54MOL   C60535691   5.152   1.948   1.634 -0.4670 -0.1591  0.6020
   54MOL   C60635692   5.007   1.900   1.647  0.7937  0.1152  0.5528
   54MOL   H60735693   6.225   1.906   1.250 -1.9370 -1.5135 -0.7896
   54MOL   H60835694   6.128   1.804   1.349 -1.5811 -0.2456 -1.0795
   54MOL   H60935695   6.007   2.070   1.296 -0.2202 -0.8528  0.1957
   54MOL   H61035696   5.896   1.873   1.407 -1.3030 -0.7338 -0.2374
   54MOL   H61135697   5.885   1.797   1.251 -3.4247  0.4029 -0.5094
   54MOL   H61235698   5.753   2.002   1.171 -0.6954 -2.0387 -0.2984
   54MOL   H61335699   5.771   2.074   1.331  1.9646 -0.8685  0.9793
   54MOL   H61435700   5.643   1.873   1.407  2.2470  0.4867  0.3446
   54MOL   H61535701   5.620   1.830   1.241  0.8372 -1.4059  0.3294
   54MOL   H61635702   5.527   2.092   1.347 -0.0788 -0.6292  0.4527
   54MOL   H61735703   5.533   2.041   1.182 -0.2104  1.9159  0.4312
   54MOL   H61835704   5.391   1.824   1.309 -1.8996  0.0076 -1.6475
   54MOL   H61935705   5.307   1.972   1.268 -0.3032 -1.3441 -1.8216
   54MOL   H62035706   5.339   2.066   1.487 -0.5985 -0.4300  2.5516
   54MOL   H62135707   5.439   1.934   1.531  0.2643 -0.1944 -0.0146
   54MOL   H62235708   5.149   1.901   1.423 -1.6066  0.6243  1.0249
   54MOL   H62335709   5.235   1.787   1.519 -1.3341 -0.3086 -0.4623
   54MOL   H62435710   5.148   2.056   1.629 -0.1117 -0.1917 -0.7395
   54MOL   H62535711   5.207   1.931   1.726 -1.1512 -1.7909  0.7266
   54MOL   H62635712   4.967   1.931   1.744  2.3330 -1.4586  1.7056
   54MOL   H62735713   4.943   1.945   1.571  0.8664  1.6893  1.4154
   54MOL   H62835714   4.998   1.791   1.642  0.4683  0.0873  1.6264
   54MOL   C62935715   6.041   1.982   1.111  0.4662  0.2355 -0.0566
   54MOL   C63035716   6.129   2.089   1.057 -0.3221 -0.4438 -0.2357
   54MOL   C63135717   6.058   2.209   1.003 -0.6782  0.4278  0.3109
   54MOL   C63235718   6.135   2.312   0.915 -0.7268 -0.0094  0.0603
   54MOL   C63335719   6.053   2.420   0.845 -0.5139  0.7125 -0.1709
   54MOL   C63435720   6.141   2.499   0.748 -0.0579 -0.5656 -0.7536
   54MOL   C63535721   6.050   2.600   0.675  0.9373  0.7335 -0.6803
   54MOL   C63635722   6.125   2.697   0.581 -0.0005 -0.3924 -0.2652
   54MOL   C63735723   6.218   2.807   0.649  0.5685 -0.5840 -0.1091
   54MOL   C63835724   6.277   2.915   0.550  0.6155  0.3129 -0.3195
   54MOL   C63935725   6.340   3.032   0.616  0.0765  0.1968 -1.0295
   54MOL   H64035726   6.074   1.888   1.067 -0.8827  0.1772 -1.0003
   54MOL   H64135727   5.942   1.993   1.066 -0.0698  0.1122  1.0945
   54MOL   H64235728   6.202   2.112   1.133  0.2732 -2.2847 -0.2239
   54MOL   H64335729   5.967   2.185   0.948 -1.3199  2.7651  0.2863
   54MOL   H64435730   6.017   2.264   1.088 -0.2035 -2.3637  2.4155
   54MOL   H64535731   6.178   2.251   0.835  2.6374  0.5554  1.3397
   54MOL   H64635732   6.217   2.366   0.963 -2.1128  1.3666  0.9264
   54MOL   H64735733   6.008   2.479   0.925 -0.4164 -2.0574  2.0401
   54MOL   H64835734   5.970   2.379   0.787  0.8710  1.2018 -2.5708
   54MOL   H64935735   6.189   2.437   0.672 -3.1114 -1.9316 -1.6733
   54MOL   H65035736   6.217   2.557   0.799 -1.6283  0.3210  0.6634
   54MOL   H65135737   5.988   2.654   0.747  1.1524 -0.2799  0.2692
   54MOL   H65235738   5.989   2.539   0.609 -0.5639  2.4996 -0.9725
   54MOL   H65335739   6.062   2.740   0.503  0.6110  0.4969 -0.2870
   54MOL   H65435740   6.192   2.641   0.517  1.3948  1.9078 -0.8921
   54MOL   H65535741   6.286   2.763   0.722  0.0213 -2.0982 -0.5122
   54MOL   H65635742   6.155   2.863   0.719 -1.9115 -0.0875 -2.6807
   54MOL   H65735743   6.191   2.949   0.493  0.5161  0.1444 -0.2685
   54MOL   H65835744   6.351   2.879   0.480  0.6145 -2.1589  0.9039
   54MOL   H65935745   6.434   3.002   0.664  0.9752 -0.0289 -2.9001
   54MOL   H66035746   6.293   3.089   0.696  0.0844 -0.7704 -0.3161
   54MOL   H66135747   6.358   3.110   0.543 -0.8367 -0.8554 -2.4075
   54MOL   H66235748   6.191   2.048   0.977  2.0632  0.4369  1.1439
   55MOL     C135749   5.341   4.239   5.342 -0.1808 -1.1124  0.6682
   55MOL     C235750   5.477   4.183   5.284 -0.1914 -0.2742  0.2310
   55MOL     C335751   5.490   4.200   5.128  0.4947 -0.3465 -0.3890
   55MOL     C435752   5.521   4.340   5.076  0.1959 -0.0250 -0.2297
   55MOL     C535753   5.594   4.329   4.935 -1.0930 -0.3867  0.9116
   55MOL     C635754   5.608   4.467   4.869 -0.6872 -0.1138  0.2047
   55MOL     C735755   5.678   4.466   4.729 -0.0293  0.5696 -0.3307
   55MOL     C835756   5.627   4.585   4.645  0.1654 -0.4227 -0.6998
   55MOL     C935757   5.629   4.559   4.498 -0.2399  0.0111  0.1738
   55MOL    C1035758   5.561   4.668   4.418  0.0955 -0.3871  0.3847
   55MOL    C1135759   5.643   4.781   4.375  0.4909 -0.2163 -0.0311
   55MOL    H1235760   5.261   4.165   5.345 -0.8423 -0.4117  0.5372
   55MOL    H1335761   5.310   4.327   5.285  3.2785 -1.5632 -2.0910
   55MOL    H1435762   5.470   4.076   5.299 -0.5805 -0.3975 -0.7551
   55MOL    H1535763   5.410   4.153   5.072 -0.5339  0.5270  0.3382
   55MOL    H1635764   5.579   4.143   5.101  0.9601  0.2109 -0.0372
   55MOL    H1735765   5.582   4.381   5.156  1.2634 -1.0350 -0.5182
   55MOL    H1835766   5.437   4.408   5.058 -0.2544 -0.0006  1.8207
   55MOL    H1935767   5.693   4.284   4.935 -0.8978 -0.0114 -0.8576
   55MOL    H2035768   5.543   4.265   4.862 -1.3207  2.1345 -1.1924
   55MOL    H2135769   5.664   4.533   4.936  2.3871 -2.1530 -0.3079
   55MOL    H2235770   5.508   4.511   4.857 -1.4177 -1.5366  1.0173
   55MOL    H2335771   5.786   4.484   4.736  0.1774 -0.7036  0.0608
   55MOL    H2435772   5.664   4.370   4.680 -1.5824  0.4342  0.3590
   55MOL    H2535773   5.673   4.682   4.662 -1.0136 -0.3885  2.6375
   55MOL    H2635774   5.519   4.599   4.659  0.3987  0.7823 -0.0415
   55MOL    H2735775   5.575   4.464   4.494 -1.7993  0.9032 -0.1021
   55MOL    H2835776   5.733   4.544   4.469 -0.5783 -1.9861 -0.0849
   55MOL    H2935777   5.468   4.702   4.463  0.9905  1.0863  1.1689
   55MOL    H3035778   5.538   4.619   4.323 -0.6631 -1.9142  1.3447
   55MOL    H3135779   5.728   4.749   4.314  0.8037 -2.3407  1.4838
   55MOL    H3235780   5.597   4.863   4.319 -3.3398 -2.4322 -0.2268
   55MOL    H3335781   5.679   4.837   4.461  0.1870  1.2604 -0.8292
   55MOL    H3435782   5.352   4.266   5.447 -1.1872 -0.2647  0.5627
   55MOL    C3535783   5.600   4.223   5.374 -0.4569 -0.0853 -0.1965
   55MOL    C3635784   5.612   4.187   5.520  0.0354 -0.2274  0.3170
   55MOL    C3735785   5.598   4.035   5.558  0.7010 -0.1919 -0.4789
   55MOL    C3835786   5.466   4.005   5.632  0.2086  0.2929 -0.6310
   55MOL    C3935787   5.440   3.851   5.630  0.5392  0.3254 -0.1946
   55MOL    C4035788   5.384   3.818   5.492 -0.2939  0.0625 -0.8478
   55MOL    C4135789   5.364   3.663   5.502 -0.7325 -0.2343  0.4843
   55MOL    C4235790   5.361   3.599   5.367 -0.4385 -0.1373 -0.2574
   55MOL    C4335791   5.363   3.441   5.367  0.4122  0.1769  0.3034
   55MOL    C4435792   5.391   3.394   5.227  0.2254  0.8328  0.6666
   55MOL    C4535793   5.386   3.243   5.215 -0.8012 -0.4624 -0.4228
   55MOL    H4635794   5.600   4.332   5.363 -0.2813 -0.1666 -1.0554
   55MOL    H4735795   5.696   4.199   5.328 -0.6693  0.1851 -0.7871
   55MOL    H4835796   5.528   4.230   5.574  0.4191 -1.3437  1.8310
   55MOL    H4935797   5.618   3.972   5.471  0.2384 -0.6476 -0.2586
   55MOL    H5035798   5.673   4.020   5.637  0.6718  0.6571 -0.2935
   55MOL    H5135799   5.382   4.062   5.593 -0.4743 -0.7932 -0.7967
   55MOL    H5235800   5.475   4.042   5.734  1.3189 -1.6786  0.0173
   55MOL    H5335801   5.365   3.810   5.697 -1.0426 -0.6242 -2.4947
   55MOL    H5435802   5.540   3.806   5.634  0.0158 -0.8369  0.1329
   55MOL    H5535803   5.447   3.848   5.408  1.3518 -0.0690  0.3188
   55MOL    H5635804   5.287   3.861   5.465 -0.9610 -0.6626  0.3338
   55MOL    H5735805   5.453   3.629   5.554  0.2147 -1.8422 -2.0645
   55MOL    H5835806   5.277   3.636   5.561 -0.9341  0.9809  0.7671
   55MOL    H5935807   5.454   3.623   5.316 -1.0139  0.7974 -0.8805
   55MOL    H6035808   5.273   3.636   5.313  0.3499  1.5641 -0.3976
   55MOL    H6135809   5.268   3.401   5.403 -2.0248  1.7239 -4.0102
   55MOL    H6235810   5.446   3.416   5.432  1.3803  0.7212 -0.7022
   55MOL    H6335811   5.328   3.429   5.145 -0.9871 -0.4676  1.0350
   55MOL    H6435812   5.497   3.421   5.219 -0.2711  2.4314 -1.1324
   55MOL    H6535813   5.481   3.206   5.253  0.3394  3.2270  0.5534
   55MOL    H6635814   5.305   3.204   5.277 -0.0313  0.9222  1.5000
   55MOL    H6735815   5.381   3.198   5.116  4.2592  1.3561 -1.6409
   55MOL    C6835816   5.742   4.250   5.565  0.6411 -0.3226 -0.3116
   55MOL    C6935817   5.749   4.286   5.711 -0.3161 -0.2958  0.4439
   55MOL    C7035818   5.899   4.328   5.743 -0.2546 -0.1310 -0.7935
   55MOL    C7135819   6.001   4.220   5.780 -0.1539 -0.8143 -0.3919
   55MOL    C7235820   6.143   4.264   5.763 -0.5457  0.3126 -0.2225
   55MOL    C7335821   6.234   4.150   5.799 -0.2782 -0.4543 -0.7867
   55MOL    C7435822   6.389   4.183   5.785 -0.3260 -0.2615 -0.0907
   55MOL    C7535823   6.483   4.069   5.809 -0.3730  0.1430 -0.0510
   55MOL    C7635824   6.633   4.106   5.809 -0.2687 -0.3989 -0.5754
   55MOL    C7735825   6.693   4.132   5.669  0.1981 -0.5363 -0.1921
   55MOL    C7835826   6.841   4.161   5.678 -0.6021 -1.0208  0.7456
   55MOL    H7935827   5.773   4.337   5.507 -0.0498  1.3549  1.7803
   55MOL    H8035828   5.820   4.177   5.542 -0.9313 -2.5410  1.0869
   55MOL    H8135829   5.722   4.199   5.771  2.0359 -2.0160 -0.8871
   55MOL    H8235830   5.899   4.386   5.835 -1.2214 -0.4230 -0.5991
   55MOL    H8335831   5.942   4.388   5.662  2.7455 -0.6099  0.3745
   55MOL    H8435832   5.993   4.192   5.885 -2.1596 -2.2498 -0.8911
   55MOL    H8535833   5.984   4.124   5.731  0.7311 -0.4313 -1.4728
   55MOL    H8635834   6.159   4.354   5.821 -2.6150  1.1316 -0.9030
   55MOL    H8735835   6.163   4.289   5.659  1.9642 -3.1250 -0.6757
   55MOL    H8835836   6.207   4.114   5.899 -1.2429  1.1226 -0.4632
   55MOL    H8935837   6.217   4.067   5.731 -1.6669 -0.4466 -0.4740
   55MOL    H9035838   6.396   4.274   5.845 -0.6810 -1.0778  1.2225
   55MOL    H9135839   6.405   4.216   5.682 -0.2288 -0.2876 -0.0837
   55MOL    H9235840   6.455   4.039   5.910  0.2661 -1.2439 -0.2649
   55MOL    H9335841   6.481   3.982   5.743  2.6828 -0.0104 -0.0279
   55MOL    H9435842   6.640   4.188   5.880 -0.7620  0.1106 -1.1085
   55MOL    H9535843   6.689   4.018   5.840 -2.4261 -1.5017  0.3694
   55MOL    H9635844   6.675   4.048   5.602 -0.9926 -0.1210 -0.4022
   55MOL    H9735845   6.634   4.204   5.613  0.5224 -0.6456 -0.6818
   55MOL    H9835846   6.890   4.086   5.741  0.0780 -1.3333 -0.1316
   55MOL    H9935847   6.855   4.260   5.723  0.6349 -1.0598  0.4846
   55MOL   H10035848   6.894   4.155   5.583  0.3215  2.1806  0.9994
   55MOL   C10135849   5.649   4.406   5.739  0.1419  0.5713 -0.8972
   55MOL   C10235850   5.532   4.370   5.834 -0.2071  0.1223  0.4743
   55MOL   C10335851   5.394   4.397   5.773 -0.2339  0.3562  0.1011
   55MOL   C10435852   5.280   4.334   5.850  0.2880 -0.0555 -0.2715
   55MOL   C10535853   5.144   4.360   5.792  0.5956 -0.1878 -0.0102
   55MOL   C10635854   5.106   4.277   5.672  0.2127  0.7476 -0.0483
   55MOL   C10735855   4.967   4.326   5.626  0.0307  0.1875  0.3283
   55MOL   C10835856   4.911   4.266   5.498 -0.2722  0.5158 -0.4407
   55MOL   C10935857   4.765   4.298   5.470 -0.4084 -0.2344  0.2939
   55MOL   C11035858   4.730   4.444   5.443 -0.3779 -0.5575  0.4818
   55MOL   C11135859   4.600   4.452   5.361 -0.4958  0.3580  0.1465
   55MOL   H11235860   5.700   4.489   5.787  0.0737 -0.5931  1.2497
   55MOL   H11335861   5.609   4.436   5.642  1.7754  1.4247 -1.3236
   55MOL   H11435862   5.537   4.262   5.842 -1.2818  0.1747  2.0744
   55MOL   H11535863   5.374   4.504   5.772  0.5618  0.5082 -1.3610
   55MOL   H11635864   5.381   4.371   5.668 -2.0519  0.4423  0.2791
   55MOL   H11735865   5.291   4.226   5.844 -1.5188 -0.2488 -0.2294
   55MOL   H11835866   5.288   4.366   5.954  0.4358  2.3419 -0.9815
   55MOL   H11935867   5.072   4.341   5.872  0.3863  1.4276  0.1959
   55MOL   H12035868   5.146   4.467   5.771 -1.0450  0.4381  2.8304
   55MOL   H12135869   5.174   4.309   5.593  0.3560 -1.1281 -0.6961
   55MOL   H12235870   5.114   4.169   5.685  2.1991  0.8795  0.1088
   55MOL   H12335871   4.972   4.433   5.603  2.3243 -0.2589 -1.4877
   55MOL   H12435872   4.892   4.326   5.705  0.1366  0.1353  0.4290
   55MOL   H12535873   4.966   4.298   5.410 -0.8211 -0.2167 -1.0504
   55MOL   H12635874   4.925   4.159   5.514  1.8664  0.9589  0.9432
   55MOL   H12735875   4.744   4.248   5.375 -0.8935  0.6045 -0.0407
   55MOL   H12835876   4.707   4.260   5.554  1.8539  1.6048  2.7876
   55MOL   H12935877   4.803   4.494   5.380  0.7506 -0.7933  1.5841
   55MOL   H13035878   4.717   4.499   5.537  0.7948  0.2956  0.1641
   55MOL   H13135879   4.616   4.416   5.259  0.5676 -2.0022  1.1069
   55MOL   H13235880   4.520   4.399   5.411 -0.9814  0.4696 -0.5096
   55MOL   H13335881   4.564   4.554   5.352 -0.3638  0.3814 -0.1256
   55MOL   C13435882   5.559   4.423   5.979  0.5521  0.3137  0.2877
   55MOL   C13535883   5.666   4.351   6.063 -0.1411 -0.2124 -0.0979
   55MOL   C13635884   5.661   4.202   6.076  0.3985 -0.7126  0.0238
   55MOL   C13735885   5.517   4.145   6.101 -0.4446  0.5453  0.1531
   55MOL   C13835886   5.513   3.996   6.055  0.5921  0.4124  0.2816
   55MOL   C13935887   5.378   3.930   6.089  0.2240 -0.3497 -0.2093
   55MOL   C14035888   5.354   3.788   6.029 -0.0924 -0.8853  0.7313
   55MOL   C14135889   5.204   3.768   6.018 -0.9129 -0.7862  0.3981
   55MOL   C14235890   5.181   3.620   5.994  0.6777  0.0296 -0.5437
   55MOL   C14335891   5.031   3.588   5.969  1.1562 -0.0518 -0.0681
   55MOL   C14435892   4.950   3.596   6.095  0.4137  0.7676  0.2349
   55MOL   H14535893   5.580   4.530   5.984  0.8122  0.2372  0.8562
   55MOL   H14635894   5.463   4.408   6.028 -1.9116 -0.7133 -4.5194
   55MOL   H14735895   5.754   4.382   6.006  0.2446 -0.3935  0.3917
   55MOL   H14835896   5.724   4.160   6.154  1.4161 -0.1649 -0.4892
   55MOL   H14935897   5.699   4.165   5.980  0.5325  0.9077 -0.5676
   55MOL   H15035898   5.491   4.159   6.206  1.9275 -0.4251  0.9139
   55MOL   H15135899   5.443   4.209   6.053 -2.3313 -2.4408 -1.0504
   55MOL   H15235900   5.528   3.999   5.947 -0.1501 -0.5718  0.1428
   55MOL   H15335901   5.588   3.940   6.112 -0.8915 -0.6844  1.2236
   55MOL   H15435902   5.363   3.947   6.195  0.8811  1.4114 -0.3814
   55MOL   H15535903   5.306   4.001   6.048 -0.5751 -0.6897  0.5723
   55MOL   H15635904   5.407   3.770   5.936  0.5290  0.0639  0.8985
   55MOL   H15735905   5.390   3.719   6.104 -0.9412 -1.5807  0.5025
   55MOL   H15835906   5.159   3.809   6.109 -1.0194 -2.0763  0.9538
   55MOL   H15935907   5.165   3.825   5.934  1.5117  1.9953  1.0889
   55MOL   H16035908   5.228   3.587   5.901  0.2592 -0.9009 -0.4340
   55MOL   H16135909   5.234   3.559   6.067  2.1206  0.9367 -0.8091
   55MOL   H16235910   4.993   3.661   5.897  0.2789  0.9304  1.3528
   55MOL   H16335911   5.027   3.485   5.935  1.5042 -0.4540  1.0621
   55MOL   H16435912   4.991   3.526   6.168 -0.7325  0.0411  0.1971
   55MOL   H16535913   4.857   3.553   6.057  1.2493 -1.1041  0.2156
   55MOL   H16635914   4.949   3.700   6.127 -3.0137  1.3775 -1.6263
   55MOL   C16735915   5.677   4.413   6.204  0.1061  0.3039 -0.8501
   55MOL   C16835916   5.818   4.418   6.267 -0.5443  0.0737  0.0372
   55MOL   C16935917   5.826   4.390   6.417 -0.3559 -0.4900 -0.5129
   55MOL   C17035918   5.755   4.485   6.512  0.2738  0.7325  0.2523
   55MOL   C17135919   5.713   4.424   6.645  0.3339 -0.3263  0.2133
   55MOL   C17235920   5.661   4.541   6.733 -0.4158  0.5481 -0.3721
   55MOL   C17335921   5.659   4.502   6.874  0.1423 -0.2446 -0.2606
   55MOL   C17435922   5.642   4.630   6.963  0.1507 -0.4757 -0.1020
   55MOL   C17535923   5.690   4.605   7.109  0.1284  0.1968  0.1436
   55MOL   C17635924   5.606   4.519   7.205  0.0120 -0.3920 -0.0810
   55MOL   C17735925   5.664   4.503   7.344  0.1084  0.3707  0.8474
   55MOL   H17835926   5.634   4.513   6.209 -1.6257 -0.5306  2.0849
   55MOL   H17935927   5.618   4.353   6.272  0.3718 -0.7022 -1.5029
   55MOL   H18035928   5.876   4.336   6.224 -2.1179 -0.1920 -1.6332
   55MOL   H18135929   5.930   4.386   6.449 -0.6064 -1.3401  0.2412
   55MOL   H18235930   5.786   4.289   6.429 -1.6805  0.2277  1.4422
   55MOL   H18335931   5.816   4.575   6.517  0.3204  0.8675 -2.1963
   55MOL   H18435932   5.670   4.537   6.466  0.8396  1.1705 -0.3104
   55MOL   H18535933   5.801   4.377   6.689  0.2502  0.8417  1.6438
   55MOL   H18635934   5.637   4.347   6.642 -2.3199  2.2230  0.1618
   55MOL   H18735935   5.735   4.620   6.718  2.8623 -2.5483 -1.2268
   55MOL   H18835936   5.566   4.578   6.693 -0.7714 -0.6313 -0.6538
   55MOL   H18935937   5.750   4.450   6.905  0.0505  1.1864  2.5886
   55MOL   H19035938   5.575   4.434   6.890 -1.3524  1.2694 -1.4923
   55MOL   H19135939   5.692   4.718   6.921  0.4042 -0.5771 -0.0149
   55MOL   H19235940   5.539   4.663   6.973 -0.5686 -2.3943 -1.2100
   55MOL   H19335941   5.702   4.702   7.156  1.4988  0.1614 -0.1274
   55MOL   H19435942   5.793   4.570   7.097 -0.1005 -0.4000 -0.1398
   55MOL   H19535943   5.593   4.417   7.168 -0.9095 -0.1149 -0.5183
   55MOL   H19635944   5.506   4.561   7.208  0.0666  0.1483 -3.9787
   55MOL   H19735945   5.667   4.598   7.397  1.0088  0.8251 -0.0013
   55MOL   H19835946   5.762   4.454   7.338 -0.7171 -1.2328  0.1945
   55MOL   H19935947   5.613   4.430   7.406  1.6795 -1.6280 -0.1380
   55MOL   C20035948   5.897   4.544   6.236  0.3709 -0.0021  0.3300
   55MOL   C20135949   5.958   4.566   6.099  0.9646 -0.1068  0.4624
   55MOL   C20235950   6.080   4.482   6.070  1.1564 -0.2535 -0.3264
   55MOL   C20335951   6.202   4.517   6.161 -0.0417  0.0029  0.8362
   55MOL   C20435952   6.321   4.425   6.139  0.0953 -0.3976  0.0996
   55MOL   C20535953   6.314   4.288   6.209 -0.5691 -0.2737 -0.1483
   55MOL   C20635954   6.449   4.212   6.207  0.1691  0.8242 -0.1637
   55MOL   C20735955   6.435   4.072   6.264  0.4501 -0.6222 -0.0886
   55MOL   C20835956   6.430   4.083   6.420  0.0320  0.0520 -0.0860
   55MOL   C20935957   6.419   3.946   6.481  0.0705 -0.2314 -0.4807
   55MOL   C21035958   6.390   3.947   6.628 -0.0374  0.1257  0.2213
   55MOL   H21135959   5.821   4.620   6.252  0.3461 -0.1258  0.8213
   55MOL   H21235960   5.968   4.568   6.315  0.3447 -1.8965  0.9658
   55MOL   H21335961   5.892   4.531   6.020 -0.0535  2.5108  0.0966
   55MOL   H21435962   6.107   4.503   5.966  2.7672 -0.6730  0.0007
   55MOL   H21535963   6.064   4.375   6.077  1.0869 -0.4351 -2.7496
   55MOL   H21635964   6.181   4.519   6.268 -2.7057  0.8846  0.3322
   55MOL   H21735965   6.230   4.620   6.141 -0.8413  0.3108  1.2762
   55MOL   H21835966   6.402   4.485   6.182 -1.0572  1.2174  0.0836
   55MOL   H21935967   6.351   4.409   6.036  0.5058  1.7394 -0.1428
   55MOL   H22035968   6.281   4.307   6.311  1.6384 -0.4091  0.6174
   55MOL   H22135969   6.244   4.223   6.156  0.5880 -0.8001 -1.0582
   55MOL   H22235970   6.534   4.261   6.253  1.2937  0.0464 -1.3800
   55MOL   H22335971   6.492   4.202   6.107  0.9268  0.3815  0.2054
   55MOL   H22435972   6.511   4.001   6.231 -0.1230 -1.3258  0.0777
   55MOL   H22535973   6.344   4.026   6.226 -0.3116  0.9092 -0.1616
   55MOL   H22635974   6.344   4.143   6.450 -0.1160  0.3085 -0.9959
   55MOL   H22735975   6.521   4.136   6.449  1.5152 -1.8498 -1.1006
   55MOL   H22835976   6.343   3.882   6.436 -0.7933  0.2951  0.2270
   55MOL   H22935977   6.518   3.906   6.458  0.7501  1.2527 -0.1478
   55MOL   H23035978   6.408   3.851   6.676 -0.8052  0.9858  2.2617
   55MOL   H23135979   6.289   3.982   6.650  0.1044  0.3716  0.4820
   55MOL   H23235980   6.449   4.029   6.671 -0.2647  0.6898 -0.5383
   55MOL   C23335981   5.994   4.723   6.074 -0.3384  0.3714 -0.2782
   55MOL   C23435982   5.888   4.817   6.012  0.0831 -0.0419 -0.2956
   55MOL   C23535983   5.760   4.829   6.093 -0.0575  0.1042  0.1106
   55MOL   C23635984   5.770   4.889   6.229  0.3145  0.9168  0.0348
   55MOL   C23735985   5.645   4.842   6.306 -0.0026 -0.0802 -0.2606
   55MOL   C23835986   5.642   4.898   6.450  0.1235 -0.0273  0.0940
   55MOL   C23935987   5.519   4.870   6.539  0.1827  0.4930  0.5097
   55MOL   C24035988   5.514   4.907   6.690 -0.1014 -0.9688  0.0606
   55MOL   C24135989   5.376   4.867   6.736 -0.2132 -0.9758 -0.2983
   55MOL   C24235990   5.355   4.907   6.882 -0.2461 -0.8323  0.2538
   55MOL   C24335991   5.228   4.855   6.953 -0.5974  0.3213  0.2120
   55MOL   H24435992   6.076   4.724   6.003  0.8175  0.4444  1.0328
   55MOL   H24535993   6.041   4.757   6.166 -0.1437 -0.7662  0.0558
   55MOL   H24635994   5.952   4.905   6.012  3.1213 -2.1865  0.6971
   55MOL   H24735995   5.695   4.890   6.031  0.1152  0.0041 -0.1723
   55MOL   H24835996   5.718   4.729   6.093  2.0362 -0.8190 -0.9453
   55MOL   H24935997   5.777   4.998   6.228  0.5456  0.8961 -0.9424
   55MOL   H25035998   5.861   4.862   6.283 -0.3810 -2.4936 -0.3708
   55MOL   H25135999   5.645   4.734   6.320  0.1920  0.2664  2.5159
   55MOL   H25236000   5.544   4.859   6.270  0.4110  0.8264 -1.0269
   55MOL   H25336001   5.650   5.006   6.447 -0.5618 -0.0138 -1.5369
   55MOL   H25436002   5.726   4.869   6.513 -0.3320 -0.0585  0.6897
   55MOL   H25536003   5.441   4.923   6.484 -0.8772 -0.4596  1.0869
   55MOL   H25636004   5.499   4.763   6.536  1.1015  0.2108  3.1731
   55MOL   H25736005   5.580   4.844   6.749 -2.1665 -2.5133  0.8142
   55MOL   H25836006   5.524   5.015   6.705 -2.2502 -0.9236  1.5218
   55MOL   H25936007   5.303   4.909   6.667  0.1326 -0.4699 -0.3644
   55MOL   H26036008   5.360   4.759   6.734  2.2752 -1.4036  0.5687
   55MOL   H26136009   5.363   5.015   6.895  1.6938 -0.9496  0.1269
   55MOL   H26236010   5.437   4.865   6.940 -0.9839 -1.6866  0.7029
   55MOL   H26336011   5.193   4.759   6.915 -1.8915  0.8269  0.1047
   55MOL   H26436012   5.147   4.927   6.945 -1.5698 -0.7247  0.4815
   55MOL   H26536013   5.252   4.829   7.056  0.6164  0.7144  0.0447
   55MOL   C26636014   5.852   4.765   5.864 -0.1558  0.1768  0.2281
   55MOL   C26736015   5.793   4.859   5.760 -0.3777  0.8894  0.2853
   55MOL   C26836016   5.754   4.806   5.624 -0.4427  0.0781  0.0288
   55MOL   C26936017   5.863   4.718   5.552  0.3349 -0.2070  0.1897
   55MOL   C27036018   5.820   4.633   5.432 -0.0609 -0.0467  0.0930
   55MOL   C27136019   5.937   4.552   5.375  0.2284 -0.1246 -0.5181
   55MOL   C27236020   5.897   4.472   5.248 -0.2630  0.3919  0.1926
   55MOL   C27336021   5.995   4.371   5.202  0.3903  0.4995  0.0152
   55MOL   C27436022   5.938   4.292   5.079  0.2283  0.8053  0.0064
   55MOL   C27536023   6.045   4.222   4.993 -0.8043 -0.2699 -0.1554
   55MOL   C27636024   6.000   4.140   4.870 -0.3459 -0.2231 -0.4577
   55MOL   H27736025   5.792   4.673   5.864 -0.7821  0.5845  0.3797
   55MOL   H27836026   5.943   4.728   5.817 -1.3459  0.5142 -2.4732
   55MOL   H27936027   5.696   4.893   5.795 -0.0526  0.7711  1.2940
   55MOL   H28036028   5.664   4.745   5.634 -1.1081  0.5564 -2.5122
   55MOL   H28136029   5.719   4.888   5.562  0.1611  0.9756  0.8641
   55MOL   H28236030   5.907   4.638   5.612 -0.2696  1.4787  2.9795
   55MOL   H28336031   5.951   4.777   5.529 -0.5535  0.8545 -0.5391
   55MOL   H28436032   5.776   4.697   5.356  2.6130  1.8178  0.0247
   55MOL   H28536033   5.745   4.559   5.460  0.4702 -0.3681  0.6778
   55MOL   H28636034   5.981   4.491   5.454  0.5098 -0.1176 -0.6682
   55MOL   H28736035   6.016   4.621   5.343  1.4604  0.1636  2.9679
   55MOL   H28836036   5.812   4.409   5.272  1.8340 -4.7661 -4.6307
   55MOL   H28936037   5.871   4.544   5.170 -2.2205  0.7615  1.1516
   55MOL   H29036038   6.028   4.312   5.287  1.5701 -0.2312 -0.9403
   55MOL   H29136039   6.084   4.427   5.175  1.8997 -1.2258  1.3351
   55MOL   H29236040   5.857   4.225   5.110 -1.1385  1.5949 -1.7427
   55MOL   H29336041   5.892   4.372   5.022  0.0565  0.4902 -0.3045
   55MOL   H29436042   6.114   4.171   5.060  1.0892  0.4293 -1.5208
   55MOL   H29536043   6.101   4.305   4.950  0.7388 -1.3104 -0.1841
   55MOL   H29636044   5.934   4.203   4.811  1.5555  0.6421 -1.7388
   55MOL   H29736045   5.944   4.058   4.915 -0.3646 -1.0532 -1.9827
   55MOL   H29836046   6.064   4.096   4.793  0.4439  1.8202 -1.0204
   55MOL   C29936047   5.880   4.984   5.753 -1.0015  0.3586 -0.2391
   55MOL   C30036048   5.829   5.111   5.824 -0.5520 -0.0241  0.7466
   55MOL   C30136049   5.682   5.159   5.781 -1.0063  0.1964  0.4731
   55MOL   C30236050   5.691   5.219   5.637  0.6893 -0.6501  0.4211
   55MOL   C30336051   5.548   5.230   5.573 -0.6470  0.3536  0.3027
   55MOL   C30436052   5.458   5.345   5.618  0.4960 -0.4228  0.0145
   55MOL   C30536053   5.521   5.474   5.586 -0.1337  0.9091  0.2222
   55MOL   C30636054   5.407   5.585   5.561 -0.7475  0.1039 -0.2955
   55MOL   C30736055   5.465   5.720   5.511 -0.5942 -0.4526 -0.4135
   55MOL   C30836056   5.362   5.824   5.517  0.3451 -0.7693 -0.1199
   55MOL   C30936057   5.411   5.966   5.508 -0.5888  0.8094 -0.0315
   55MOL   H31036058   5.903   4.999   5.648 -0.6760  1.0643 -0.0682
   55MOL   H31136059   5.981   4.966   5.789 -1.3156  2.4044  1.7211
   55MOL   H31236060   5.821   5.093   5.931 -1.3454 -0.0038  0.6897
   55MOL   H31336061   5.611   5.077   5.772  0.2015 -0.7249 -0.9096
   55MOL   H31436062   5.655   5.220   5.867 -1.0494 -2.2258  2.2213
   55MOL   H31536063   5.743   5.314   5.630 -0.5604 -0.1563 -2.6777
   55MOL   H31636064   5.748   5.156   5.569 -0.3832 -0.6903 -0.4581
   55MOL   H31736065   5.557   5.223   5.464  2.9779 -1.0782  0.6419
   55MOL   H31836066   5.496   5.136   5.590 -1.3147  0.6811  0.1017
   55MOL   H31936067   5.446   5.335   5.726 -1.4131 -0.4307 -0.1772
   55MOL   H32036068   5.362   5.334   5.566  0.1522 -2.0603  0.9593
   55MOL   H32136069   5.585   5.513   5.665 -0.4748 -1.4690  1.7224
   55MOL   H32236070   5.581   5.476   5.496  0.5590 -1.9828  0.5523
   55MOL   H32336071   5.355   5.601   5.655  1.9464  3.3293  0.7357
   55MOL   H32436072   5.330   5.554   5.490  1.0384 -1.2339 -1.7060
   55MOL   H32536073   5.512   5.710   5.413  1.1918 -1.5494  0.5288
   55MOL   H32636074   5.542   5.748   5.583 -2.1473 -2.6347  2.1757
   55MOL   H32736075   5.300   5.808   5.606  1.0690 -0.6022  0.4188
   55MOL   H32836076   5.288   5.799   5.441  1.4206 -3.8554 -0.2041
   55MOL   H32936077   5.328   6.030   5.538 -0.5448  0.9101 -0.1287
   55MOL   H33036078   5.500   5.986   5.569  0.0403 -2.7778  0.3511
   55MOL   H33136079   5.449   5.985   5.408  1.5205 -0.5353  0.4536
   55MOL   C33236080   5.938   5.229   5.822 -0.0486 -0.3425  0.5859
   55MOL   C33336081   6.066   5.217   5.909 -0.3241 -0.2576 -0.0863
   55MOL   C33436082   6.040   5.243   6.061 -0.4953 -0.3194 -0.7017
   55MOL   C33536083   6.168   5.230   6.145  0.1118 -0.5321 -0.3351
   55MOL   C33636084   6.138   5.267   6.291 -0.7210 -0.0720  0.6873
   55MOL   C33736085   6.064   5.158   6.367 -0.3167  0.6167  0.1160
   55MOL   C33836086   6.046   5.182   6.516 -0.0905  0.2043  0.2229
   55MOL   C33936087   5.970   5.075   6.592  0.1848 -0.0876  0.7181
   55MOL   C34036088   5.928   5.116   6.735 -0.5440  0.4450  0.9176
   55MOL   C34136089   5.912   4.992   6.827  0.3656 -0.1973 -0.2913
   55MOL   C34236090   5.862   5.035   6.968  0.5174  0.3108  0.0216
   55MOL   H34336091   5.975   5.242   5.720 -0.4179  0.5000  0.5535
   55MOL   H34436092   5.890   5.322   5.853 -1.8490 -1.3783  1.0006
   55MOL   H34536093   6.096   5.112   5.902  1.6332  0.1265  2.0289
   55MOL   H34636094   5.956   5.185   6.099 -1.3012 -0.3333 -2.4502
   55MOL   H34736095   5.993   5.340   6.077 -0.9339 -0.6213 -0.1591
   55MOL   H34836096   6.208   5.129   6.136 -0.9583 -0.9184 -0.8709
   55MOL   H34936097   6.240   5.300   6.105 -0.0977 -0.6827 -0.9874
   55MOL   H35036098   6.224   5.280   6.357 -1.1057  0.9252  1.0010
   55MOL   H35136099   6.101   5.369   6.295 -0.7290  0.2054 -3.9422
   55MOL   H35236100   6.110   5.060   6.354 -0.8936  0.1230  1.6244
   55MOL   H35336101   5.965   5.137   6.325  0.2905 -2.3620  0.1071
   55MOL   H35436102   6.003   5.281   6.527  0.3971  0.5084 -0.4777
   55MOL   H35536103   6.140   5.177   6.571 -0.0401 -0.5020  0.0826
   55MOL   H35636104   5.874   5.052   6.547 -0.6721 -0.6337  2.7574
   55MOL   H35736105   6.025   4.982   6.582  1.5057  0.4972  2.3968
   55MOL   H35836106   5.829   5.162   6.732 -1.3313 -1.2911 -0.3083
   55MOL   H35936107   5.995   5.195   6.770 -0.8271  0.2743  1.8737
   55MOL   H36036108   6.005   4.935   6.820 -0.9111 -2.3663  0.0497
   55MOL   H36136109   5.828   4.935   6.787  0.1274  0.0085 -0.0831
   55MOL   H36236110   5.927   5.107   7.018  0.3230 -0.7632  1.8609
   55MOL   H36336111   5.759   5.073   6.969  0.2457 -0.3989 -0.6035
   55MOL   H36436112   5.872   4.955   7.041 -0.4984 -0.4666 -0.6668
   55MOL   C36536113   6.185   5.296   5.846 -0.2778  0.0346  0.4054
   55MOL   C36636114   6.234   5.226   5.717  0.0975  0.4822 -0.0316
   55MOL   C36736115   6.270   5.333   5.613  0.2298 -0.5754  0.1957
   55MOL   C36836116   6.178   5.344   5.490 -0.2374 -0.6682 -0.5411
   55MOL   C36936117   6.072   5.450   5.516  0.3464  0.4089 -0.2010
   55MOL   C37036118   5.975   5.461   5.400 -0.0741  0.3365 -0.2727
   55MOL   C37136119   5.869   5.565   5.432 -0.0133 -0.0167 -0.1003
   55MOL   C37236120   5.929   5.708   5.437 -0.4022 -0.5343 -0.4657
   55MOL   C37336121   5.827   5.818   5.422  0.0114  0.7199  0.1190
   55MOL   C37436122   5.889   5.964   5.423 -0.7033 -0.4091 -0.0658
   55MOL   C37536123   5.780   6.069   5.413 -0.0934  0.1948 -0.1864
   55MOL   H37636124   6.158   5.401   5.833 -2.7271 -0.3357  2.1929
   55MOL   H37736125   6.270   5.295   5.915 -1.4744 -0.7407  1.8909
   55MOL   H37836126   6.157   5.160   5.676 -0.9006  1.7805 -0.2833
   55MOL   H37936127   6.365   5.301   5.571  0.7529 -2.0730  2.4385
   55MOL   H38036128   6.286   5.432   5.657 -1.3156  0.8571 -2.3112
   55MOL   H38136129   6.126   5.251   5.470  1.2985 -1.6795 -0.0070
   55MOL   H38236130   6.241   5.372   5.406  0.3885 -0.3648  0.0177
   55MOL   H38336131   6.115   5.543   5.554  0.9779 -0.4090  1.1226
   55MOL   H38436132   6.015   5.401   5.596  0.7858 -2.9334 -1.8590
   55MOL   H38536133   5.933   5.361   5.388  1.2958 -0.1835 -0.8648
   55MOL   H38636134   6.019   5.479   5.302 -0.1221 -0.2284 -0.4047
   55MOL   H38736135   5.792   5.557   5.355 -0.9595  0.3816  0.7816
   55MOL   H38836136   5.825   5.541   5.529  1.4524  0.9021  0.8063
   55MOL   H38936137   5.993   5.710   5.348 -0.7844  2.0680 -0.7519
   55MOL   H39036138   5.985   5.735   5.526 -1.4909  0.6320 -0.1135
   55MOL   H39136139   5.782   5.800   5.324 -0.8834 -0.5030  0.7474
   55MOL   H39236140   5.745   5.802   5.492  0.3130 -0.8415  0.1315
   55MOL   H39336141   5.953   5.973   5.511 -0.8824  0.2967  0.0015
   55MOL   H39436142   5.952   5.978   5.336  0.8149  0.1695  1.1046
   55MOL   H39536143   5.715   6.070   5.501 -1.0854 -0.8028 -0.8838
   55MOL   H39636144   5.713   6.042   5.331  1.3868 -2.7632 -0.5030
   55MOL   H39736145   5.821   6.165   5.385 -2.7070  1.3886 -0.1026
   55MOL   C39836146   6.361   5.146   5.752  0.1314 -0.2417  0.2569
   55MOL   C39936147   6.419   5.042   5.652  0.3071 -0.5183  0.5996
   55MOL   C40036148   6.320   4.930   5.624 -0.1575  0.2511  0.1128
   55MOL   C40136149   6.308   4.821   5.740 -0.3233 -0.6364 -0.5387
   55MOL   C40236150   6.217   4.701   5.695 -0.4887 -0.5989 -0.1303
   55MOL   C40336151   6.295   4.581   5.647 -0.8559 -0.0471 -0.2310
   55MOL   C40436152   6.359   4.593   5.504  0.2349  0.5091 -0.0811
   55MOL   C40536153   6.382   4.453   5.441 -0.9139  0.9504 -0.1664
   55MOL   C40636154   6.378   4.454   5.289 -0.4396  0.7358 -0.2587
   55MOL   C40736155   6.379   4.308   5.240 -1.1581 -0.0962 -0.0686
   55MOL   C40836156   6.398   4.305   5.090  0.4441 -0.6700  0.0690
   55MOL   H40936157   6.324   5.089   5.837 -2.1113  2.9398  1.4897
   55MOL   H41036158   6.438   5.213   5.790  1.5847 -1.3054 -0.7565
   55MOL   H41136159   6.429   5.093   5.556 -0.2451 -1.1621  0.1935
   55MOL   H41236160   6.346   4.886   5.527  0.6920  1.7159 -0.3329
   55MOL   H41336161   6.220   4.969   5.608 -0.7013 -0.6879  1.1562
   55MOL   H41436162   6.410   4.786   5.754  0.2432  0.4553 -1.8334
   55MOL   H41536163   6.296   4.859   5.841  0.7424  1.4804 -1.1734
   55MOL   H41636164   6.161   4.667   5.782  1.4734  2.0569  2.2512
   55MOL   H41736165   6.148   4.733   5.617  1.0557  2.4833 -0.2988
   55MOL   H41836166   6.228   4.496   5.654  0.8175 -1.2479  1.8789
   55MOL   H41936167   6.384   4.555   5.704 -0.4500 -0.7170 -1.1576
   55MOL   H42036168   6.298   4.651   5.435 -1.1056  0.3888  0.9840
   55MOL   H42136169   6.440   4.666   5.508 -0.1376  0.9426 -0.3945
   55MOL   H42236170   6.290   4.400   5.466 -0.7875  0.7350 -0.1571
   55MOL   H42336171   6.467   4.401   5.485 -2.6121  0.4495  2.6899
   55MOL   H42436172   6.284   4.495   5.252  0.9797  2.7483 -1.7651
   55MOL   H42536173   6.454   4.511   5.235 -0.9046  0.2310 -1.4565
   55MOL   H42636174   6.282   4.269   5.270 -2.6260  1.4572 -2.6287
   55MOL   H42736175   6.455   4.246   5.288  0.0974  2.5312  1.4767
   55MOL   H42836176   6.372   4.210   5.043  0.8366 -1.1405  0.7963
   55MOL   H42936177   6.503   4.314   5.064  0.3111  1.5669  0.2302
   55MOL   H43036178   6.344   4.390   5.048 -1.5277 -1.2530  1.3386
   55MOL   C43136179   6.555   4.991   5.704  0.5188  0.4881 -0.8687
   55MOL   C43236180   6.683   5.070   5.665 -0.3475  0.3554  0.4109
   55MOL   C43336181   6.706   5.056   5.513  0.3429 -0.4601  0.4201
   55MOL   C43436182   6.829   5.121   5.463  0.2964  0.5899 -0.2428
   55MOL   C43536183   6.836   5.118   5.309  0.2462  0.3858 -0.1665
   55MOL   C43636184   6.956   5.197   5.253  0.4095 -0.0175  0.5338
   55MOL   C43736185   6.959   5.197   5.099  0.4334  0.6217  0.0078
   55MOL   C43836186   7.072   5.288   5.036 -0.4812 -0.5195 -0.3618
   55MOL   C43936187   7.085   5.288   4.884 -0.2649 -0.6524 -0.5448
   55MOL   C44036188   7.208   5.361   4.837 -0.3812 -0.2773  0.6442
   55MOL   C44136189   7.237   5.329   4.691  0.5343 -0.9863  0.0238
   55MOL   H44236190   6.572   4.892   5.664  1.2343  0.4905 -0.5849
   55MOL   H44336191   6.552   4.978   5.812  1.6152  0.7158 -0.8035
   55MOL   H44436192   6.656   5.174   5.686 -0.4988  0.1773  1.0975
   55MOL   H44536193   6.703   4.949   5.490  0.1855  0.0706 -2.1589
   55MOL   H44636194   6.627   5.108   5.461  1.8859 -0.2703 -1.7974
   55MOL   H44736195   6.918   5.068   5.496 -0.4006 -0.2847  0.2671
   55MOL   H44836196   6.823   5.225   5.492  1.9020  0.5335  0.3118
   55MOL   H44936197   6.748   5.167   5.268  0.6537  2.0836  0.9067
   55MOL   H45036198   6.834   5.015   5.275  1.7379 -0.6853  2.8241
   55MOL   H45136199   7.034   5.142   5.306 -0.5814 -1.2885  0.6844
   55MOL   H45236200   6.958   5.300   5.290  1.6432  0.2901 -0.3569
   55MOL   H45336201   6.859   5.227   5.065 -0.9364 -2.2514  1.3176
   55MOL   H45436202   6.975   5.093   5.073 -1.7998 -0.1401  1.4998
   55MOL   H45536203   7.075   5.386   5.084 -2.1473 -1.2353  1.2366
   55MOL   H45636204   7.166   5.242   5.067 -1.0338 -0.9334  0.7425
   55MOL   H45736205   6.992   5.331   4.847  0.6584  1.6346 -0.2998
   55MOL   H45836206   7.098   5.182   4.861 -1.2079 -0.7622 -0.5940
   55MOL   H45936207   7.291   5.319   4.895 -0.0358 -0.0086  0.3497
   55MOL   H46036208   7.202   5.468   4.855  2.6687  0.7761 -3.7421
   55MOL   H46136209   7.327   5.379   4.656  0.4960  0.1949  1.5373
   55MOL   H46236210   7.264   5.223   4.688 -0.9735 -1.4786  2.2774
   55MOL   H46336211   7.156   5.338   4.619 -0.6214 -1.4045  1.2344
   55MOL   C46436212   6.815   5.022   5.738 -0.2270 -0.7819  0.3160
   55MOL   C46536213   6.812   5.011   5.894 -0.9812 -0.4212  0.1363
   55MOL   C46636214   6.948   4.986   5.943  0.3908 -0.4243 -0.4710
   55MOL   C46736215   7.002   4.844   5.913  0.2916 -0.1449 -0.8114
   55MOL   C46836216   7.136   4.810   5.985 -0.0314 -0.6223 -0.1129
   55MOL   C46936217   7.157   4.654   6.004  0.3144 -0.2053  0.3023
   55MOL   C47036218   7.283   4.617   6.081 -0.0852 -0.3374  0.4516
   55MOL   C47136219   7.296   4.682   6.222  0.3261  0.1009  0.6223
   55MOL   C47236220   7.183   4.644   6.320 -0.6533  0.1788  0.6538
   55MOL   C47336221   7.228   4.632   6.467 -0.0397 -0.1819 -0.4503
   55MOL   C47436222   7.125   4.612   6.582  0.2318  0.9695  0.1864
   55MOL   H47536223   6.897   5.092   5.721 -0.5811 -1.2514 -3.6092
   55MOL   H47636224   6.849   4.927   5.697  0.2928  0.4844 -2.2914
   55MOL   H47736225   6.755   4.921   5.916 -1.2987  0.2046  1.9554
   55MOL   H47836226   6.955   4.998   6.051  0.2539 -0.6239 -0.4401
   55MOL   H47936227   7.020   5.058   5.904 -0.7469  0.7300 -0.4616
   55MOL   H48036228   6.926   4.769   5.933  0.9193 -0.2194  1.4357
   55MOL   H48136229   7.022   4.835   5.806 -0.6249 -1.8582 -0.8435
   55MOL   H48236230   7.142   4.857   6.083 -0.9605  1.7033 -1.1330
   55MOL   H48336231   7.225   4.842   5.932  0.7505 -0.7694  1.0850
   55MOL   H48436232   7.074   4.607   6.057  0.2013  0.0664  0.3683
   55MOL   H48536233   7.152   4.598   5.910 -1.2720 -0.2028  0.3624
   55MOL   H48636234   7.260   4.511   6.093  2.2796 -0.7767  1.4146
   55MOL   H48736235   7.374   4.615   6.021  0.9512 -1.5564  1.9945
   55MOL   H48836236   7.396   4.651   6.252  0.0415  0.6244  2.2045
   55MOL   H48936237   7.311   4.790   6.224 -1.3878  0.3516  0.9800
   55MOL   H49036238   7.105   4.717   6.302 -0.5090  0.5976  1.7049
   55MOL   H49136239   7.133   4.553   6.288  1.5652 -0.3611 -1.4903
   55MOL   H49236240   7.294   4.545   6.465  0.2123 -0.0140  0.2653
   55MOL   H49336241   7.290   4.719   6.490  0.2551 -0.4695 -0.1323
   55MOL   H49436242   7.034   4.671   6.571 -0.8896 -0.6960  0.3542
   55MOL   H49536243   7.166   4.639   6.679  0.3144  0.9743  0.1499
   55MOL   H49636244   7.104   4.506   6.593 -1.2153  1.2648  0.3762
   55MOL   C49736245   6.750   5.135   5.965  0.3490 -0.0778 -0.1667
   55MOL   C49836246   6.692   5.113   6.104 -0.1845  0.3095 -1.3901
   55MOL   C49936247   6.562   5.028   6.110  0.1549  0.2536  0.4940
   55MOL   C50036248   6.486   5.020   6.240  0.3667  0.5750 -0.5200
   55MOL   C50136249   6.371   4.910   6.255  0.4548 -0.3225 -0.2087
   55MOL   C50236250   6.350   4.865   6.412 -0.3563  0.3759 -0.3989
   55MOL   C50336251   6.234   4.765   6.429  0.4571 -0.1155 -0.2716
   55MOL   C50436252   6.209   4.730   6.572 -1.1215 -0.9976  0.1601
   55MOL   C50536253   6.098   4.629   6.593  0.1442 -0.1876  0.0688
   55MOL   C50636254   6.118   4.546   6.721 -0.0460 -0.4039 -0.3574
   55MOL   C50736255   6.077   4.627   6.852 -0.5529  0.5466  0.8715
   55MOL   H50836256   6.837   5.200   5.964  0.7733 -0.5978  1.2641
   55MOL   H50936257   6.668   5.176   5.906 -0.0230 -0.5767 -0.0038
   55MOL   H51036258   6.758   5.053   6.166 -0.1823  2.5637  0.8705
   55MOL   H51136259   6.597   4.929   6.080 -0.6015  0.6190 -1.6260
   55MOL   H51236260   6.487   5.056   6.037  0.8241 -0.5227 -0.5074
   55MOL   H51336261   6.453   5.112   6.288 -1.4926 -1.0374  1.3630
   55MOL   H51436262   6.568   4.994   6.308 -0.4235  0.6915  0.4779
   55MOL   H51536263   6.275   4.955   6.231  0.8435  1.3538  1.3197
   55MOL   H51636264   6.394   4.814   6.207 -1.4070 -1.1056  0.4155
   55MOL   H51736265   6.445   4.827   6.449 -0.7299  2.2270  2.6356
   55MOL   H51836266   6.331   4.951   6.476  2.7081  0.2065  0.8293
   55MOL   H51936267   6.145   4.808   6.383  0.2463  0.3926  0.6170
   55MOL   H52036268   6.248   4.683   6.359  0.6958 -0.8766  0.6715
   55MOL   H52136269   6.198   4.815   6.639 -2.0327  0.7340 -2.1051
   55MOL   H52236270   6.305   4.692   6.607 -0.6391 -1.3031 -1.4496
   55MOL   H52336271   6.106   4.549   6.519 -1.1583 -1.3788  1.1877
   55MOL   H52436272   6.001   4.679   6.593  0.9044  1.3002  0.2411
   55MOL   H52536273   6.221   4.512   6.718 -0.4164 -1.6252  0.3246
   55MOL   H52636274   6.050   4.462   6.708  0.9554 -1.3118  0.1341
   55MOL   H52736275   6.126   4.724   6.853  0.5387  0.0137 -0.0083
   55MOL   H52836276   6.116   4.574   6.939  0.0640 -0.6816 -0.1351
   55MOL   H52936277   5.972   4.639   6.877 -1.1151  0.6667 -1.4534
   55MOL   C53036278   6.666   5.254   6.179  0.2282 -0.1528  0.8405
   55MOL   C53136279   6.692   5.240   6.330 -0.2013  0.0437  0.1284
   55MOL   C53236280   6.595   5.331   6.406 -0.0177  0.1106  0.0006
   55MOL   C53336281   6.584   5.309   6.559 -0.0114  0.2295 -0.2619
   55MOL   C53436282   6.503   5.414   6.643 -0.1365  0.6534 -0.8278
   55MOL   C53536283   6.350   5.397   6.629 -0.2862  0.4482 -0.3294
   55MOL   C53636284   6.285   5.489   6.734  0.1706  0.3378  0.2818
   55MOL   C53736285   6.131   5.498   6.725 -0.2696  0.7029  0.7264
   55MOL   C53836286   6.067   5.605   6.809 -0.3124 -0.0636 -0.5769
   55MOL   C53936287   6.087   5.748   6.752  0.2607 -0.2891  0.5814
   55MOL   C54036288   6.039   5.866   6.841 -0.3629 -0.1063  0.9474
   55MOL   H54136289   6.711   5.342   6.133  0.3544  0.4296  2.0481
   55MOL   H54236290   6.559   5.270   6.167  0.0658 -2.1228 -0.6533
   55MOL   H54336291   6.669   5.141   6.369  1.6129  1.0134  3.9185
   55MOL   H54436292   6.492   5.325   6.371  0.1681  1.1798 -0.7378
   55MOL   H54536293   6.624   5.434   6.387 -0.4678  0.3138  0.4179
   55MOL   H54636294   6.685   5.309   6.601  0.3277 -3.4583 -0.9643
   55MOL   H54736295   6.547   5.208   6.576 -1.1176  0.7536  0.5655
   55MOL   H54836296   6.547   5.512   6.627 -0.9310  0.9860 -0.9808
   55MOL   H54936297   6.539   5.390   6.743 -0.3929  1.1386 -0.6191
   55MOL   H55036298   6.327   5.290   6.634 -2.0440  0.8615  0.8782
   55MOL   H55136299   6.337   5.436   6.528 -0.6121 -1.0072 -0.8676
   55MOL   H55236300   6.321   5.587   6.704 -0.7434  0.0629 -1.8260
   55MOL   H55336301   6.327   5.480   6.834  0.5201  3.1936  0.4218
   55MOL   H55436302   6.081   5.414   6.773 -0.8048  0.3182 -0.4840
   55MOL   H55536303   6.098   5.511   6.622  1.0279  0.0478  0.2212
   55MOL   H55636304   6.084   5.591   6.916 -0.2993  0.1495 -0.5512
   55MOL   H55736305   5.959   5.593   6.812 -0.4030  0.9491  0.3209
   55MOL   H55836306   6.051   5.757   6.650 -0.1950  0.9005  0.8464
   55MOL   H55936307   6.195   5.767   6.752  0.3430 -0.7271  0.8763
   55MOL   H56036308   6.114   5.884   6.919 -1.5579 -0.5366  2.2147
   55MOL   H56136309   6.033   5.957   6.781 -0.7980  0.1406  1.3610
   55MOL   H56236310   5.942   5.836   6.880 -0.0691 -1.6302  0.5266
   55MOL   C56336311   6.841   5.269   6.370 -0.5130 -0.3272  0.5182
   55MOL   C56436312   6.954   5.167   6.317  0.1484  0.1275 -0.4207
   55MOL   C56536313   6.942   5.029   6.382 -0.4477 -0.3581  0.1073
   55MOL   C56636314   6.948   5.012   6.534 -0.0872 -1.0775  0.4499
   55MOL   C56736315   6.809   4.985   6.606 -0.1839  0.2172 -0.1382
   55MOL   C56836316   6.811   4.939   6.752  0.2757  0.6048 -0.4511
   55MOL   C56936317   6.672   4.893   6.814 -0.1111  0.1621 -0.2799
   55MOL   C57036318   6.576   5.015   6.815  0.2306  0.2197  0.4544
   55MOL   C57136319   6.449   4.985   6.891 -0.1048  0.4521  0.3637
   55MOL   C57236320   6.330   5.071   6.855 -0.1586  0.0024 -0.5917
   55MOL   C57336321   6.222   5.055   6.960  0.1127 -0.4554  0.4544
   55MOL   H57436322   6.848   5.293   6.476  0.0181  1.8856  0.0075
   55MOL   H57536323   6.861   5.364   6.321 -1.0698 -0.7650 -0.5826
   55MOL   H57636324   6.923   5.161   6.212 -0.3933 -0.8182 -0.2086
   55MOL   H57736325   7.025   4.970   6.344 -0.0712 -1.1351  2.0723
   55MOL   H57836326   6.854   4.980   6.341  0.9615 -2.1886 -0.7758
   55MOL   H57936327   6.983   5.113   6.556 -0.7689 -0.1707 -2.3185
   55MOL   H58036328   7.017   4.934   6.566  0.5487 -0.5012  0.4879
   55MOL   H58136329   6.765   4.896   6.559  0.4351 -0.5665  0.7690
   55MOL   H58236330   6.748   5.075   6.595  1.0711  0.7464 -3.3659
   55MOL   H58336331   6.876   4.851   6.762 -0.7214 -0.2004 -0.9714
   55MOL   H58436332   6.857   5.012   6.818 -1.7539  0.5995  1.0202
   55MOL   H58536333   6.645   4.804   6.758  1.3597  1.3082 -2.8658
   55MOL   H58636334   6.706   4.873   6.916 -0.4763  0.4069 -0.1078
   55MOL   H58736335   6.556   5.048   6.713  0.1557  0.2636  0.4834
   55MOL   H58836336   6.639   5.094   6.855 -0.1980  1.2705 -0.9082
   55MOL   H58936337   6.464   4.987   6.999 -2.7786 -1.4850  0.8191
   55MOL   H59036338   6.420   4.882   6.873 -0.5646  0.6386  0.0421
   55MOL   H59136339   6.287   5.031   6.763 -2.5391 -0.3586  0.6594
   55MOL   H59236340   6.358   5.176   6.846  0.3976  0.0099  1.0789
   55MOL   H59336341   6.141   5.127   6.949 -0.3415 -1.1009 -0.5288
   55MOL   H59436342   6.191   4.951   6.951  1.1187 -0.9285  2.2169
   55MOL   H59536343   6.264   5.077   7.058  0.7858 -1.4817  0.4068
   55MOL   C59636344   7.096   5.227   6.330  0.4935  0.0631 -0.1925
   55MOL   C59736345   7.153   5.282   6.192  0.3912  0.2510  0.9114
   55MOL   C59836346   7.299   5.325   6.207 -0.2819  0.2128 -0.6757
   55MOL   C59936347   7.381   5.288   6.084  0.3168 -0.5760  0.2436
   55MOL   C60036348   7.510   5.374   6.069 -0.2758 -0.5860 -0.1753
   55MOL   C60136349   7.598   5.331   5.944  0.1619  0.1206 -0.2849
   55MOL   C60236350   7.702   5.435   5.904 -0.2244  0.4289 -0.2779
   55MOL   C60336351   0.116   5.458   6.002  0.3813  0.0395  0.0300
   55MOL   C60436352   0.210   5.562   5.935 -0.0767 -0.0007 -0.0802
   55MOL   C60536353   0.344   5.563   6.017  0.0166  0.3154 -0.3067
   55MOL   C60636354   0.425   5.682   5.972  0.3879  0.3704  0.2948
   55MOL   H60736355   7.115   5.293   6.415  1.2611 -0.6076  0.1666
   55MOL   H60836356   7.160   5.143   6.359 -0.7027 -0.9676 -0.4717
   55MOL   H60936357   7.150   5.205   6.115 -2.5940 -0.6105  1.8281
   55MOL   H61036358   7.341   5.278   6.295 -0.4096  2.6265  0.7020
   55MOL   H61136359   7.309   5.429   6.237 -0.5833  0.5556 -1.7198
   55MOL   H61236360   7.323   5.314   5.995  0.2729  2.8588  1.2157
   55MOL   H61336361   7.393   5.180   6.076 -0.4343 -0.5073 -2.1538
   55MOL   H61436362   7.562   5.380   6.164 -0.8131  0.0869  0.0785
   55MOL   H61536363   7.484   5.479   6.053  0.2179 -0.5182 -0.5721
   55MOL   H61636364   7.653   5.243   5.977 -0.0064  1.7890  5.0054
   55MOL   H61736365   7.536   5.312   5.857 -0.4566  1.8910 -0.2643
   55MOL   H61836366   7.657   5.531   5.879 -0.4784  0.0547 -1.2719
   55MOL   H61936367   0.043   5.388   5.816 -1.3973  0.4218 -0.8771
   55MOL   H62036368   0.167   5.362   6.019  3.0727  1.4805  0.3555
   55MOL   H62136369   0.076   5.501   6.094 -0.9599 -4.0173  1.4927
   55MOL   H62236370   0.245   5.533   5.836 -1.0780 -1.1965 -0.0900
   55MOL   H62336371   0.168   5.662   5.922  2.0178  0.6095 -2.6050
   55MOL   H62436372   0.409   5.477   6.002  1.5828  1.4122  0.0956
   55MOL   H62536373   0.329   5.577   6.124 -0.9249  0.2650 -0.4254
   55MOL   H62636374   0.443   5.680   5.864 -1.5293  0.2684 -0.0402
   55MOL   H62736375   0.367   5.772   5.993  0.0555  0.3933 -0.6561
   55MOL   H62836376   0.523   5.676   6.020  0.2921  0.0625  0.4476
   55MOL   C62936377   7.068   5.407   6.139 -0.2252 -0.8436 -0.4130
   55MOL   C63036378   7.123   5.470   6.006  0.3751  0.0884  0.2325
   55MOL   C63136379   7.052   5.597   5.966  0.5088 -0.0576  0.1793
   55MOL   C63236380   7.079   5.658   5.829 -1.1174  0.5070  0.0472
   55MOL   C63336381   7.024   5.802   5.814 -0.5945  1.1577 -0.6081
   55MOL   C63436382   7.025   5.859   5.669  1.0837  0.4218 -0.3274
   55MOL   C63536383   6.926   5.791   5.574 -0.4514 -0.8683 -0.0017
   55MOL   C63636384   6.910   5.843   5.428 -0.0051 -0.2708  0.6100
   55MOL   C63736385   7.039   5.820   5.348  0.4285  0.4090 -0.3584
   55MOL   C63836386   7.056   5.903   5.221  0.0870  0.5294  0.0681
   55MOL   C63936387   6.970   5.847   5.110  0.1559 -0.2269 -0.3807
   55MOL   H64036388   6.962   5.387   6.147 -0.1353 -0.4329  2.5431
   55MOL   H64136389   7.077   5.483   6.218  2.4851  0.1814 -1.6204
   55MOL   H64236390   7.231   5.484   6.008  0.3133  0.3288  2.2958
   55MOL   H64336391   6.945   5.582   5.970  0.2891  1.0894 -0.9991
   55MOL   H64436392   7.063   5.680   6.036 -1.9967  0.9856 -0.6056
   55MOL   H64536393   7.034   5.588   5.758 -0.7837  0.9590 -0.6188
   55MOL   H64636394   7.185   5.663   5.801 -0.4928 -2.7220  1.6311
   55MOL   H64736395   7.096   5.864   5.868 -0.9449  1.4361 -0.4602
   55MOL   H64836396   6.929   5.822   5.864  0.1066 -0.3333  1.3716
   55MOL   H64936397   7.131   5.856   5.646  0.8758  0.7435 -1.3350
   55MOL   H65036398   6.995   5.963   5.683  0.9876  0.2926  0.4566
   55MOL   H65136399   6.826   5.798   5.618 -0.9401 -2.1888 -0.8415
   55MOL   H65236400   6.941   5.683   5.566 -0.3154 -0.7500 -1.5697
   55MOL   H65336401   6.906   5.952   5.423  1.6773 -0.1896  0.8725
   55MOL   H65436402   6.827   5.804   5.369 -0.4524  0.3181  0.8365
   55MOL   H65536403   7.052   5.713   5.329  1.7269  0.9393 -2.6535
   55MOL   H65636404   7.117   5.847   5.420  1.3892 -0.2311 -1.1528
   55MOL   H65736405   7.161   5.896   5.191  1.1243  1.5227  3.1944
   55MOL   H65836406   7.037   6.010   5.234  1.9062  1.0558 -1.3407
   55MOL   H65936407   6.986   5.895   5.013 -1.5599 -1.1189 -1.1311
   55MOL   H66036408   6.868   5.866   5.143  0.6883  0.1483  1.1040
   55MOL   H66136409   6.974   5.740   5.091  0.2284 -0.1967 -0.5411
   55MOL   H66236410   7.101   5.400   5.925 -0.9088 -1.1871  1.6582
   56MOL     C136411   5.311   6.959   3.640 -0.4712  0.2624  0.8797
   56MOL     C236412   5.391   6.899   3.749 -0.4527  0.3537  0.3137
   56MOL     C336413   5.514   6.830   3.692 -0.0531 -0.2503  0.1512
   56MOL     C436414   5.488   6.694   3.627  0.0423 -0.3785 -0.0153
   56MOL     C536415   5.603   6.630   3.550  0.7182 -0.1492 -0.4907
   56MOL     C636416   5.604   6.473   3.590  0.2859  0.1034 -0.0719
   56MOL     C736417   5.713   6.382   3.518 -0.3594  0.3534  0.0689
   56MOL     C836418   5.771   6.269   3.598  0.0329 -0.2751 -0.8179
   56MOL     C936419   5.880   6.190   3.521  0.3667 -0.9584 -0.5039
   56MOL    C1036420   5.958   6.097   3.611  0.3480 -0.1013 -0.3507
   56MOL    C1136421   5.867   5.996   3.671  0.0407  0.4911  0.0274
   56MOL    H1236422   5.212   6.980   3.679 -0.1150 -0.1282  2.0120
   56MOL    H1336423   5.295   6.882   3.564  3.1117  0.6461 -0.3676
   56MOL    H1436424   5.328   6.818   3.787 -0.0825 -1.4876 -2.8130
   56MOL    H1536425   5.587   6.830   3.772 -0.6277 -0.2068  0.6751
   56MOL    H1636426   5.571   6.890   3.621  3.0773 -0.5098  2.3621
   56MOL    H1736427   5.413   6.693   3.547 -0.5971  2.9200  0.4570
   56MOL    H1836428   5.448   6.625   3.701  0.2471 -0.9782 -0.4590
   56MOL    H1936429   5.593   6.609   3.443  2.6454 -3.4627 -0.0805
   56MOL    H2036430   5.699   6.676   3.574 -0.0059  1.1178  0.0174
   56MOL    H2136431   5.505   6.435   3.562 -0.0845 -0.3330  1.7549
   56MOL    H2236432   5.619   6.466   3.698  4.0173  1.9319 -0.4048
   56MOL    H2336433   5.668   6.344   3.426 -0.9494 -2.4645  1.4833
   56MOL    H2436434   5.789   6.450   3.480 -0.1613  0.0065 -0.1561
   56MOL    H2536435   5.688   6.210   3.634  0.9749 -0.4397  1.1106
   56MOL    H2636436   5.803   6.306   3.695 -2.0283 -3.8789  1.3288
   56MOL    H2736437   5.951   6.255   3.471  1.2525 -1.1138  0.5315
   56MOL    H2836438   5.829   6.138   3.440  0.2529  1.4942 -2.0589
   56MOL    H2936439   5.999   6.155   3.693  1.1182 -0.9346 -0.1312
   56MOL    H3036440   6.042   6.062   3.550 -0.5708  0.2730 -1.8609
   56MOL    H3136441   5.907   5.895   3.673 -0.1838  0.3950 -0.3256
   56MOL    H3236442   5.834   6.023   3.772  1.3218 -1.3925  0.9656
   56MOL    H3336443   5.774   5.984   3.615  0.0211  0.5294  0.0507
   56MOL    H3436444   5.350   7.049   3.593  1.3121 -1.2670 -0.6824
   56MOL    C3536445   5.421   7.004   3.862 -0.2523  0.7060 -0.0869
   56MOL    C3636446   5.304   7.021   3.961  0.3739  0.0226 -0.3444
   56MOL    C3736447   5.305   6.904   4.064  0.1954  0.5332 -0.4699
   56MOL    C3836448   5.164   6.886   4.135 -0.2686 -0.1894 -0.1146
   56MOL    C3936449   5.172   6.786   4.261 -0.5578 -0.4917  0.3094
   56MOL    C4036450   5.028   6.740   4.300 -1.1174  0.5302 -0.6184
   56MOL    C4136451   5.036   6.664   4.434  0.1543 -0.2449 -0.6122
   56MOL    C4236452   4.925   6.560   4.434 -0.0469  0.2037  0.7924
   56MOL    C4336453   4.776   6.613   4.406 -0.5326  0.1473  0.8277
   56MOL    C4436454   4.733   6.719   4.503  0.0486 -0.1855 -0.1644
   56MOL    C4536455   4.584   6.709   4.517 -0.2089  0.2260  0.1299
   56MOL    H4636456   5.459   7.095   3.814  0.9124 -0.4755 -1.4495
   56MOL    H4736457   5.499   6.967   3.928 -1.5027  0.4079  1.2491
   56MOL    H4836458   5.212   7.013   3.902  0.3935 -0.8910 -0.2613
   56MOL    H4936459   5.317   6.809   4.012 -0.0889 -0.3076  0.9726
   56MOL    H5036460   5.385   6.926   4.134  1.2756 -0.1253 -1.4590
   56MOL    H5136461   5.093   6.850   4.061  0.6458  0.2783 -1.2250
   56MOL    H5236462   5.110   6.975   4.166 -0.0686  0.2260 -0.9439
   56MOL    H5336463   5.215   6.838   4.346  0.9806 -1.9704  0.4536
   56MOL    H5436464   5.240   6.707   4.228  2.1260  0.8988  2.3390
   56MOL    H5536465   4.991   6.670   4.225  1.0341 -1.9315  0.5348
   56MOL    H5636466   4.963   6.824   4.318 -0.7013  0.9747 -1.1507
   56MOL    H5736467   5.136   6.622   4.442 -0.6861 -1.9065  1.7725
   56MOL    H5836468   5.017   6.733   4.516 -0.0787  0.7005 -1.4500
   56MOL    H5936469   4.924   6.529   4.539  0.3797  0.0535  0.7535
   56MOL    H6036470   4.937   6.467   4.378 -0.2034 -0.0739  1.2079
   56MOL    H6136471   4.725   6.517   4.411  0.6317 -0.7814 -3.2605
   56MOL    H6236472   4.769   6.648   4.303 -0.1105 -0.4846  0.5793
   56MOL    H6336473   4.776   6.701   4.601  0.5699  0.1697 -0.3245
   56MOL    H6436474   4.770   6.814   4.463  0.0932 -0.4604 -0.7939
   56MOL    H6536475   4.564   6.630   4.590 -0.0607 -0.9876 -1.1053
   56MOL    H6636476   4.555   6.809   4.548  0.9353  0.1622  1.4217
   56MOL    H6736477   4.528   6.689   4.425  1.0249  2.0475 -1.0308
   56MOL    C6836478   5.311   7.158   4.028  0.6187  0.2181 -0.3497
   56MOL    C6936479   5.249   7.272   3.939  0.0090 -0.1944  0.4515
   56MOL    C7036480   5.094   7.274   3.927  0.2135 -1.0538 -0.0031
   56MOL    C7136481   5.040   7.215   3.800 -0.5336 -0.0109 -0.2233
   56MOL    C7236482   4.911   7.286   3.744  0.6352  0.2066 -0.4475
   56MOL    C7336483   4.835   7.205   3.638  0.9967 -0.1689 -0.1238
   56MOL    C7436484   4.728   7.287   3.576 -0.2945 -0.5828  0.0732
   56MOL    C7536485   4.638   7.215   3.473 -0.3419 -1.0307  1.1487
   56MOL    C7636486   4.709   7.169   3.348  0.4549 -0.3784 -0.7208
   56MOL    C7736487   4.751   7.288   3.270  0.3462 -0.5157 -0.1927
   56MOL    C7836488   4.800   7.251   3.127 -0.0665  0.0648  0.4659
   56MOL    H7936489   5.416   7.179   4.051  0.4866  0.3281  0.1749
   56MOL    H8036490   5.260   7.156   4.125 -1.1951 -5.2065 -1.2709
   56MOL    H8136491   5.287   7.245   3.841  1.5053  1.5474  0.5313
   56MOL    H8236492   5.050   7.373   3.935 -0.1263 -1.2870  1.1068
   56MOL    H8336493   5.057   7.212   4.009 -1.1853  0.7705  0.7539
   56MOL    H8436494   5.116   7.217   3.722 -2.5710 -0.1024 -2.2883
   56MOL    H8536495   5.018   7.109   3.814  0.0841 -0.0469  0.4785
   56MOL    H8636496   4.943   7.386   3.717  0.7198  0.9573  2.2743
   56MOL    H8736497   4.844   7.293   3.830 -0.2776  1.8181 -1.2727
   56MOL    H8836498   4.896   7.155   3.563  0.3505 -0.7106 -0.2857
   56MOL    H8936499   4.778   7.129   3.691 -2.2646 -0.2846 -3.6268
   56MOL    H9036500   4.762   7.383   3.535 -1.9980 -0.3465 -0.8036
   56MOL    H9136501   4.664   7.315   3.660  1.1164 -2.0413  1.6743
   56MOL    H9236502   4.589   7.132   3.524 -0.9300 -0.8766  0.8390
   56MOL    H9336503   4.557   7.280   3.439 -0.3556 -2.0423 -0.8781
   56MOL    H9436504   4.804   7.119   3.370 -0.2831 -1.4709  0.0750
   56MOL    H9536505   4.651   7.101   3.286  0.2682 -2.0174  1.1996
   56MOL    H9636506   4.663   7.352   3.265 -1.3399 -2.6293  1.7380
   56MOL    H9736507   4.828   7.344   3.323  0.2450 -1.0026  0.4669
   56MOL    H9836508   4.724   7.189   3.080  3.5013 -2.8058 -1.8048
   56MOL    H9936509   4.896   7.201   3.115  0.0145  0.1482  0.7781
   56MOL   H10036510   4.803   7.344   3.070 -0.8558 -0.6506 -0.7715
   56MOL   C10136511   5.308   7.415   3.984 -0.2588  0.1256 -0.6379
   56MOL   C10236512   5.316   7.512   3.857 -1.3147 -0.6665  0.1035
   56MOL   C10336513   5.455   7.513   3.784  0.2210 -0.2492  0.1682
   56MOL   C10436514   5.507   7.374   3.745 -0.4412 -0.7347 -0.2647
   56MOL   C10536515   5.657   7.385   3.694 -0.0127 -0.3022  0.6192
   56MOL   C10636516   5.726   7.253   3.652  0.2986 -0.1288  0.3328
   56MOL   C10736517   5.666   7.205   3.511 -0.1929  0.4691 -0.9346
   56MOL   C10836518   5.757   7.092   3.447 -0.6716  0.1793  0.4355
   56MOL   C10936519   5.700   7.049   3.308  0.1087  0.1076  0.5002
   56MOL   C11036520   5.766   6.938   3.238 -0.0827  0.9102 -0.0330
   56MOL   C11136521   5.719   6.803   3.277 -0.4686 -0.1859 -0.3764
   56MOL   H11236522   5.239   7.454   4.059 -1.1409 -0.8763 -0.9150
   56MOL   H11336523   5.404   7.403   4.033  0.2110 -0.5276 -1.6938
   56MOL   H11436524   5.254   7.464   3.781 -0.7130 -1.3131  0.0146
   56MOL   H11536525   5.454   7.579   3.697 -0.7124 -0.2583  0.1720
   56MOL   H11636526   5.524   7.548   3.861 -2.3730  0.2094  2.3659
   56MOL   H11736527   5.495   7.300   3.824 -0.5215 -2.0346 -1.4714
   56MOL   H11836528   5.442   7.331   3.669  1.2421 -2.8399 -0.5578
   56MOL   H11936529   5.654   7.450   3.607  2.3313  0.5432  1.1337
   56MOL   H12036530   5.723   7.434   3.765 -0.2116  0.3033  0.3893
   56MOL   H12136531   5.834   7.267   3.637  0.6024 -0.2677  2.3277
   56MOL   H12236532   5.713   7.178   3.730 -0.0219  0.7165  1.0893
   56MOL   H12336533   5.663   7.295   3.450 -0.7687  1.9144  1.1589
   56MOL   H12436534   5.560   7.183   3.512  0.0883 -0.9384 -0.1776
   56MOL   H12536535   5.862   7.121   3.441 -0.1067 -1.4466  1.9637
   56MOL   H12636536   5.748   7.003   3.509 -2.4143  1.4084  1.9940
   56MOL   H12736537   5.596   7.019   3.326  0.0378  0.8567  1.3853
   56MOL   H12836538   5.693   7.138   3.245 -1.0558  0.6141  1.3134
   56MOL   H12936539   5.873   6.953   3.252  0.0072  0.1988  0.0436
   56MOL   H13036540   5.750   6.956   3.131  1.9223  1.4365 -0.2514
   56MOL   H13136541   5.767   6.731   3.211  2.0047  0.1577  1.0130
   56MOL   H13236542   5.748   6.768   3.376 -2.6201  2.0080  1.0754
   56MOL   H13336543   5.611   6.794   3.261 -0.5358  1.1047 -0.7155
   56MOL   C13436544   5.256   7.654   3.887 -0.3270 -0.0037  0.2163
   56MOL   C13536545   5.103   7.669   3.883  0.0345 -0.4343  0.1657
   56MOL   C13636546   5.053   7.677   3.741  0.4994  0.4758 -0.5213
   56MOL   C13736547   4.912   0.007   3.713  0.1361  0.4303 -0.3883
   56MOL   C13836548   4.872   7.694   3.561  0.5975 -1.2461  0.2409
   56MOL   C13936549   4.721   7.691   3.544  0.4730 -0.2240  0.2876
   56MOL   C14036550   4.680   7.676   3.397 -0.8169 -0.0068 -0.5830
   56MOL   C14136551   4.520   7.678   3.382 -0.0935  0.9927  0.3636
   56MOL   C14236552   4.476   7.678   3.238 -0.4216 -0.4473  0.3821
   56MOL   C14336553   4.334   7.687   3.209  0.3529 -0.2793 -0.0084
   56MOL   C14436554   4.311   0.013   3.060  0.2515 -0.0740  0.4807
   56MOL   H14536555   5.296   7.687   3.983 -1.1478 -0.9339  0.8930
   56MOL   H14636556   5.304   0.031   3.831 -1.8448  1.4890  1.0372
   56MOL   H14736557   5.065   7.580   3.932 -1.1268  0.2312  0.4739
   56MOL   H14836558   5.066   7.576   3.703  2.4246  0.4652  0.1323
   56MOL   H14936559   5.121   0.035   3.682  0.9588 -0.6507 -1.1744
   56MOL   H15036560   4.854   7.638   3.772 -2.0106 -0.0980 -3.0202
   56MOL   H15136561   4.875   0.106   3.739 -1.4126  0.4087 -2.3706
   56MOL   H15236562   4.908   0.066   3.492  1.2902  0.3605  2.3034
   56MOL   H15336563   4.903   7.598   3.519  4.2383 -0.2833  0.5451
   56MOL   H15436564   4.675   7.608   3.597  0.8261 -0.0097  0.9444
   56MOL   H15536565   4.687   0.085   3.578 -0.5336  0.3820 -2.3600
   56MOL   H15636566   4.718   0.062   3.348  1.3515 -0.6921 -0.2022
   56MOL   H15736567   4.727   7.583   3.364 -0.2935  0.2857 -0.6662
   56MOL   H15836568   4.484   7.583   3.423  1.3920 -0.0408 -0.6943
   56MOL   H15936569   4.471   0.052   3.442 -1.0395 -1.2334  2.5850
   56MOL   H16036570   4.522   0.060   3.188 -1.5280 -0.4906 -0.7404
   56MOL   H16136571   4.523   7.597   3.182 -0.8644 -1.8026  1.9328
   56MOL   H16236572   4.273   7.602   3.239  1.7693 -0.8166  1.3902
   56MOL   H16336573   4.292   0.069   3.262  1.6129  1.8150 -2.2911
   56MOL   H16436574   4.218   7.671   3.025 -0.8790  3.2611 -1.1137
   56MOL   H16536575   4.393   7.684   2.997  0.1241  1.0416 -0.2791
   56MOL   H16636576   4.299   0.120   3.043 -0.2894 -0.4242 -1.4980
   56MOL   C16736577   5.061   0.093   3.973  0.1061 -0.2060  0.3956
   56MOL   C16836578   4.921   0.075   4.042  0.4915 -0.4240 -1.0875
   56MOL   C16936579   4.869   0.215   4.079  0.0928 -0.0923 -0.0724
   56MOL   C17036580   4.955   0.306   4.177 -0.0468 -0.2038 -0.2178
   56MOL   C17136581   4.919   0.454   4.201 -0.4544 -0.7437 -0.6550
   56MOL   C17236582   5.000   0.515   4.318 -0.1470 -0.3817 -0.3294
   56MOL   C17336583   4.977   0.665   4.328  0.1527 -0.3014 -0.5940
   56MOL   C17436584   5.020   0.731   4.465 -0.1541  0.1017 -1.0946
   56MOL   C17536585   5.009   0.885   4.470 -0.0226 -0.9764  0.3068
   56MOL   C17636586   5.066   0.939   4.602  0.3158 -0.8699  0.1301
   56MOL   C17736587   4.984   0.929   4.733  0.6714 -0.4486  0.3138
   56MOL   H17836588   5.131   0.120   4.053  1.3841 -1.0765 -0.4236
   56MOL   H17936589   5.051   0.182   3.910  0.6313 -2.0005 -2.2914
   56MOL   H18036590   4.852   0.028   3.972  0.7223 -1.5543 -0.5720
   56MOL   H18136591   4.767   0.205   4.117  0.0956  0.8021  0.1967
   56MOL   H18236592   4.857   0.266   3.984  1.2257  0.0775 -0.1378
   56MOL   H18336593   4.951   0.261   4.277  3.0454  0.1260  0.0970
   56MOL   H18436594   5.056   0.296   4.139 -0.8796 -2.5602 -1.9352
   56MOL   H18536595   4.814   0.467   4.230  0.1560  2.0438  0.3603
   56MOL   H18636596   4.941   0.500   4.104  1.9554 -0.6823 -0.0986
   56MOL   H18736597   4.977   0.464   4.411  0.3190 -0.4916 -0.2732
   56MOL   H18836598   5.105   0.501   4.295  0.4104 -1.3734  2.6216
   56MOL   H18936599   4.868   0.673   4.321  0.0413  0.1534  1.3318
   56MOL   H19036600   5.015   0.711   4.237  2.2713 -2.1572 -0.6831
   56MOL   H19136601   4.961   0.690   4.546  1.7007 -1.5476 -0.5514
   56MOL   H19236602   5.119   0.695   4.492 -1.5207 -2.3079  0.8865
   56MOL   H19336603   4.906   0.913   4.449  0.1551  1.7254  2.7880
   56MOL   H19436604   5.074   0.922   4.390 -1.3610 -1.8853 -1.2592
   56MOL   H19536605   5.097   1.043   4.589  0.0733 -0.8537 -0.3200
   56MOL   H19636606   5.160   0.886   4.616  1.1461 -0.3129 -2.8062
   56MOL   H19736607   4.969   0.825   4.760 -0.0961 -0.4068  0.0420
   56MOL   H19836608   4.891   0.984   4.720  1.3520  1.0512  1.7037
   56MOL   H19936609   5.040   0.970   4.817  0.6617 -0.4089  0.3012
   56MOL   C20036610   4.938   7.686   4.166 -0.3190 -0.3953 -0.0862
   56MOL   C20136611   4.817   7.606   4.218  0.1267  0.4118 -0.1494
   56MOL   C20236612   4.843   7.555   4.359 -0.0095 -0.3913  0.0842
   56MOL   C20336613   4.771   7.642   4.472 -0.0362  0.9298  0.1546
   56MOL   C20436614   4.815   7.609   4.614  0.8796 -0.0406 -0.0492
   56MOL   C20536615   4.753   0.006   4.714  0.4196  0.4778  0.2768
   56MOL   C20636616   4.605   0.023   4.729 -0.2449 -0.3001 -0.2459
   56MOL   C20736617   4.551   0.131   4.823  0.9250  0.1727 -0.0613
   56MOL   C20836618   4.630   0.160   4.947  0.6210  0.4620  0.6012
   56MOL   C20936619   4.560   0.258   5.041 -0.3216 -0.2831  0.0097
   56MOL   C21036620   4.650   0.309   5.147  0.7360 -0.2912  0.1253
   56MOL   H21136621   5.015   7.615   4.137  0.4421  1.8881 -4.0171
   56MOL   H21236622   4.977   0.046   4.246 -2.2377  0.7433 -0.0212
   56MOL   H21336623   4.726   7.667   4.214 -0.1793  0.0352  0.9137
   56MOL   H21436624   4.952   7.557   4.372 -0.0376  0.8811  0.1902
   56MOL   H21536625   4.832   7.447   4.371 -0.3407 -0.4862 -1.0824
   56MOL   H21636626   4.664   7.626   4.456 -0.0376  1.3109 -0.2225
   56MOL   H21736627   4.804   0.041   4.459  1.0630  0.8480  2.1912
   56MOL   H21836628   4.924   7.618   4.614  0.9107 -0.2285  1.7338
   56MOL   H21936629   4.792   7.507   4.646  0.2956  0.6330  1.7287
   56MOL   H22036630   4.802   7.690   4.810 -2.6802  0.6039  1.9601
   56MOL   H22136631   4.800   0.097   4.678  1.0123  0.9117  2.0911
   56MOL   H22236632   4.572   7.629   4.766 -2.7494  0.3413 -0.7138
   56MOL   H22336633   4.559   0.030   4.631 -1.7232  0.2766  0.4673
   56MOL   H22436634   4.451   0.103   4.857  0.6740  0.2485 -0.7445
   56MOL   H22536635   4.555   0.228   4.773 -1.2072  0.7062  0.7222
   56MOL   H22636636   4.733   0.190   4.927  0.0373  0.7908 -2.0364
   56MOL   H22736637   4.638   0.063   4.998 -0.8841  0.0533  0.0843
   56MOL   H22836638   4.507   0.334   4.983  1.8230  0.9283 -0.4171
   56MOL   H22936639   4.476   0.223   5.101  0.2467 -1.1493  0.3091
   56MOL   H23036640   4.589   0.373   5.210 -1.4378 -1.3238 -0.8995
   56MOL   H23136641   4.731   0.366   5.101 -0.6041  0.4557 -1.3529
   56MOL   H23236642   4.691   0.227   5.206 -1.1228 -2.4584 -1.5276
   56MOL   C23336643   4.783   7.481   4.127 -0.1645  0.1288 -0.2742
   56MOL   C23436644   4.658   7.406   4.174  0.8846  0.0935 -0.0897
   56MOL   C23536645   4.654   7.260   4.107  0.0661 -0.2458 -0.7078
   56MOL   C23636646   4.756   7.162   4.160  0.5793  0.3013 -0.4473
   56MOL   C23736647   4.765   7.021   4.097 -0.2385  0.2225 -0.1092
   56MOL   C23836648   4.655   6.930   4.147  0.3127 -0.0045  0.8639
   56MOL   C23936649   4.632   6.809   4.064  0.1090  0.0052 -0.5261
   56MOL   C24036650   4.509   6.728   4.118  0.5400  0.0975 -0.8229
   56MOL   C24136651   4.530   6.579   4.109  0.0627  0.6993  0.2605
   56MOL   C24236652   4.434   6.495   4.186  0.3494  0.2135 -0.5068
   56MOL   C24336653   4.469   6.343   4.172  0.0611  0.1780  1.1224
   56MOL   H24436654   4.868   7.413   4.120 -0.0079  0.3054 -0.1221
   56MOL   H24536655   4.774   7.516   4.025 -0.4330  1.0204  0.0520
   56MOL   H24636656   4.654   7.397   4.283 -0.0486  3.5506  0.2282
   56MOL   H24736657   4.556   7.219   4.132 -0.3750  1.3292  0.2102
   56MOL   H24836658   4.662   7.253   3.999  1.3381 -2.4789 -0.5068
   56MOL   H24936659   4.742   7.148   4.268  0.4805  0.2222 -0.4707
   56MOL   H25036660   4.859   7.194   4.150  0.3938  0.9078 -0.4001
   56MOL   H25136661   4.858   6.969   4.121 -0.0585  0.3817 -0.4645
   56MOL   H25236662   4.769   7.028   3.989  0.3529 -2.4638 -0.2970
   56MOL   H25336663   4.564   6.987   4.129 -0.8252 -1.3954  2.1715
   56MOL   H25436664   4.668   6.890   4.247 -1.5453  1.6520  1.8035
   56MOL   H25536665   4.633   6.829   3.957  3.5571 -2.5007 -1.0555
   56MOL   H25636666   4.721   6.746   4.074 -1.1705 -1.7993 -0.3282
   56MOL   H25736667   4.478   6.756   4.218  4.4659  0.8030  0.2772
   56MOL   H25836668   4.417   6.747   4.062  0.4018  0.4993 -0.4583
   56MOL   H25936669   4.537   6.544   4.006 -0.2990  3.2841 -0.6708
   56MOL   H26036670   4.628   6.557   4.153 -0.5477 -1.1665  0.7657
   56MOL   H26136671   4.329   6.502   4.157  0.2077  0.2791 -0.0000
   56MOL   H26236672   4.434   6.527   4.291 -3.1725 -1.5967  0.1491
   56MOL   H26336673   4.478   6.292   4.076  0.5930  0.6212  0.9309
   56MOL   H26436674   4.400   6.279   4.227  1.3219 -1.6625  0.5996
   56MOL   H26536675   4.564   6.323   4.223 -0.1572 -1.6583  0.8535
   56MOL   C26636676   4.522   7.486   4.139  0.3058 -0.0677  0.4475
   56MOL   C26736677   4.447   7.550   4.258 -0.3085 -0.3568 -0.5897
   56MOL   C26836678   4.367   7.449   4.343 -0.9243 -0.5437 -0.1907
   56MOL   C26936679   4.329   7.509   4.483  0.0480  1.0964  0.4522
   56MOL   C27036680   4.210   7.426   4.548 -0.1034 -0.1941  0.3242
   56MOL   C27136681   4.142   7.503   4.664  0.5872  0.6678  0.7322
   56MOL   C27236682   4.237   7.558   4.766  0.2555  0.6243 -0.2046
   56MOL   C27336683   4.284   7.449   4.861 -0.7069 -0.2944  0.5770
   56MOL   C27436684   4.381   7.501   4.973 -0.4839  0.3761  0.3919
   56MOL   C27536685   4.322   7.588   5.079  0.3019  0.0865  0.2481
   56MOL   C27636686   4.392   7.612   5.209  0.1622  0.1149  0.7802
   56MOL   H27736687   4.445   7.433   4.082  0.5269 -0.8147  0.8257
   56MOL   H27836688   4.566   7.563   4.077  0.0289  1.4010  2.0384
   56MOL   H27936689   4.521   7.592   4.325 -0.6323 -1.9393  0.7841
   56MOL   H28036690   4.281   7.406   4.291 -0.6284 -0.2732 -0.8986
   56MOL   H28136691   4.434   7.366   4.367 -1.2402 -0.7939 -0.1667
   56MOL   H28236692   4.288   7.610   4.476 -1.4000  0.4672 -0.3956
   56MOL   H28336693   4.417   7.512   4.547  1.5574  2.2740 -1.6191
   56MOL   H28436694   4.250   7.327   4.570  2.2369  0.5277 -0.5384
   56MOL   H28536695   4.147   7.396   4.464  1.9981  0.9216 -1.7018
   56MOL   H28636696   4.072   7.433   4.710  0.6726 -2.0782 -3.1171
   56MOL   H28736697   4.091   7.585   4.615  0.3487  0.5952  0.8605
   56MOL   H28836698   4.329   7.598   4.725  1.1251  1.2473  2.2787
   56MOL   H28936699   4.193   7.640   4.822 -0.9480  2.0935 -3.2129
   56MOL   H29036700   4.341   7.374   4.807  0.3507  2.0401 -1.6338
   56MOL   H29136701   4.198   7.408   4.913 -1.7940  1.9703  0.6401
   56MOL   H29236702   4.434   7.414   5.012 -1.0597 -1.1311 -2.1030
   56MOL   H29336703   4.461   7.560   4.928  0.4818 -0.9850  0.3090
   56MOL   H29436704   4.225   7.543   5.101  0.1278  0.5378  0.4151
   56MOL   H29536705   4.308   7.691   5.046  1.3962 -0.3021 -1.4613
   56MOL   H29636706   4.396   7.521   5.269  0.9893  0.0346  0.6184
   56MOL   H29736707   4.339   7.683   5.272  1.2425  1.6223  0.0307
   56MOL   H29836708   4.495   7.645   5.194  0.3152 -0.5596  0.2780
   56MOL   C29936709   4.350   7.654   4.208 -0.3870 -0.5581  1.1690
   56MOL   C30036710   4.410   0.084   4.145 -0.2540  0.2803 -0.5377
   56MOL   C30136711   4.492   0.165   4.251  0.5350 -0.0217 -0.6259
   56MOL   C30236712   4.413   0.223   4.371  0.4670  0.1099  0.7613
   56MOL   C30336713   4.473   0.354   4.416 -0.0891 -0.1518 -0.8808
   56MOL   C30436714   4.409   0.417   4.537  0.0557  0.0435 -0.6133
   56MOL   C30536715   4.270   0.477   4.509  0.6251  0.4506 -0.3709
   56MOL   C30636716   4.276   0.629   4.506 -0.2081 -0.1174 -0.2087
   56MOL   C30736717   4.135   0.693   4.487 -0.7022  0.2106 -0.5800
   56MOL   C30836718   4.039   0.672   4.609  0.0425 -0.1146 -0.7474
   56MOL   C30936719   4.076   0.768   4.727  0.1326  0.1324  0.3607
   56MOL   H31036720   4.294   7.699   4.290 -0.7167 -1.3871  1.4028
   56MOL   H31136721   4.271   7.608   4.149  0.9659 -0.8655 -0.4513
   56MOL   H31236722   4.482   0.056   4.069  1.6262 -0.0744  1.3342
   56MOL   H31336723   4.572   0.101   4.288  0.3119  0.4700  0.7369
   56MOL   H31436724   4.555   0.242   4.207  1.7763 -1.8203 -2.0873
   56MOL   H31536725   4.308   0.246   4.351  1.0789  3.6181  1.2779
   56MOL   H31636726   4.420   0.155   4.456  1.4018 -2.1537 -1.0645
   56MOL   H31736727   4.581   0.346   4.429 -0.0111 -1.0366 -1.9650
   56MOL   H31836728   4.463   0.421   4.330 -0.3610  2.4447  1.1232
   56MOL   H31936729   4.477   0.485   4.588 -0.3518 -1.3240  1.8364
   56MOL   H32036730   4.401   0.337   4.611 -0.3660  0.3038 -0.3767
   56MOL   H32136731   4.228   0.436   4.417  1.3150 -1.9720  0.3549
   56MOL   H32236732   4.200   0.444   4.585  0.5451  2.9982  0.6848
   56MOL   H32336733   4.345   0.652   4.425  1.4156 -0.0254  1.1647
   56MOL   H32436734   4.324   0.667   4.596 -0.2014  0.3883 -0.4289
   56MOL   H32536735   4.092   0.649   4.397 -1.9318  1.7015 -0.7455
   56MOL   H32636736   4.154   0.798   4.468  0.8981 -0.0202 -0.3330
   56MOL   H32736737   4.047   0.566   4.634  1.2847 -0.7666 -3.6927
   56MOL   H32836738   3.937   0.679   4.572  0.0533  1.9338 -0.4046
   56MOL   H32936739   4.036   0.868   4.712  0.0399  0.4030  2.2708
   56MOL   H33036740   4.026   0.734   4.818 -0.6021 -0.3597 -0.2229
   56MOL   H33136741   4.180   0.769   4.761 -0.0804 -2.5921  1.2443
   56MOL   C33236742   4.304   0.170   4.074 -0.3741 -0.9865 -0.1481
   56MOL   C33336743   4.338   0.319   4.033 -0.1117  0.1492  0.4573
   56MOL   C33436744   4.199   0.385   3.993 -0.5953  0.6920 -0.3056
   56MOL   C33536745   4.115   0.440   4.106 -0.1303 -0.4885  0.4528
   56MOL   C33636746   3.976   0.462   4.055  0.6320 -0.2352 -0.1941
   56MOL   C33736747   3.870   0.510   4.161  0.2003 -0.4576 -0.1205
   56MOL   C33836748   3.727   0.523   4.106 -0.1074 -0.0865 -0.3499
   56MOL   C33936749   3.636   0.573   4.219  0.2822 -0.2970 -0.3255
   56MOL   C34036750   3.487   0.585   4.184  0.5025 -0.6039 -0.6856
   56MOL   C34136751   3.466   0.710   4.096  0.6628  0.5883  0.2460
   56MOL   C34236752   3.495   0.831   4.177  0.1010 -0.2189 -0.4847
   56MOL   H34336753   4.258   0.117   3.991 -2.1982  0.9215 -0.4047
   56MOL   H34436754   4.220   0.176   4.144 -0.4992  1.8949 -0.4816
   56MOL   H34536755   4.386   0.362   4.121  0.5157  1.0871 -0.3300
   56MOL   H34636756   4.147   0.306   3.939  0.3087 -0.8808  1.0617
   56MOL   H34736757   4.228   0.468   3.929  2.7054  0.6096  0.9886
   56MOL   H34836758   4.123   0.390   4.203 -0.5065  1.2143  1.3877
   56MOL   H34936759   4.163   0.536   4.124 -0.4192 -0.2209 -0.2138
   56MOL   H35036760   3.975   0.520   3.963  2.3821 -0.9038 -0.6420
   56MOL   H35136761   3.946   0.366   4.015  2.2066 -0.8046 -0.0347
   56MOL   H35236762   3.891   0.612   4.194 -0.3299 -0.2817 -0.3339
   56MOL   H35336763   3.868   0.444   4.249 -2.3933  1.1393  1.0724
   56MOL   H35436764   3.678   0.434   4.068  1.0798 -0.4369 -1.1060
   56MOL   H35536765   3.732   0.596   4.025 -2.5465  0.3098 -0.1679
   56MOL   H35636766   3.629   0.502   4.302 -2.2554  1.0105  0.6665
   56MOL   H35736767   3.680   0.655   4.275 -1.1981  1.3797 -1.5578
   56MOL   H35836768   3.439   0.597   4.280  1.6608 -0.4065 -0.1215
   56MOL   H35936769   3.450   0.491   4.142 -1.4617  0.0592 -0.4589
   56MOL   H36036770   3.364   0.713   4.058  0.3974  1.9885  1.0326
   56MOL   H36136771   3.533   0.692   4.012  0.1161 -0.1200 -0.0538
   56MOL   H36236772   3.517   0.909   4.104 -3.4403  0.0226 -1.3924
   56MOL   H36336773   3.401   0.849   4.228  0.5924  0.7711  0.0833
   56MOL   H36436774   3.575   0.830   4.251 -2.1861 -0.7344  2.0605
   56MOL   C36536775   4.443   0.314   3.920  0.2622 -0.0403  0.5683
   56MOL   C36636776   4.514   0.451   3.883  0.1444 -0.9695 -0.6137
   56MOL   C36736777   4.577   0.510   4.010  0.1123 -0.3775 -0.4675
   56MOL   C36836778   4.511   0.635   4.065  0.2089  0.1349 -0.1526
   56MOL   C36936779   4.603   0.705   4.167  0.2927 -0.1737  0.1320
   56MOL   C37036780   4.555   0.842   4.209  0.1819  0.1909 -0.3743
   56MOL   C37136781   4.648   0.911   4.306  0.9946  0.8668  0.0477
   56MOL   C37236782   4.605   1.051   4.324  0.6474 -0.6577 -0.1096
   56MOL   C37336783   4.634   1.116   4.459  0.0256  0.1425  0.0538
   56MOL   C37436784   4.573   1.059   4.590 -0.0692 -0.0084  0.4056
   56MOL   C37536785   4.597   1.131   4.715  0.1151  0.3514 -0.4379
   56MOL   H37636786   4.530   0.255   3.946  0.2523 -0.1467  0.3622
   56MOL   H37736787   4.401   0.273   3.828 -0.9818  1.1743  0.5742
   56MOL   H37836788   4.437   0.522   3.854 -1.6548 -2.6320 -0.1238
   56MOL   H37936789   4.680   0.541   3.995  2.0541 -3.9121  4.1329
   56MOL   H38036790   4.603   0.444   4.094  2.2351 -0.1856 -0.9463
   56MOL   H38136791   4.411   0.622   4.108  0.3391 -1.5160 -0.3112
   56MOL   H38236792   4.490   0.712   3.990  3.6691  2.0307  0.7322
   56MOL   H38336793   4.706   0.703   4.133  0.4869 -0.4892  0.7217
   56MOL   H38436794   4.613   0.650   4.261  0.0641  0.3102  0.4406
   56MOL   H38536795   4.455   0.835   4.250  0.5142 -0.6795  0.3140
   56MOL   H38636796   4.547   0.908   4.123 -0.5995 -0.0612 -0.4946
   56MOL   H38736797   4.641   0.858   4.401  0.2462  0.5976 -0.1545
   56MOL   H38836798   4.753   0.913   4.277  0.6904 -0.1965 -1.1600
   56MOL   H38936799   4.497   1.060   4.311  0.5858  0.1138  0.8489
   56MOL   H39036800   4.652   1.114   4.248  0.9098 -0.4843  0.1919
   56MOL   H39136801   4.742   1.118   4.472  0.2995 -0.6098 -1.9278
   56MOL   H39236802   4.597   1.216   4.439  0.0511  0.3158  0.8716
   56MOL   H39336803   4.466   1.049   4.569  0.0956  1.4284 -1.2387
   56MOL   H39436804   4.594   0.954   4.610  2.1993  0.1235 -1.1407
   56MOL   H39536805   4.548   1.229   4.708  0.3372  0.4754 -0.2267
   56MOL   H39636806   4.705   1.140   4.716  0.1232  0.2492 -0.3736
   56MOL   H39736807   4.559   1.073   4.798  0.0900  2.2347  0.8972
   56MOL   C39836808   4.610   0.443   3.763  0.2697  0.1759 -0.4367
   56MOL   C39936809   4.636   0.580   3.686 -0.1936  0.4607  0.4352
   56MOL   C40036810   4.550   0.569   3.557 -0.6290 -0.7194 -0.3464
   56MOL   C40136811   4.546   0.709   3.482  0.9441 -0.6082  0.0604
   56MOL   C40236812   4.554   0.702   3.330  0.1738  0.0019  0.3571
   56MOL   C40336813   4.696   0.700   3.274  1.1734 -0.1202 -0.2558
   56MOL   C40436814   4.684   0.689   3.122 -0.2362 -0.1133  0.1562
   56MOL   C40536815   4.826   0.670   3.068 -0.2796  0.5551 -0.0760
   56MOL   C40636816   4.901   0.806   3.076 -0.0959 -0.2288 -0.4510
   56MOL   C40736817   5.015   0.804   2.977  0.1057  0.4945 -0.5457
   56MOL   C40836818   5.135   0.718   3.027 -0.9737 -0.0842 -0.2038
   56MOL   H40936819   4.568   0.368   3.696  0.4710  0.6380 -1.0809
   56MOL   H41036820   4.697   0.394   3.807 -0.2119 -0.4763 -0.1951
   56MOL   H41136821   4.603   0.661   3.752  1.2322  0.2198  1.4646
   56MOL   H41236822   4.450   0.530   3.576 -1.7748  2.6947  1.1343
   56MOL   H41336823   4.593   0.505   3.480 -0.4920  0.0223 -0.8925
   56MOL   H41436824   4.449   0.756   3.502  1.1939  0.0871 -0.3633
   56MOL   H41536825   4.616   0.782   3.522  0.1140  0.3818 -0.2518
   56MOL   H41636826   4.492   0.617   3.301  1.2651 -0.6139 -0.1757
   56MOL   H41736827   4.494   0.783   3.288  0.3040 -0.8765 -1.5477
   56MOL   H41836828   4.745   0.615   3.322  0.4493 -0.1261  0.4871
   56MOL   H41936829   4.758   0.783   3.307  0.5021  0.3738 -0.2372
   56MOL   H42036830   4.633   0.596   3.100 -0.3255 -0.1422  0.4902
   56MOL   H42136831   4.630   0.773   3.078 -0.0911 -0.6269 -1.0180
   56MOL   H42236832   4.816   0.636   2.965  1.0726  2.2178 -0.7875
   56MOL   H42336833   4.878   0.584   3.110  1.8288  1.3672 -0.9462
   56MOL   H42436834   4.834   0.886   3.047 -3.4751 -3.5822 -2.2958
   56MOL   H42536835   4.941   0.825   3.176  0.6153  0.0205 -0.7865
   56MOL   H42636836   5.043   0.908   2.957 -1.4139  0.4605 -3.1260
   56MOL   H42736837   4.977   0.767   2.882  0.4619 -0.3134 -0.3815
   56MOL   H42836838   5.181   0.766   3.113  2.3685  0.4063 -2.1569
   56MOL   H42936839   5.221   0.710   2.960  0.4420  1.4317  1.3839
   56MOL   H43036840   5.095   0.620   3.052 -0.2145 -0.0385  1.2396
   56MOL   C43136841   4.783   0.613   3.657  0.6286  0.0468 -0.5538
   56MOL   C43236842   4.870   0.660   3.773 -0.3322 -0.5316  0.2750
   56MOL   C43336843   4.831   0.799   3.815  0.4461  0.0626 -0.0500
   56MOL   C43436844   4.896   0.864   3.941  0.0011 -0.4227  0.6865
   56MOL   C43536845   4.856   1.013   3.956  0.7917 -0.3871 -0.3658
   56MOL   C43636846   4.919   1.084   4.083  0.2861  0.5470  0.6957
   56MOL   C43736847   5.074   1.113   4.067  0.1891  0.1463  0.6612
   56MOL   C43836848   5.136   1.175   4.195  0.5716 -0.0036  0.0686
   56MOL   C43936849   5.092   1.315   4.229  0.5335  0.3066 -0.5920
   56MOL   C44036850   5.169   1.380   4.347 -0.0884 -0.1497 -0.5662
   56MOL   C44136851   5.140   1.330   4.487 -0.4336 -0.6057  0.6863
   56MOL   H44236852   4.774   0.696   3.587  0.0898 -0.0244 -0.5747
   56MOL   H44336853   4.821   0.523   3.609  4.9047  0.5593  1.6516
   56MOL   H44436854   4.859   0.586   3.853  0.3474  1.0235  1.8546
   56MOL   H44536855   4.850   0.866   3.731 -0.1493 -1.2267 -1.2382
   56MOL   H44636856   4.723   0.802   3.831  0.3402 -0.1375 -0.7326
   56MOL   H44736857   5.005   0.868   3.935  0.0375 -0.4910  1.2558
   56MOL   H44836858   4.868   0.806   4.029  2.4034 -1.9010  0.5222
   56MOL   H44936859   4.747   1.018   3.959  0.8413  0.3077  0.7082
   56MOL   H45036860   4.896   1.061   3.867  2.7357  1.7112  1.5714
   56MOL   H45136861   4.887   1.039   4.177 -0.2205 -2.7831 -0.9679
   56MOL   H45236862   4.872   1.182   4.086  0.4935  0.7387 -1.5452
   56MOL   H45336863   5.097   1.177   3.983  0.3864 -0.4145  0.2849
   56MOL   H45436864   5.131   1.022   4.047 -0.7723 -0.2562 -0.2830
   56MOL   H45536865   5.125   1.109   4.281 -0.0806  1.7360  1.3239
   56MOL   H45636866   5.244   1.176   4.179  0.2562 -2.4971 -2.9329
   56MOL   H45736867   4.987   1.304   4.257  0.9374 -2.2757  0.0434
   56MOL   H45836868   5.093   1.383   4.144 -0.8880  1.3124  0.1573
   56MOL   H45936869   5.143   1.486   4.342 -1.3391 -0.4965 -2.0328
   56MOL   H46036870   5.275   1.391   4.326 -0.2274 -1.8022 -2.3393
   56MOL   H46136871   5.074   1.406   4.530 -1.7759 -0.6865 -1.1546
   56MOL   H46236872   5.083   1.237   4.482 -1.9840  0.3691 -0.1191
   56MOL   H46336873   5.229   1.317   4.548  1.5859 -1.3655 -2.3147
   56MOL   C46436874   5.020   0.651   3.723 -0.3137 -0.2784  0.6766
   56MOL   C46536875   5.082   0.508   3.701 -0.8191  0.7433 -0.0947
   56MOL   C46636876   5.077   0.479   3.546  0.3141 -0.0460  0.1997
   56MOL   C46736877   5.071   0.329   3.531  1.0046 -0.7762  1.1880
   56MOL   C46836878   5.042   0.291   3.382 -0.7194  0.0964  0.0161
   56MOL   C46936879   4.900   0.335   3.330  0.4223 -0.2373 -0.2223
   56MOL   C47036880   4.878   0.262   3.201  0.9024  0.2136  0.2968
   56MOL   C47136881   4.734   0.288   3.154 -0.2237 -0.0787 -0.0959
   56MOL   C47236882   4.706   0.224   3.020  0.0381 -0.2753 -0.4725
   56MOL   C47336883   4.567   0.272   2.958  0.6473 -0.8757 -0.0721
   56MOL   C47436884   4.519   0.202   2.822 -0.2011  0.0891  0.3871
   56MOL   H47536885   5.092   0.714   3.775 -0.7884  2.2279 -1.5890
   56MOL   H47636886   5.024   0.706   3.629 -3.2442  0.2302  0.7949
   56MOL   H47736887   5.020   0.439   3.759 -2.5303  0.8071 -1.7730
   56MOL   H47836888   5.160   0.523   3.490  1.0590 -1.4215  0.2071
   56MOL   H47936889   4.983   0.521   3.510  0.0246 -0.7136  0.1738
   56MOL   H48036890   5.158   0.275   3.569  0.4114 -1.9924  0.8601
   56MOL   H48136891   4.989   0.288   3.591 -0.6675  0.9817  0.1774
   56MOL   H48236892   5.055   0.183   3.372 -0.3170  0.1349  0.0761
   56MOL   H48336893   5.116   0.338   3.317  1.2579  0.1932  2.2594
   56MOL   H48436894   4.818   0.329   3.402 -0.5959  0.7857 -1.2685
   56MOL   H48536895   4.902   0.442   3.310  0.2659  0.1870  1.9306
   56MOL   H48636896   4.950   0.284   3.122 -1.4804  1.1869 -1.6387
   56MOL   H48736897   4.892   0.155   3.209  0.2770 -0.0031 -1.3455
   56MOL   H48836898   4.656   0.256   3.224 -1.0909  0.6631 -0.7072
   56MOL   H48936899   4.716   0.395   3.143  0.3377 -0.0410 -0.6367
   56MOL   H49036900   4.785   0.250   2.950  0.2560  3.1267  0.9432
   56MOL   H49136901   4.707   0.115   3.033 -1.6928 -0.5752 -2.5182
   56MOL   H49236902   4.490   0.261   3.034 -1.2129  0.4505 -1.7474
   56MOL   H49336903   4.583   0.378   2.940 -0.9060 -0.2244  2.2730
   56MOL   H49436904   4.467   0.106   2.828 -1.3017  0.6711  0.1755
   56MOL   H49536905   4.606   0.172   2.762  0.8337  1.5783  1.1099
   56MOL   H49636906   4.445   0.248   2.757 -0.6159 -0.3298  0.5589
   56MOL   C49736907   5.232   0.494   3.749  0.0649 -0.1108 -0.5410
   56MOL   C49836908   5.260   0.506   3.901  0.0458 -0.2889  1.1377
   56MOL   C49936909   5.333   0.637   3.950  0.2153 -0.4651 -0.0822
   56MOL   C50036910   5.318   0.658   4.103 -0.3132  0.3496 -0.1735
   56MOL   C50136911   5.420   0.762   4.161 -0.0129 -0.6257  0.6310
   56MOL   C50236912   5.378   0.811   4.302  0.0045  0.4501  0.3697
   56MOL   C50336913   5.471   0.917   4.363  0.8866 -0.1574  0.3341
   56MOL   C50436914   5.407   0.965   4.498  0.0165 -0.0467 -0.1735
   56MOL   C50536915   5.455   1.093   4.559 -0.0084 -0.2355  0.2240
   56MOL   C50636916   5.396   1.130   4.700  0.6213  0.2023 -0.4572
   56MOL   C50736917   5.480   1.085   4.822 -0.7144  0.6807  0.1312
   56MOL   H50836918   5.278   0.410   3.699  2.0147  0.4691  0.2320
   56MOL   H50936919   5.292   0.578   3.714  0.4178  0.7745  2.0287
   56MOL   H51036920   5.161   0.499   3.948 -0.5190  1.6409  0.3006
   56MOL   H51136921   5.298   0.726   3.898  0.1291 -1.5337 -1.9152
   56MOL   H51236922   5.439   0.636   3.924  0.5263 -1.5072  1.1469
   56MOL   H51336923   5.327   0.566   4.161 -0.5665  0.9707  0.8781
   56MOL   H51436924   5.219   0.697   4.128  0.0871  2.1412 -1.2841
   56MOL   H51536925   5.521   0.722   4.157  0.7502  1.1286  2.0009
   56MOL   H51636926   5.420   0.857   4.108 -3.5128 -1.4386 -0.9887
   56MOL   H51736927   5.277   0.851   4.293  0.0424 -0.1083 -3.0687
   56MOL   H51836928   5.370   0.732   4.378  0.2427  0.3690  0.3112
   56MOL   H51936929   5.569   0.872   4.376  0.3615 -1.4124 -0.0481
   56MOL   H52036930   5.474   1.005   4.298  0.3760  0.9782  1.8104
   56MOL   H52136931   5.424   0.883   4.568  2.7033 -0.8393 -1.6818
   56MOL   H52236932   5.299   0.967   4.485  0.0136  0.7339 -0.0431
   56MOL   H52336933   5.428   1.175   4.493  1.0375 -0.6394 -0.7275
   56MOL   H52436934   5.564   1.098   4.554 -0.0365  1.7817  1.0389
   56MOL   H52536935   5.304   1.072   4.699 -0.0115  1.2121 -0.3433
   56MOL   H52636936   5.382   1.237   4.711  0.2024  0.1162 -0.1831
   56MOL   H52736937   5.422   1.090   4.914  0.2425 -1.0818  0.8648
   56MOL   H52836938   5.575   1.137   4.833 -0.1113  0.1178 -2.1250
   56MOL   H52936939   5.491   0.980   4.793 -0.1537  0.8875 -0.3956
   56MOL   C53036940   5.326   0.373   3.959 -0.7103  0.3201 -0.4523
   56MOL   C53136941   5.481   0.362   3.969  0.1319  0.3714  0.1854
   56MOL   C53236942   5.541   0.357   3.823  0.4701  0.1648  0.2525
   56MOL   C53336943   5.504   0.234   3.739  0.3867 -0.4435  0.6842
   56MOL   C53436944   5.570   0.227   3.598  0.8413 -0.1435 -0.7745
   56MOL   C53536945   5.517   0.119   3.505 -0.0766  0.1387 -0.8374
   56MOL   C53636946   5.585   0.117   3.367 -0.3261  0.1590 -0.6552
   56MOL   C53736947   5.568   7.695   3.279 -0.5351  0.1127 -0.2274
   56MOL   C53836948   5.624   0.000   3.136  0.4258  0.3270 -0.0303
   56MOL   C53936949   5.623   7.567   3.067  0.4995  0.5531 -0.1556
   56MOL   C54036950   5.683   7.444   3.145 -0.1796 -0.3852  0.8105
   56MOL   H54136951   5.293   0.365   4.062  1.5229 -2.4254  0.0828
   56MOL   H54236952   5.276   0.292   3.906  1.1285  0.1710 -2.0354
   56MOL   H54336953   5.524   0.445   4.025 -1.7353 -0.3554  2.7867
   56MOL   H54436954   5.648   0.378   3.820  0.8099 -1.4642  0.3296
   56MOL   H54536955   5.516   0.444   3.762 -0.1363 -0.7655 -0.8422
   56MOL   H54636956   5.396   0.223   3.727  0.3716 -0.8121  1.1250
   56MOL   H54736957   5.547   0.143   3.782  0.5476 -0.8275 -0.2570
   56MOL   H54836958   5.678   0.211   3.611  0.8648  0.6223  0.0065
   56MOL   H54936959   5.546   0.323   3.553  1.0304 -0.5283 -1.7166
   56MOL   H55036960   5.409   0.119   3.487 -0.4506 -2.0203  1.2466
   56MOL   H55136961   5.535   0.023   3.553  0.5664 -0.5082 -2.3439
   56MOL   H55236962   5.692   0.129   3.378 -0.1789 -0.6727 -1.0803
   56MOL   H55336963   5.544   0.200   3.309  0.9634 -0.2856 -2.2540
   56MOL   H55436964   5.467   7.656   3.278 -1.1587  1.6716 -1.9126
   56MOL   H55536965   5.634   7.623   3.328 -0.1747 -1.4231 -2.8736
   56MOL   H55636966   5.729   0.031   3.130  0.4458  0.7349  2.0940
   56MOL   H55736967   5.563   0.063   3.070  2.2846  1.4316 -0.7547
   56MOL   H55836968   5.659   7.575   2.965  1.1970 -3.6340 -0.3380
   56MOL   H55936969   5.517   7.541   3.056  0.8773 -0.8481 -0.5869
   56MOL   H56036970   5.650   7.352   3.095  0.7886  2.0998 -4.8356
   56MOL   H56136971   5.788   7.447   3.172  0.3244  1.9356 -1.2446
   56MOL   H56236972   5.641   7.430   3.245  1.2210 -0.7456  1.3514
   56MOL   C56336973   5.514   0.241   4.051  0.0090 -0.0901  0.2291
   56MOL   C56436974   5.513   0.273   4.205  0.3058  0.3876  0.4001
   56MOL   C56536975   5.637   0.351   4.246  0.3554 -0.0497 -0.0810
   56MOL   C56636976   5.622   0.417   4.385  0.1873  0.3040  0.5329
   56MOL   C56736977   5.718   0.541   4.399  0.4638  0.2733 -1.0402
   56MOL   C56836978   5.673   0.641   4.519 -0.2082 -0.4536 -0.0814
   56MOL   C56936979   5.783   0.740   4.552 -0.0242  0.5136  0.5629
   56MOL   C57036980   5.733   0.825   4.674  0.5188  0.3843  0.0983
   56MOL   C57136981   5.840   0.920   4.733  1.3024  0.2638 -1.1021
   56MOL   C57236982   5.954   0.842   4.809  0.6122  0.6363 -0.5082
   56MOL   C57336983   6.041   0.944   4.879 -0.9774  0.0768  0.3013
   56MOL   H57436984   5.611   0.195   4.032 -0.4848 -0.4821 -1.4249
   56MOL   H57536985   5.443   0.162   4.028 -0.9867  0.7147  0.5412
   56MOL   H57636986   5.429   0.338   4.227  0.3086  0.2416  0.8476
   56MOL   H57736987   5.662   0.425   4.170  0.1217 -0.2052 -0.3082
   56MOL   H57836988   5.720   0.281   4.248 -1.0028 -1.6759 -0.2520
   56MOL   H57936989   5.629   0.342   4.464 -1.3194 -1.9271 -1.3835
   56MOL   H58036990   5.521   0.457   4.401  0.9691  2.8047 -0.4707
   56MOL   H58136991   5.734   0.594   4.306 -1.1840  2.2362 -0.2467
   56MOL   H58236992   5.815   0.504   4.433 -0.3434  1.2404  2.5758
   56MOL   H58336993   5.581   0.696   4.500 -0.0664  0.0350  0.6454
   56MOL   H58436994   5.661   0.570   4.600  0.8940 -0.5725 -0.0051
   56MOL   H58536995   5.873   0.687   4.585 -2.0407 -2.2554  1.8246
   56MOL   H58636996   5.813   0.797   4.464  1.3912  0.2039  0.8354
   56MOL   H58736997   5.693   0.765   4.756 -0.6916  0.6118 -0.3155
   56MOL   H58836998   5.647   0.876   4.632 -0.1148 -0.4725  0.3470
   56MOL   H58936999   5.801   0.983   4.813  1.2794 -1.1291 -0.0068
   56MOL   H59037000   5.872   0.997   4.663  1.1919  0.7186 -0.6581
   56MOL   H59137001   6.005   0.773   4.743  1.0144 -1.6980  2.1589
   56MOL   H59237002   5.919   0.778   4.890  2.9979  0.0334  0.0756
   56MOL   H59337003   5.980   0.999   4.950 -1.7958 -1.5934  0.9281
   56MOL   H59437004   6.121   0.896   4.935  0.3685 -0.3743 -1.9416
   56MOL   H59537005   6.081   1.016   4.807  0.9439 -0.0262  1.2419
   56MOL   C59637006   5.499   0.142   4.273 -0.3799 -0.7374  0.1100
   56MOL   C59737007   5.358   0.081   4.291 -0.3422 -0.1315 -0.4023
   56MOL   C59837008   5.252   0.166   4.366  0.2584  0.6011  0.5754
   56MOL   C59937009   5.279   0.192   4.512  0.0770 -0.2063 -0.5425
   56MOL   C60037010   5.162   0.253   4.588  0.3624  0.7122 -0.2395
   56MOL   C60137011   5.205   0.309   4.722 -0.2247  0.7443  0.3696
   56MOL   C60237012   5.294   0.433   4.718 -0.2505 -0.2001 -0.0841
   56MOL   C60337013   5.287   0.505   4.857 -0.4665  0.7955  0.2893
   56MOL   C60437014   5.356   0.646   4.854  0.9072  0.1084  0.0153
   56MOL   C60537015   5.366   0.719   4.996  0.1233 -0.0742 -0.2957
   56MOL   C60637016   5.246   0.800   5.047  0.0786  0.1344  0.2684
   56MOL   H60737017   5.559   0.063   4.227  1.9332  0.2756  1.3037
   56MOL   H60837018   5.547   0.136   4.371  3.5427  0.6584 -1.6252
   56MOL   H60937019   5.324   0.063   4.189 -1.0848  2.4005 -0.6543
   56MOL   H61037020   5.158   0.112   4.366 -0.0836  1.1781  1.8545
   56MOL   H61137021   5.228   0.256   4.309  0.6261  0.0457 -0.4524
   56MOL   H61237022   5.364   0.261   4.517 -0.3402  0.3293 -0.8414
   56MOL   H61337023   5.305   0.103   4.571 -0.6462 -1.0160 -1.4394
   56MOL   H61437024   5.077   0.185   4.578  1.2069 -0.2197 -1.0942
   56MOL   H61537025   5.127   0.335   4.525 -1.7696 -0.0561 -0.1126
   56MOL   H61637026   5.114   0.344   4.771 -1.5508  0.6741 -1.9488
   56MOL   H61737027   5.257   0.236   4.783 -1.9314 -0.7512  0.0583
   56MOL   H61837028   5.248   0.502   4.647 -0.3476 -2.7032 -2.5499
   56MOL   H61937029   5.396   0.405   4.692 -0.8134 -1.3710 -1.0784
   56MOL   H62037030   5.332   0.449   4.939  1.2596  2.4220  0.4877
   56MOL   H62137031   5.182   0.524   4.878 -1.0479 -2.1014  0.2100
   56MOL   H62237032   5.458   0.642   4.817  0.9116  2.2177 -0.2408
   56MOL   H62337033   5.293   0.704   4.788  1.2994 -0.6729 -1.0542
   56MOL   H62437034   5.445   0.793   4.995 -0.0914  0.1772  0.6645
   56MOL   H62537035   5.392   0.659   5.084  0.1974  0.0406 -0.2392
   56MOL   H62637036   5.151   0.747   5.046  1.2603 -2.0694 -1.4035
   56MOL   H62737037   5.257   0.829   5.151 -1.9233 -1.0672  0.8450
   56MOL   H62837038   5.234   0.892   4.991  1.6643 -0.1623 -0.5909
   56MOL   C62937039   5.379   7.641   4.347 -0.1924 -0.4570  0.1090
   56MOL   C63037040   5.250   7.567   4.378  0.4429 -0.5404 -0.8314
   56MOL   C63137041   5.275   7.413   4.388  0.5299  0.0651  0.0503
   56MOL   C63237042   5.148   7.334   4.415  0.3493 -0.3584  0.4635
   56MOL   C63337043   5.160   7.177   4.403 -0.6429 -0.5312 -0.6818
   56MOL   C63437044   5.080   7.113   4.517  0.1856  0.1214 -0.2977
   56MOL   C63537045   4.933   7.125   4.492  0.4379  0.1478  0.6746
   56MOL   C63637046   4.854   7.115   4.619  0.1091  0.1472  0.0997
   56MOL   C63737047   4.706   7.114   4.608  0.5867 -0.6546  0.0905
   56MOL   C63837048   4.638   7.121   4.746 -0.2111  0.2964 -0.3218
   56MOL   C63937049   4.487   7.100   4.741 -0.2712 -0.2935 -0.2789
   56MOL   H64037050   5.439   7.576   4.283 -0.4416 -0.5474 -0.0329
   56MOL   H64137051   5.439   7.656   4.437 -0.5062 -0.4763  0.3197
   56MOL   H64237052   5.189   7.596   4.464  0.4026 -1.7956 -0.4301
   56MOL   H64337053   5.323   7.373   4.298 -0.8722 -1.2141 -0.1605
   56MOL   H64437054   5.343   7.391   4.470 -0.1373  0.2067  0.6399
   56MOL   H64537055   5.073   7.373   4.346  0.0277  0.6660  1.3785
   56MOL   H64637056   5.114   7.370   4.512 -0.9612 -1.4114  0.4121
   56MOL   H64737057   5.262   7.139   4.408 -0.5131 -0.1080 -0.0960
   56MOL   H64837058   5.106   7.144   4.314 -1.8905 -0.6967  0.1299
   56MOL   H64937059   5.110   7.158   4.611 -2.7781 -0.9243  1.2059
   56MOL   H65037060   5.107   7.007   4.521  1.5954  0.5491  2.2494
   56MOL   H65137061   4.903   7.056   4.412  0.7174  1.4115 -0.5400
   56MOL   H65237062   4.903   7.228   4.471  1.5910  1.5540  5.4340
   56MOL   H65337063   4.889   7.187   4.693 -0.1321  0.9119 -0.5304
   56MOL   H65437064   4.875   7.021   4.670 -0.2944  0.7114  1.3369
   56MOL   H65537065   4.674   7.027   4.552  0.1817 -1.0318  0.8982
   56MOL   H65637066   4.689   7.195   4.536  5.3817  1.0160  0.6589
   56MOL   H65737067   4.653   7.220   4.789  0.4328  1.0409 -2.1951
   56MOL   H65837068   4.675   7.039   4.808 -1.4134  0.2525  0.3496
   56MOL   H65937069   4.424   7.178   4.698 -2.1683 -1.0870  0.9934
   56MOL   H66037070   4.438   7.084   4.837 -0.1605 -0.4922 -0.2554
   56MOL   H66137071   4.473   7.007   4.686 -1.1783  1.1306 -2.5491
   56MOL   H66237072   5.182   7.573   4.292  0.4731  1.0890 -0.7702
   57MOL     C137073   2.531   1.273   0.258  0.5085  0.7460 -0.5482
   57MOL     C237074   2.592   1.298   0.120 -0.4240 -0.3315 -0.1677
   57MOL     C337075   2.698   1.405   0.127  0.0472 -0.0224  0.0224
   57MOL     C437076   2.829   1.368   0.202 -0.3860 -0.8119  0.5277
   57MOL     C537077   2.944   1.472   0.195  0.6420 -0.4891 -0.5679
   57MOL     C637078   3.026   1.472   0.069 -0.1342 -0.5100  0.1348
   57MOL     C737079   3.152   1.375   0.071  0.1780 -0.2788 -0.2049
   57MOL     C837080   3.254   1.396   7.659  0.0913  0.1437 -0.2595
   57MOL     C937081   3.377   1.304   7.666  0.2680 -0.3711  0.4139
   57MOL    C1037082   3.489   1.333   7.556  0.8053 -0.6117 -1.3540
   57MOL    C1137083   3.444   1.302   7.412 -0.0323  0.0862  0.7166
   57MOL    H1237084   2.461   1.190   0.261  0.6273  0.6842  0.8461
   57MOL    H1337085   2.484   1.364   0.297  1.9942  1.2837  0.0305
   57MOL    H1437086   2.518   1.348   0.058 -0.8102  0.4355  0.8998
   57MOL    H1537087   2.658   1.496   0.173 -2.4920 -1.3238  0.5006
   57MOL    H1637088   2.721   1.427   0.023  2.7955 -0.0272  0.5927
   57MOL    H1737089   2.857   1.269   0.165  1.2555 -0.5965  1.1310
   57MOL    H1837090   2.807   1.337   0.305 -1.2590  1.6003  1.0838
   57MOL    H1937091   2.909   1.572   0.222  2.7478 -0.4320  2.2823
   57MOL    H2037092   3.017   1.452   0.274  0.4398 -1.3133 -0.5846
   57MOL    H2137093   3.050   1.577   0.051  0.8997 -0.8785 -0.7118
   57MOL    H2237094   2.955   1.455   7.692 -2.2049  2.6119  1.2151
   57MOL    H2337095   3.205   1.390   0.165  1.1470 -1.8550 -0.4940
   57MOL    H2437096   3.127   1.269   0.073 -1.8310  0.1659 -0.4196
   57MOL    H2537097   3.284   1.500   7.650  1.6947 -0.3976 -1.2970
   57MOL    H2637098   3.213   1.368   7.562 -1.3601  0.8037  0.1523
   57MOL    H2737099   3.345   1.201   7.652  2.0104 -0.5401 -2.9267
   57MOL    H2837100   3.415   1.307   0.065 -1.1718 -0.2535  0.9477
   57MOL    H2937101   3.569   1.267   7.588  1.1316  0.6885  0.6384
   57MOL    H3037102   3.533   1.432   7.568 -0.8402 -0.2643  2.5738
   57MOL    H3137103   3.355   1.355   7.379 -0.7956 -1.3455  0.4033
   57MOL    H3237104   3.519   1.336   7.341 -0.2136 -0.4267  0.2768
   57MOL    H3337105   3.436   1.195   7.392  0.4749  0.2654 -0.4739
   57MOL    H3437106   2.607   1.247   0.331 -0.4943 -0.6794  0.0097
   57MOL    C3537107   2.624   1.156   0.064  0.1956  0.4322 -0.4699
   57MOL    C3637108   2.695   1.146   7.628  0.1717 -0.9282 -0.1133
   57MOL    C3737109   2.760   1.008   7.614 -0.4985 -0.2293  0.0434
   57MOL    C3837110   2.673   0.879   7.602  0.1977 -0.1529  0.2524
   57MOL    C3937111   2.754   0.749   7.587  0.2636  0.0035  0.1804
   57MOL    C4037112   2.667   0.634   7.530  0.1150 -0.1223 -0.2302
   57MOL    C4137113   2.632   0.654   7.382  0.0124 -0.2590 -0.1239
   57MOL    C4237114   2.499   0.584   7.346  0.7449 -0.0097  0.2696
   57MOL    C4337115   2.448   0.623   7.207 -0.0295  0.4266  0.2063
   57MOL    C4437116   2.314   0.558   7.164 -0.0085 -0.0591  0.5085
   57MOL    C4537117   2.322   0.409   7.116  0.4536 -0.0763  0.3326
   57MOL    H4637118   2.540   1.088   0.075  1.3114 -0.9236 -0.1930
   57MOL    H4737119   2.700   1.121   0.134 -0.1028 -0.8783 -0.8018
   57MOL    H4837120   2.767   1.228   7.630 -1.2969  0.4432 -2.2384
   57MOL    H4937121   2.833   1.017   7.534  1.5890 -0.1992  1.9053
   57MOL    H5037122   2.828   1.000   7.699  0.2334  1.7477 -0.3234
   57MOL    H5137123   2.606   0.897   7.518 -0.4437 -2.6833  0.1835
   57MOL    H5237124   2.605   0.877   7.687  0.4666  0.5022  0.4901
   57MOL    H5337125   2.791   0.723   7.686 -0.9796  0.8358  0.8772
   57MOL    H5437126   2.840   0.760   7.520 -1.0992 -1.2748 -1.8503
   57MOL    H5537127   2.571   0.619   7.579  0.7407  2.0475  1.7623
   57MOL    H5637128   2.724   0.542   7.547  0.2245  0.2745  1.6471
   57MOL    H5737129   2.633   0.758   7.350  0.6802 -1.0354 -2.7897
   57MOL    H5837130   2.712   0.624   7.313 -0.4763 -0.6529 -0.5198
   57MOL    H5937131   2.433   0.623   7.423 -1.2127  1.3815 -2.0696
   57MOL    H6037132   2.520   0.479   7.370 -0.2352 -0.6494 -1.5734
   57MOL    H6137133   2.521   0.623   7.127  0.4679  0.2730  0.6570
   57MOL    H6237134   2.420   0.728   7.205  2.5536  1.1223 -0.2816
   57MOL    H6337135   2.245   0.560   7.249  1.7554 -3.9238  2.1757
   57MOL    H6437136   2.257   0.613   7.089  0.1336  1.0218  1.1841
   57MOL    H6537137   2.401   0.392   7.043 -0.2739  1.2028 -0.7966
   57MOL    H6637138   2.336   0.335   7.194  2.1597  0.3177  0.4131
   57MOL    H6737139   2.229   0.387   7.063 -0.0511 -1.0890  1.6263
   57MOL    C6837140   2.610   1.214   7.512 -0.1846 -0.1978 -1.0823
   57MOL    C6937141   2.690   1.250   7.391 -0.1316  0.2712 -0.8608
   57MOL    C7037142   2.594   1.273   7.264  1.0070 -0.3831  0.1780
   57MOL    C7137143   2.498   1.159   7.230 -0.4198 -0.2515 -0.1802
   57MOL    C7237144   2.445   1.170   7.082  0.1337  0.3126 -0.2027
   57MOL    C7337145   2.371   1.037   7.052 -0.3377  0.0229  0.3130
   57MOL    C7437146   2.284   1.055   6.924 -0.1333  0.2804 -0.0327
   57MOL    C7537147   2.204   0.939   6.897 -0.1958  1.3265 -0.2051
   57MOL    C7637148   2.290   0.828   6.840  0.1864  0.4620  0.4203
   57MOL    C7737149   2.202   0.716   6.792  1.2591 -0.3859  0.0222
   57MOL    C7837150   2.288   0.604   6.730 -0.3810 -0.1148 -0.0956
   57MOL    H7937151   2.565   1.306   7.550  0.1688 -0.0970 -0.9098
   57MOL    H8037152   2.526   1.148   7.488 -1.0477  1.1525 -1.8192
   57MOL    H8137153   2.753   1.163   7.372  1.8017  1.6788 -0.9893
   57MOL    H8237154   2.652   1.297   7.175 -0.2848  0.1602 -0.5385
   57MOL    H8337155   2.536   1.360   7.294 -0.2340  0.5222 -4.4776
   57MOL    H8437156   2.558   1.068   7.236 -0.5747 -0.3546 -0.2062
   57MOL    H8537157   2.418   1.153   7.303 -0.3093  1.5642  0.1118
   57MOL    H8637158   2.529   1.186   7.014  1.2075 -0.8167  0.8122
   57MOL    H8737159   2.371   1.250   7.079  0.6086  0.7011 -2.3296
   57MOL    H8837160   2.443   0.955   7.052 -0.3179  0.0106 -1.6067
   57MOL    H8937161   2.301   1.012   7.132 -0.3014  0.1697  0.3904
   57MOL    H9037162   2.344   1.071   6.835 -0.5365  0.7739 -0.2154
   57MOL    H9137163   2.217   1.139   6.939 -0.0836  0.7813 -2.4565
   57MOL    H9237164   2.158   0.902   6.989 -1.7268  2.1166 -0.6289
   57MOL    H9337165   2.125   0.967   6.827 -1.5551 -0.5967  0.5233
   57MOL    H9437166   2.342   0.873   6.755  0.5734  0.8226  0.8489
   57MOL    H9537167   2.363   0.792   6.912  0.9056 -0.4325 -0.7237
   57MOL    H9637168   2.147   0.671   6.875  1.0282 -1.5804 -0.7784
   57MOL    H9737169   2.121   0.749   6.727  2.2346 -0.0830 -1.0548
   57MOL    H9837170   2.348   0.552   6.805 -1.9798  1.6307  2.4447
   57MOL    H9937171   2.364   0.630   6.656  1.6238 -1.3777  1.4708
   57MOL   H10037172   2.229   0.531   6.675  0.9997 -0.7098 -0.8182
   57MOL   C10137173   2.785   1.370   7.410 -0.2647  0.0402  0.0244
   57MOL   C10237174   2.913   1.364   7.319 -0.9546 -0.1362  0.5984
   57MOL   C10337175   3.001   1.236   7.342  0.6708 -0.4581 -0.1462
   57MOL   C10437176   3.044   1.161   7.216  0.0144  0.0892 -0.1052
   57MOL   C10537177   3.128   1.028   7.254  0.0313 -0.2942  0.0208
   57MOL   C10637178   3.209   0.962   7.146 -0.2151 -0.1488 -0.1389
   57MOL   C10737179   3.265   0.816   7.177  0.1210 -0.7119 -0.5951
   57MOL   C10837180   3.163   0.710   7.162 -0.4698  0.4313  0.3801
   57MOL   C10937181   3.125   0.658   7.018 -0.4661 -0.4996  0.2627
   57MOL   C11037182   3.052   0.524   7.015  0.2104 -0.0524  0.0870
   57MOL   C11137183   2.942   0.535   6.913 -0.0404  0.4293  0.3905
   57MOL   H11237184   2.725   1.456   7.378 -0.0406 -0.4854 -1.9000
   57MOL   H11337185   2.813   1.390   7.513  0.6832  0.6395 -0.3406
   57MOL   H11437186   2.876   1.367   7.217  1.5433 -1.2231 -0.3836
   57MOL   H11537187   3.088   1.267   7.400  0.7223 -0.1964 -0.3597
   57MOL   H11637188   2.945   1.173   7.411 -0.2170 -0.0297 -0.4595
   57MOL   H11737189   2.960   1.130   7.155  0.0762 -1.1318  0.4030
   57MOL   H11837190   3.110   1.223   7.155  1.1697 -2.7905 -1.9401
   57MOL   H11937191   3.193   1.050   7.339 -0.6683 -2.3241  1.1288
   57MOL   H12037192   3.057   0.959   7.300 -0.8625  0.1626 -0.6529
   57MOL   H12137193   3.138   0.972   7.063  0.4921  1.4396 -0.5827
   57MOL   H12237194   3.288   1.037   7.137 -2.3498  2.1497 -0.3791
   57MOL   H12337195   3.299   0.822   7.280  0.6058  3.6574 -0.9281
   57MOL   H12437196   3.353   0.802   7.114  0.7987  3.0772 -0.6404
   57MOL   H12537197   3.180   0.621   7.222 -1.0184  0.3693  0.4396
   57MOL   H12637198   3.073   0.763   7.190 -1.1974 -0.7020  0.2020
   57MOL   H12737199   3.066   0.738   6.973 -0.2068 -1.0101 -1.0011
   57MOL   H12837200   3.214   0.651   6.956 -0.2213  0.4192  0.5092
   57MOL   H12937201   3.019   0.496   7.115  0.6258  1.4690  0.6576
   57MOL   H13037202   3.111   0.451   6.959 -1.1366 -0.5706 -0.6737
   57MOL   H13137203   2.901   0.437   6.890 -0.5318  0.2408  2.0186
   57MOL   H13237204   2.862   0.600   6.949  0.0640 -0.4403  2.2362
   57MOL   H13337205   2.982   0.593   6.830  0.4723  1.3181  1.2385
   57MOL   C13437206   2.989   1.496   7.334 -0.6489 -0.4948  0.0796
   57MOL   C13537207   3.124   1.504   7.254  0.3101  0.4006  0.0993
   57MOL   C13637208   3.222   1.605   7.313  0.4298 -0.1725 -0.3112
   57MOL   C13737209   3.199   1.754   7.299  0.4250 -0.2097 -0.0344
   57MOL   C13837210   3.307   1.840   7.369 -0.7866 -0.3069  0.0626
   57MOL   C13937211   3.337   1.803   7.519  0.2618  0.2082  0.8467
   57MOL   C14037212   3.429   1.899   7.596 -0.2285  0.0112 -0.0218
   57MOL   C14137213   3.568   1.912   7.534 -0.5545 -0.5619 -0.1849
   57MOL   C14237214   3.669   1.985   7.617 -0.3941  1.1775  0.3089
   57MOL   C14337215   3.726   1.912   0.043  0.3978 -0.8869  1.5640
   57MOL   C14437216   3.813   1.793   0.004  0.2466  0.5638 -0.1213
   57MOL   H14537217   2.924   1.577   7.302  0.2016  0.3973  0.5907
   57MOL   H14637218   3.003   1.523   7.439  2.2775 -0.3406 -0.2966
   57MOL   H14737219   3.190   1.417   7.265  1.6636  1.3410 -0.3798
   57MOL   H14837220   3.324   1.579   7.283  0.6904  1.2731 -0.7188
   57MOL   H14937221   3.230   1.578   7.418  0.2692  1.8603  0.2413
   57MOL   H15037222   3.181   1.792   7.199 -2.4537  1.2410  0.9891
   57MOL   H15137223   3.103   1.770   7.348  0.8994  0.7614  0.5973
   57MOL   H15237224   3.400   1.828   7.313 -2.0877 -2.2130 -1.7445
   57MOL   H15337225   3.283   1.946   7.372 -0.4124 -0.2401  0.9447
   57MOL   H15437226   3.245   1.793   7.576 -0.1308 -2.7898 -0.2499
   57MOL   H15537227   3.390   1.709   7.531  1.6280  1.0136  1.2437
   57MOL   H15637228   3.373   1.993   7.596  0.1146  0.2168 -0.0671
   57MOL   H15737229   3.433   1.871   7.701 -2.3243 -0.0144  0.0852
   57MOL   H15837230   3.604   1.819   7.492 -0.3255  0.0955 -1.4737
   57MOL   H15937231   3.569   1.979   7.448 -1.7669 -2.7362 -1.9357
   57MOL   H16037232   3.753   2.010   7.551  0.6319  0.2605  1.2420
   57MOL   H16137233   3.630   2.078   7.657 -1.9317  0.5015  0.4173
   57MOL   H16237234   3.787   1.986   0.095  0.5186 -0.2145  0.4883
   57MOL   H16337235   3.645   1.892   0.113 -1.3428 -1.7694 -0.6590
   57MOL   H16437236   3.887   1.765   0.080  0.2486  1.6699  0.2881
   57MOL   H16537237   3.871   1.806   7.616  1.2907  0.2275  0.4856
   57MOL   H16637238   3.746   1.708   7.691  1.1261 -0.0150 -0.7294
   57MOL   C16737239   3.111   1.523   7.105 -0.1006  0.2735  0.3236
   57MOL   C16837240   3.236   1.479   7.021 -0.6672 -0.3703 -0.6912
   57MOL   C16937241   3.348   1.590   7.011  0.0709 -0.0511  0.1800
   57MOL   C17037242   3.494   1.550   7.040 -0.4261  0.6853  0.6995
   57MOL   C17137243   3.597   1.659   7.038  0.5699  0.5136  0.2303
   57MOL   C17237244   3.724   1.612   7.122  0.3396  0.0829  0.4505
   57MOL   C17337245   3.822   1.728   7.144  0.0199  0.3174  0.0630
   57MOL   C17437246   3.956   1.686   7.227 -0.7933  0.3146  1.3033
   57MOL   C17537247   4.050   1.799   7.262 -0.0604  0.5331  0.0469
   57MOL   C17637248   4.147   1.769   7.368  0.3140  0.1498 -0.7489
   57MOL   C17737249   4.237   1.888   7.403 -0.1119 -0.3160 -0.4573
   57MOL   H17837250   3.021   1.467   7.079  1.0970 -0.9802 -1.2369
   57MOL   H17937251   3.094   1.628   7.079 -2.2560  0.3387  1.8554
   57MOL   H18037252   3.276   1.389   7.068 -0.8731  0.1455  0.4709
   57MOL   H18137253   3.325   1.676   7.075 -0.0422 -0.9298  1.3508
   57MOL   H18237254   3.347   1.628   6.909  0.9733 -1.6360 -0.4351
   57MOL   H18337255   3.492   1.502   7.138  1.7083 -1.1725 -0.1055
   57MOL   H18437256   3.533   1.473   6.973  3.7201  2.4106  0.9903
   57MOL   H18537257   3.549   1.746   7.084 -1.3360 -1.1004  1.3730
   57MOL   H18637258   3.613   1.687   6.934 -1.1787 -1.9711 -0.7531
   57MOL   H18737259   3.685   1.572   7.215 -2.2324 -1.0729 -1.0677
   57MOL   H18837260   3.767   1.527   7.069  1.1431  0.0751  1.0899
   57MOL   H18937261   3.775   1.804   7.206 -2.0030 -0.1520 -0.8603
   57MOL   H19037262   3.853   1.771   7.049 -0.1060  1.4419  0.5214
   57MOL   H19137263   3.914   1.657   7.323  1.0716 -0.1791  1.9783
   57MOL   H19237264   4.013   1.610   7.174 -1.7774  0.5777 -0.1603
   57MOL   H19337265   3.997   1.892   7.281  0.9969  1.2109 -0.2920
   57MOL   H19437266   4.114   1.829   7.179 -0.4933  0.8179 -0.1797
   57MOL   H19537267   4.217   1.697   7.325  2.2859  0.8014  1.2666
   57MOL   H19637268   4.091   1.729   7.452 -0.4127  0.5143 -1.0590
   57MOL   H19737269   4.183   1.983   7.413  0.3401 -0.2423  1.3688
   57MOL   H19837270   4.310   1.901   7.323 -0.1091 -2.2576 -0.7957
   57MOL   H19937271   4.290   1.879   7.497  2.1146 -3.1979 -1.9246
   57MOL   C20037272   3.187   1.410   6.893 -0.2778 -0.0285  0.3282
   57MOL   C20137273   3.297   1.331   6.811  0.3322 -0.1416 -0.7009
   57MOL   C20237274   3.292   1.365   6.654 -0.3168 -0.3791  0.2037
   57MOL   C20337275   3.370   1.488   6.615  0.2468 -0.0142 -0.3402
   57MOL   C20437276   3.362   1.517   6.464 -0.4205 -0.3156  0.4375
   57MOL   C20537277   3.233   1.568   6.403  0.5018  0.0812  0.4155
   57MOL   C20637278   3.219   1.565   6.252 -0.8635 -0.3314 -0.1498
   57MOL   C20737279   3.089   1.631   6.190 -0.5663 -0.8387  0.5243
   57MOL   C20837280   3.091   1.620   6.040 -0.2752 -0.7774 -0.4322
   57MOL   C20937281   3.005   1.719   5.959 -0.0718  0.2654  0.3551
   57MOL   C21037282   3.076   1.846   5.923 -0.2730  0.0243  0.7772
   57MOL   H21137283   3.098   1.347   6.905  1.2694 -2.0443  1.6315
   57MOL   H21237284   3.142   1.495   6.841  0.1141  0.9001  1.4836
   57MOL   H21337285   3.400   1.354   6.837  0.4960 -1.4402 -0.1420
   57MOL   H21437286   3.187   1.378   6.627 -0.0318  1.6673  0.0237
   57MOL   H21537287   3.331   1.289   6.586  2.4761  0.5510  0.6966
   57MOL   H21637288   3.474   1.465   6.639  1.0353  2.4614 -1.1863
   57MOL   H21737289   3.350   1.577   6.674 -1.5738  0.0855 -1.0804
   57MOL   H21837290   3.398   1.429   6.410 -0.5935 -0.0016 -0.1929
   57MOL   H21937291   3.433   1.597   6.445  0.0538 -1.1414 -1.4261
   57MOL   H22037292   3.158   1.503   6.449  1.6030 -0.0014  2.1560
   57MOL   H22137293   3.206   1.669   6.433 -1.4464  0.0364 -1.1471
   57MOL   H22237294   3.228   1.466   6.206  1.2838 -0.2957  0.1573
   57MOL   H22337295   3.310   1.612   6.215  0.2618 -0.5275  2.2789
   57MOL   H22437296   3.104   1.733   6.225  2.5625 -0.6899 -1.0702
   57MOL   H22537297   2.999   1.586   6.232 -0.7327 -0.7808  0.2282
   57MOL   H22637298   3.059   1.521   6.006 -1.0747 -0.6050 -0.2112
   57MOL   H22737299   3.192   1.629   6.002 -0.5093  1.9470 -0.5238
   57MOL   H22837300   2.980   1.669   5.866 -1.1023  1.6114 -0.1105
   57MOL   H22937301   2.917   1.745   6.017 -1.5741 -1.2221 -1.2198
   57MOL   H23037302   3.151   1.827   5.847 -1.3844  0.0485 -0.3440
   57MOL   H23137303   3.116   1.905   6.006  1.5950 -1.3868  0.8993
   57MOL   H23237304   3.004   1.904   5.864 -0.1399 -2.2056 -1.6255
   57MOL   C23337305   3.287   1.180   6.832  0.3389  0.2994 -0.3986
   57MOL   C23437306   3.399   1.092   6.772  0.1637  0.5309  0.1478
   57MOL   C23537307   3.356   0.945   6.741  0.8072 -0.1384  0.8612
   57MOL   C23637308   3.272   0.941   6.610 -0.4509 -0.1455  0.3144
   57MOL   C23737309   3.228   0.798   6.573  0.3047  0.3245 -0.8968
   57MOL   C23837310   3.347   0.688   6.546  0.8652 -0.1811 -0.0691
   57MOL   C23937311   3.303   0.558   6.480  0.5233  0.5961  0.5783
   57MOL   C24037312   3.241   0.462   6.575  0.4594  0.9948  0.5429
   57MOL   C24137313   3.207   0.322   6.525 -0.2737  0.1250  0.0321
   57MOL   C24237314   3.151   0.223   6.633  0.1970 -0.3936  0.3682
   57MOL   C24337315   3.084   0.101   6.570 -0.0738 -0.2767 -0.0363
   57MOL   H24437316   3.193   1.149   6.786 -0.6750  0.6544  1.3807
   57MOL   H24537317   3.285   1.157   6.939 -0.9895 -0.3467 -0.5476
   57MOL   H24637318   3.434   1.127   6.674 -0.5676  3.3826  0.8610
   57MOL   H24737319   3.432   0.867   6.738 -0.7062 -1.5594 -1.7108
   57MOL   H24837320   3.301   0.914   6.830 -0.4912  0.7031  0.3784
   57MOL   H24937321   3.335   0.975   6.528 -0.7870  0.1710  0.1893
   57MOL   H25037322   3.186   1.006   6.622  0.5287  1.6685 -2.1980
   57MOL   H25137323   3.160   0.814   6.489  1.0535  2.5700 -1.1262
   57MOL   H25237324   3.175   0.757   6.658  0.2820  3.4169  0.6580
   57MOL   H25337325   3.411   0.679   6.634  3.8767  0.3872 -2.1580
   57MOL   H25437326   3.416   0.722   6.469 -0.2648 -0.5512 -1.2658
   57MOL   H25537327   3.233   0.582   6.400 -1.3684  0.2827  2.0983
   57MOL   H25637328   3.392   0.512   6.438  0.5631  0.7347  0.5116
   57MOL   H25737329   3.318   0.459   6.653 -1.1048 -1.4824  2.0721
   57MOL   H25837330   3.156   0.506   6.627 -0.2690 -0.6241  0.7472
   57MOL   H25937331   3.135   0.326   6.443  0.4088  0.9556 -0.5371
   57MOL   H26037332   3.292   0.287   6.466 -0.0502  0.1829  0.3196
   57MOL   H26137333   3.072   0.272   6.690 -1.2232 -2.3350  0.0782
   57MOL   H26237334   3.224   0.197   6.710 -0.6037 -1.3161  0.8252
   57MOL   H26337335   3.019   0.044   6.635 -2.7113  0.6086 -1.8119
   57MOL   H26437336   3.153   0.028   6.527  0.6494  0.8966 -0.9290
   57MOL   H26537337   3.014   0.136   6.494  1.3608  2.5133 -0.1649
   57MOL   C26637338   3.523   1.096   6.863  0.0720  0.3136 -0.2818
   57MOL   C26737339   3.647   1.032   6.802 -0.0743 -0.6025 -0.4459
   57MOL   C26837340   3.756   1.021   6.912 -0.3538  1.1106  0.3709
   57MOL   C26937341   3.716   0.922   7.025 -0.8162 -0.0688 -0.9208
   57MOL   C27037342   3.693   0.989   7.166  0.5325  0.3055  0.6050
   57MOL   C27137343   3.821   1.045   7.233 -0.7069 -0.2999 -0.1733
   57MOL   C27237344   3.793   1.148   7.337  0.3385  0.5544  0.0885
   57MOL   C27337345   3.918   1.215   7.388 -0.1374  0.2145 -0.4454
   57MOL   C27437346   3.878   1.329   7.481 -0.0769 -0.4611 -0.2446
   57MOL   C27537347   3.998   1.418   7.532  0.4766 -0.1161 -0.6630
   57MOL   C27637348   4.117   1.341   7.581 -0.1844 -0.2377  0.2898
   57MOL   H27737349   3.490   1.044   6.953  1.8979  0.3896  0.4615
   57MOL   H27837350   3.536   1.198   6.900  2.0611 -0.1665  0.3817
   57MOL   H27937351   3.626   0.935   6.757 -1.5279  0.5993 -2.4442
   57MOL   H28037352   3.835   0.961   6.866  0.2967  1.9509  0.3635
   57MOL   H28137353   3.789   1.121   6.940 -0.6007  1.1522  0.5129
   57MOL   H28237354   3.778   0.834   7.041 -0.5228  0.7014  2.6438
   57MOL   H28337355   3.619   0.877   7.002 -1.4055  0.8690 -0.3407
   57MOL   H28437356   3.650   0.913   7.232  1.2718 -0.5023  0.1720
   57MOL   H28537357   3.617   1.067   7.163  0.4545  0.1969 -0.5939
   57MOL   H28637358   3.875   1.103   7.158 -2.5231  1.5234 -0.1159
   57MOL   H28737359   3.875   0.964   7.282  0.2157  0.7048  0.5106
   57MOL   H28837360   3.727   1.221   7.290 -2.3629 -3.1885 -2.1586
   57MOL   H28937361   3.746   1.104   7.425  0.7442  0.1053  0.0794
   57MOL   H29037362   3.974   1.254   7.303 -0.4595  0.1921 -0.6669
   57MOL   H29137363   3.983   1.152   7.449 -1.9705 -2.3693 -1.1034
   57MOL   H29237364   3.800   1.397   7.447 -1.8005 -1.7662  0.9388
   57MOL   H29337365   3.833   1.281   7.568  0.4422  0.1709  0.3789
   57MOL   H29437366   3.962   1.487   7.608 -1.8889  0.2064 -2.0394
   57MOL   H29537367   4.025   1.473   7.442 -2.1333 -0.5581 -1.7510
   57MOL   H29637368   4.189   1.413   7.620 -0.7350  0.6465 -0.3304
   57MOL   H29737369   4.162   1.290   7.495 -1.8311 -0.7273 -0.3005
   57MOL   H29837370   4.103   1.272   7.664 -3.3986 -0.5501 -0.4512
   57MOL   C29937371   3.691   1.118   6.683 -0.7425  0.1404 -0.3932
   57MOL   C30037372   3.836   1.078   6.627 -0.0539 -0.4301  0.3502
   57MOL   C30137373   3.853   1.142   6.482  0.0891  0.0165 -0.0255
   57MOL   C30237374   3.915   1.280   6.495  0.4198  0.1583  0.0888
   57MOL   C30337375   3.930   1.369   6.377  0.1190 -0.5515  0.3345
   57MOL   C30437376   3.791   1.426   6.325  0.1882 -0.2103 -0.6147
   57MOL   C30537377   3.794   1.538   6.219  0.0395 -0.4293 -0.0299
   57MOL   C30637378   3.659   1.557   6.152 -0.1925  0.1481  0.1250
   57MOL   C30737379   3.659   1.662   6.044 -1.2946  0.4062  0.3291
   57MOL   C30837380   3.529   1.673   5.974  0.5447 -0.1397 -0.6832
   57MOL   C30937381   3.522   1.775   5.863  0.6707  0.7299  0.1622
   57MOL   H31037382   3.694   1.223   6.712  0.0180 -0.0839  0.3603
   57MOL   H31137383   3.620   1.100   6.603 -0.7676  3.7548 -1.2976
   57MOL   H31237384   3.918   1.114   6.688  1.7258 -0.7745 -1.7836
   57MOL   H31337385   3.919   1.077   6.423  0.6940 -0.0939  0.7691
   57MOL   H31437386   3.760   1.138   6.425 -1.0179 -3.4525  1.8144
   57MOL   H31537387   3.857   1.333   6.570  1.6865  0.1454  1.0856
   57MOL   H31637388   4.012   1.268   6.542  0.2847 -3.0944 -0.3103
   57MOL   H31737389   4.000   1.448   6.404  2.2277 -1.9632 -0.8286
   57MOL   H31837390   3.981   1.310   6.301  0.3640  0.1690 -0.0703
   57MOL   H31937391   3.728   1.453   6.410 -0.6569 -1.4186 -0.8367
   57MOL   H32037392   3.732   1.343   6.287  0.3576 -0.2251 -0.8492
   57MOL   H32137393   3.820   1.628   6.276  1.1462 -0.7586 -0.0073
   57MOL   H32237394   3.869   1.532   6.141  0.6294 -2.1836  0.6695
   57MOL   H32337395   3.576   1.581   6.218  0.2273 -0.5830  0.9312
   57MOL   H32437396   3.625   1.465   6.104  2.0258  0.6474 -2.5396
   57MOL   H32537397   3.735   1.641   5.969 -2.7080  1.4608 -1.4190
   57MOL   H32637398   3.690   1.756   6.090 -1.4269  0.5803  0.0642
   57MOL   H32737399   3.442   1.684   6.039 -1.2808  0.1081 -3.0859
   57MOL   H32837400   3.528   1.574   5.928  2.0565 -0.2113 -0.6121
   57MOL   H32937401   3.428   1.776   5.807  1.2144 -1.5910 -0.8218
   57MOL   H33037402   3.537   1.871   5.914  1.4943  0.6468  0.0772
   57MOL   H33137403   3.611   1.758   5.803  0.0882  1.2021 -0.8514
   57MOL   C33237404   3.857   0.921   6.599 -0.5226 -0.5507  0.1300
   57MOL   C33337405   4.003   0.864   6.594 -0.0661 -0.7098 -0.0924
   57MOL   C33437406   4.005   0.739   6.501  0.1763 -0.4812 -0.0531
   57MOL   C33537407   3.985   0.772   6.351  0.6147 -0.1393  0.8639
   57MOL   C33637408   3.959   0.646   6.269  0.2407  0.1361 -0.3177
   57MOL   C33737409   3.934   0.680   6.121  0.1716  0.4465  0.2728
   57MOL   C33837410   3.787   0.736   6.101  0.2951  0.3785 -0.2571
   57MOL   C33937411   3.771   0.791   5.953  0.0008 -0.3586 -0.2574
   57MOL   C34037412   3.770   0.681   5.854 -0.0941 -0.3039  0.1025
   57MOL   C34137413   3.696   0.706   5.728  0.1613 -0.4540 -0.3428
   57MOL   C34237414   3.702   0.591   5.628 -0.2421 -0.4665 -0.4277
   57MOL   H34337415   3.816   0.860   6.680 -0.0840 -2.2522 -0.8855
   57MOL   H34437416   3.792   0.896   6.516  1.0499 -0.8053 -1.0621
   57MOL   H34537417   4.063   0.940   6.543 -1.2268  1.2246  1.3501
   57MOL   H34637418   3.939   0.654   6.521 -0.3107  0.1206  0.9340
   57MOL   H34737419   4.104   0.695   6.510  0.6705  0.1598 -2.2418
   57MOL   H34837420   3.885   0.815   6.340  0.6454 -0.1734  0.4429
   57MOL   H34937421   4.064   0.828   6.302  2.3112 -1.6913  1.7877
   57MOL   H35037422   4.046   0.580   6.269  0.9688  1.0650  0.8818
   57MOL   H35137423   3.875   0.587   6.307 -0.4678  0.3328 -1.5632
   57MOL   H35237424   3.940   0.586   6.066 -2.4945  0.6552 -0.4731
   57MOL   H35337425   4.013   0.738   6.074 -0.8661  2.2042  0.6753
   57MOL   H35437426   3.778   0.821   6.168  1.4193 -1.9633  2.9765
   57MOL   H35537427   3.709   0.665   6.129  0.1935  1.1871  1.5991
   57MOL   H35637428   3.678   0.846   5.944  0.1477  0.2151  1.5182
   57MOL   H35737429   3.844   0.867   5.923 -1.2260  0.2995 -1.6325
   57MOL   H35837430   3.731   0.588   5.896  2.0323 -1.7824 -1.0910
   57MOL   H35937431   3.873   0.655   5.830  0.7451  1.5187  1.5706
   57MOL   H36037432   3.740   0.793   5.680 -0.7705  1.1986  1.6979
   57MOL   H36137433   3.590   0.728   5.740  0.0423 -1.3570  0.4016
   57MOL   H36237434   3.629   0.594   5.547 -0.4660 -0.1515 -0.2160
   57MOL   H36337435   3.802   0.587   5.585 -0.3918  1.1945 -1.0059
   57MOL   H36437436   3.683   0.498   5.680 -0.0232 -1.5941 -2.3215
   57MOL   C36537437   4.051   0.835   6.739 -0.8716 -0.4765  0.0956
   57MOL   C36637438   4.204   0.796   6.756  0.4540 -0.4533 -0.1439
   57MOL   C36737439   4.302   0.888   6.685 -0.5724  0.6717  0.3420
   57MOL   C36837440   4.297   1.031   6.731  0.5879 -0.4577 -0.5474
   57MOL   C36937441   4.370   1.116   6.635 -0.0222  0.2840  0.6115
   57MOL   C37037442   4.341   1.266   6.661 -0.1209  0.5011 -0.1727
   57MOL   C37137443   4.426   1.353   6.573 -0.3384 -0.2686  0.9152
   57MOL   C37237444   4.416   1.499   6.587 -0.4811 -0.3960  0.5317
   57MOL   C37337445   4.297   1.564   6.526 -0.2200  0.0974 -0.7589
   57MOL   C37437446   4.266   1.702   6.585 -0.1050  0.6427 -0.4465
   57MOL   C37537447   4.164   1.780   6.503 -0.7225 -0.3172  0.0879
   57MOL   H37637448   4.035   0.924   6.800  1.0918 -0.1349  0.1465
   57MOL   H37737449   3.992   0.749   6.769 -0.5374 -0.2276  1.4764
   57MOL   H37837450   4.221   0.698   6.710 -1.0513 -0.7303 -0.1158
   57MOL   H37937451   4.280   0.880   6.579 -0.8504  0.4868  0.4123
   57MOL   H38037452   4.409   0.864   6.693 -0.7355 -0.2789 -0.2128
   57MOL   H38137453   4.355   1.046   6.822  0.2031 -1.5590 -0.1172
   57MOL   H38237454   4.197   1.068   6.756  1.8373  2.0993  0.8724
   57MOL   H38337455   4.322   1.113   6.537 -1.0341  1.3322  1.0565
   57MOL   H38437456   4.475   1.091   6.620 -0.1312 -0.6625  1.3996
   57MOL   H38537457   4.367   1.268   6.767 -0.1461 -2.3758 -0.0692
   57MOL   H38637458   4.235   1.290   6.663 -0.2282  0.0816 -0.6682
   57MOL   H38737459   4.531   1.335   6.599 -0.1983  0.3108  0.7515
   57MOL   H38837460   4.418   1.335   6.466  3.8855  1.5442  0.1898
   57MOL   H38937461   4.505   1.546   6.544 -0.4668 -1.9828 -1.2370
   57MOL   H39037462   4.420   1.530   6.691 -0.3017  1.3880  0.0210
   57MOL   H39137463   4.303   1.575   6.417 -2.2046 -1.1911 -1.0327
   57MOL   H39237464   4.205   1.507   6.540  1.5772 -2.0950  2.9452
   57MOL   H39337465   4.228   1.690   6.686  1.9164  1.2536  0.4167
   57MOL   H39437466   4.358   1.760   6.591  0.3715 -0.1436 -0.1929
   57MOL   H39537467   4.146   1.881   6.541 -0.2891  0.4032 -1.6087
   57MOL   H39637468   4.069   1.729   6.521  0.3685 -1.5658  2.5385
   57MOL   H39737469   4.184   1.801   6.398  1.5829 -0.0835  0.5511
   57MOL   C39837470   4.234   0.781   6.911 -0.2158 -0.2106 -0.6166
   57MOL   C39937471   4.166   0.651   6.975  0.1976 -0.7873  0.1827
   57MOL   C40037472   4.080   0.709   7.088 -0.4263 -0.3601  0.1019
   57MOL   C40137473   4.005   0.610   7.174 -0.1069 -0.6193 -0.0904
   57MOL   C40237474   3.910   0.508   7.119 -0.5003 -0.1536  0.2104
   57MOL   C40337475   3.849   0.416   7.225  0.1017 -0.3376 -0.3760
   57MOL   C40437476   3.802   0.292   7.163  0.0904 -0.4130 -0.4618
   57MOL   C40537477   3.906   0.197   7.105 -0.2604 -0.1137  0.4282
   57MOL   C40637478   3.842   0.078   7.020  0.2297  0.9225 -0.0756
   57MOL   C40737479   3.735   7.694   7.087 -0.2314  0.6007 -0.5440
   57MOL   C40837480   3.705   7.586   6.986 -0.4603  0.1245 -0.2774
   57MOL   H40937481   4.209   0.877   6.956 -1.1614  1.1928 -3.9327
   57MOL   H41037482   4.341   0.776   6.931  0.0017  1.8212 -1.0976
   57MOL   H41137483   4.104   0.608   6.896 -1.6162 -0.5284  1.4390
   57MOL   H41237484   4.008   0.780   7.048 -1.3652 -0.6720  1.2147
   57MOL   H41337485   4.137   0.759   7.167 -1.4540 -0.9880  1.2637
   57MOL   H41437486   4.078   0.549   7.227  1.0076  0.4512 -0.3897
   57MOL   H41537487   3.948   0.652   7.257 -0.1815 -1.8176  0.4695
   57MOL   H41637488   3.830   0.566   7.074 -1.5130 -1.4748  0.2658
   57MOL   H41737489   3.951   0.456   7.032 -1.3334  0.8057 -0.7754
   57MOL   H41837490   3.768   0.476   7.267 -0.5064 -0.8452 -0.8120
   57MOL   H41937491   3.917   0.416   7.310  0.4891  0.8924 -0.6715
   57MOL   H42037492   3.730   0.245   7.231  0.6058  0.0077  0.3876
   57MOL   H42137493   3.732   0.318   7.083 -0.7437 -1.6774 -0.1587
   57MOL   H42237494   3.963   0.148   7.184  1.7264  0.4611 -0.6090
   57MOL   H42337495   3.984   0.246   7.045 -1.1915 -0.5360 -1.1519
   57MOL   H42437496   3.787   0.121   6.937 -0.0251  1.9444  0.6130
   57MOL   H42537497   3.926   0.022   6.979  0.6889  1.6198 -0.0964
   57MOL   H42637498   3.644   0.047   7.109 -0.1945  0.3744  0.1798
   57MOL   H42737499   3.782   7.661   7.180 -0.0885  2.3904  0.0392
   57MOL   H42837500   3.654   7.621   6.897  1.0186  1.9542 -0.4450
   57MOL   H42937501   3.641   7.508   7.028 -2.6134  2.4563  0.8636
   57MOL   H43037502   3.795   7.543   6.942 -0.2831 -0.7293  0.8649
   57MOL   C43137503   4.264   0.542   7.034 -0.6034 -0.3332  0.8134
   57MOL   C43237504   4.370   0.490   6.936  0.0669 -0.8234  0.3662
   57MOL   C43337505   4.310   0.432   6.806  0.2682 -0.1167  0.5261
   57MOL   C43437506   4.405   0.407   6.692  0.3402 -0.5683  0.1608
   57MOL   C43537507   4.341   0.380   6.553  0.0435  0.1029  0.2709
   57MOL   C43637508   4.439   0.312   6.449 -0.4970  0.2047 -0.3682
   57MOL   C43737509   4.358   0.245   6.337 -0.1333  0.4256  0.2778
   57MOL   C43837510   4.442   0.167   6.230 -0.1083 -0.0034  0.7339
   57MOL   C43937511   4.349   0.139   6.110  0.0163  0.5677  0.1852
   57MOL   C44037512   4.430   0.104   5.983  0.4015 -0.0639  0.2114
   57MOL   C44137513   4.360   0.014   5.882  0.2029 -0.8001 -0.4925
   57MOL   H44237514   4.205   0.458   7.070 -0.6736 -1.4648 -1.8264
   57MOL   H44337515   4.305   0.585   7.126  0.4034  0.1001  0.1652
   57MOL   H44437516   4.438   0.573   6.918 -2.1644  1.3344  1.4935
   57MOL   H44537517   4.246   0.347   6.833  0.2318 -0.6990 -1.3414
   57MOL   H44637518   4.232   0.495   6.763  0.4708 -0.0092  0.3202
   57MOL   H44737519   4.464   0.321   6.723  1.4148  0.8368  2.1762
   57MOL   H44837520   4.481   0.485   6.683 -0.1726 -0.1741 -0.8644
   57MOL   H44937521   4.308   0.476   6.514 -0.5769 -1.1252 -2.3747
   57MOL   H45037522   4.257   0.314   6.574 -0.4870  1.2430  1.8229
   57MOL   H45137523   4.499   0.237   6.501 -0.0546  1.8602  1.5411
   57MOL   H45237524   4.498   0.391   6.403 -1.6841  0.8014 -0.8974
   57MOL   H45337525   4.296   0.325   6.298  2.2277  1.2997 -1.8872
   57MOL   H45437526   4.301   0.170   6.392 -1.0613  1.0653  0.1937
   57MOL   H45537527   4.522   0.233   6.198 -1.0594  0.6325 -0.3560
   57MOL   H45637528   4.488   0.073   6.262  0.9456  1.2987  3.2266
   57MOL   H45737529   4.282   0.221   6.087 -1.6929 -1.5155 -2.5576
   57MOL   H45837530   4.290   0.050   6.132  0.9080  0.3276  1.6842
   57MOL   H45937531   4.528   0.065   6.012  0.9314  0.4998 -0.7909
   57MOL   H46037532   4.453   0.203   5.942 -2.1964  0.9168  1.0117
   57MOL   H46137533   4.294   0.065   5.812 -0.9758 -1.1500  0.3443
   57MOL   H46237534   4.430   7.682   5.806 -0.7924  0.1025 -1.8527
   57MOL   H46337535   4.320   7.628   5.931  2.2230 -1.6611 -0.3557
   57MOL   C46437536   4.452   0.385   7.007  0.3008 -0.4667  0.5054
   57MOL   C46537537   4.532   0.419   7.134 -0.4326 -0.6371  0.5447
   57MOL   C46637538   4.582   0.292   7.206  0.1412  0.7306 -0.0613
   57MOL   C46737539   4.643   0.303   7.348 -0.3299 -0.1785  0.3183
   57MOL   C46837540   4.724   0.181   7.377 -0.0581  0.2085 -0.2699
   57MOL   C46937541   4.767   0.184   7.526 -0.4201 -0.3667 -0.1708
   57MOL   C47037542   4.895   0.116   7.548 -0.3304  0.3699  0.1922
   57MOL   C47137543   4.948   0.156   7.686  0.0154 -0.3200  0.1321
   57MOL   C47237544   5.095   0.107   0.002 -0.2446  0.1323  0.8690
   57MOL   C47337545   5.169   0.176   0.121 -0.2059 -0.3268 -0.3707
   57MOL   C47437546   5.314   0.111   0.139  0.3436  0.0057  0.0467
   57MOL   H47537547   4.515   0.327   6.939 -0.2148  1.5785 -1.7720
   57MOL   H47637548   4.383   0.310   7.046  0.8982 -1.7505 -0.8710
   57MOL   H47737549   4.468   0.465   7.210 -0.6931 -1.0543  0.5798
   57MOL   H47837550   4.645   0.247   7.129 -1.8046 -0.7921 -0.8124
   57MOL   H47937551   4.498   0.223   7.210 -0.4606  1.4129 -0.6639
   57MOL   H48037552   4.705   0.392   7.342  1.5743 -1.4295  0.7164
   57MOL   H48137553   4.571   0.322   7.427 -1.1256  0.4392 -0.5532
   57MOL   H48237554   4.815   0.192   7.317  0.3506  0.9673  0.4674
   57MOL   H48337555   4.658   0.100   7.347 -0.1638  0.1914  0.0122
   57MOL   H48437556   4.773   0.286   7.565 -0.9939 -1.1721  2.1254
   57MOL   H48537557   4.697   0.131   7.591  0.9212 -0.0343  1.5635
   57MOL   H48637558   4.891   0.007   7.546 -0.3217  0.3184  2.0098
   57MOL   H48737559   4.972   0.146   7.477 -0.0359 -2.3546 -0.7201
   57MOL   H48837560   4.939   0.263   0.000 -3.0460 -0.6339  0.8258
   57MOL   H48937561   4.893   0.117   0.069 -0.4179 -0.6479 -0.2847
   57MOL   H49037562   5.083   7.703   0.012 -0.3361  0.0372 -0.3067
   57MOL   H49137563   5.154   0.133   7.617 -2.8925  0.0824 -0.9403
   57MOL   H49237564   5.165   0.285   0.127  0.5334 -0.1811 -2.1503
   57MOL   H49337565   5.112   0.148   0.210  0.0060 -1.4448 -0.5791
   57MOL   H49437566   5.308   0.003   0.126 -2.0104  0.0552  0.5447
   57MOL   H49537567   5.357   0.143   0.234 -0.9096  1.1181  0.2565
   57MOL   H49637568   5.375   0.150   0.058  1.9874 -1.8647  0.3690
   57MOL   C49737569   4.647   0.518   7.094 -0.6452 -0.0601 -0.7296
   57MOL   C49837570   4.632   0.662   7.138 -0.5300  0.0657 -0.2711
   57MOL   C49937571   4.742   0.745   7.066 -0.3127 -0.0052 -0.4042
   57MOL   C50037572   4.707   0.783   6.927 -0.7417 -0.0104  0.0458
   57MOL   C50137573   4.807   0.872   6.852  0.1650  0.2760  0.3553
   57MOL   C50237574   4.753   0.957   6.734 -0.4396 -0.2588 -0.2832
   57MOL   C50337575   4.869   1.015   6.651  0.2605 -0.0218 -0.7223
   57MOL   C50437576   4.829   1.091   6.519  0.5709  0.3361  0.3120
   57MOL   C50537577   4.955   1.136   6.436 -0.1291 -0.4559  0.0035
   57MOL   C50637578   5.064   1.215   6.517 -0.4008 -0.4741 -0.1246
   57MOL   C50737579   5.178   1.279   6.431 -0.0852  0.5564  0.9743
   57MOL   H50837580   4.736   0.467   7.132 -0.3508  1.8490  1.1823
   57MOL   H50937581   4.651   0.521   6.985 -1.0553 -0.2287 -0.7508
   57MOL   H51037582   4.529   0.687   7.113  0.1633  1.5278 -1.7823
   57MOL   H51137583   4.833   0.685   7.070  1.6782  2.6364 -3.5344
   57MOL   H51237584   4.772   0.826   7.132  2.3088 -1.1565 -0.1345
   57MOL   H51337585   4.614   0.840   6.930  0.5523  2.1304  1.5172
   57MOL   H51437586   4.696   0.695   6.864  2.4795  0.2356 -0.9470
   57MOL   H51537587   4.852   0.937   6.926  0.9692  1.8232 -1.4472
   57MOL   H51637588   4.885   0.807   6.812  0.8370  0.8103  0.7856
   57MOL   H51737589   4.689   0.905   6.663 -0.4025 -1.4196  0.5364
   57MOL   H51837590   4.684   1.036   6.764  0.4159  0.8491 -1.1744
   57MOL   H51937591   4.925   1.079   6.719 -0.0595 -1.9472  1.3782
   57MOL   H52037592   4.929   0.931   6.616 -1.9520 -0.7301 -2.9624
   57MOL   H52137593   4.774   1.184   6.533 -0.0311  0.1997 -1.0788
   57MOL   H52237594   4.767   1.024   6.459 -0.7759 -0.1225  2.1881
   57MOL   H52337595   4.920   1.215   6.370 -1.6797  0.4407  1.8342
   57MOL   H52437596   4.988   1.059   6.368  1.1068  0.5304 -0.5429
   57MOL   H52537597   5.105   1.154   6.597 -2.1172 -1.6755 -0.1324
   57MOL   H52637598   5.007   1.287   6.574 -1.0371 -0.1704 -1.1222
   57MOL   H52737599   5.266   1.292   6.494  0.4760 -0.8427  0.5013
   57MOL   H52837600   5.150   1.375   6.388 -1.7518 -0.9033 -1.2950
   57MOL   H52937601   5.207   1.219   6.345  0.4177  1.8429  0.2410
   57MOL   C53037602   4.653   0.683   7.288  0.4264  0.0946  0.6675
   57MOL   C53137603   4.600   0.819   7.347  0.4100  0.3179 -0.1132
   57MOL   C53237604   4.679   0.855   7.480  0.0546  0.0208 -0.4140
   57MOL   C53337605   4.816   0.919   7.449 -1.1495 -0.1929 -0.7213
   57MOL   C53437606   4.895   0.971   7.571 -0.6173 -0.0410 -0.4407
   57MOL   C53537607   4.951   1.108   7.553 -0.2962 -0.0265 -0.1401
   57MOL   C53637608   5.060   1.152   7.658 -0.4168 -0.2288 -0.5217
   57MOL   C53737609   5.002   1.165   0.101 -0.5419  0.1685  0.1879
   57MOL   C53837610   5.094   1.247   0.193 -0.0284  0.3029  0.2689
   57MOL   C53937611   5.034   1.251   0.332 -0.3071  0.3745 -0.2987
   57MOL   C54037612   5.131   1.324   0.425 -0.6511  0.4330  0.3103
   57MOL   H54137613   4.602   0.599   7.335 -1.2707  1.6772  1.7320
   57MOL   H54237614   4.758   0.669   7.311 -0.0694 -0.3630  2.7337
   57MOL   H54337615   4.613   0.898   7.272  0.4831  1.1128  0.7239
   57MOL   H54437616   4.669   0.766   7.542 -1.7817  0.0901 -0.5721
   57MOL   H54537617   4.619   0.935   7.525 -1.6019 -0.1355 -2.2980
   57MOL   H54637618   4.808   1.000   7.376 -0.5400  1.9095  1.4712
   57MOL   H54737619   4.887   0.851   7.401 -0.6942 -1.3612  1.5825
   57MOL   H54837620   4.983   0.909   7.586 -1.3333 -0.5387  1.9423
   57MOL   H54937621   4.831   0.967   7.659 -0.2043 -1.7950 -0.2005
   57MOL   H55037622   4.863   1.171   7.564 -0.4792 -0.3626  0.3901
   57MOL   H55137623   4.986   1.120   7.451 -0.4412 -2.5032 -0.5169
   57MOL   H55237624   5.097   1.248   7.622 -0.2692 -0.4679 -1.0197
   57MOL   H55337625   5.139   1.076   7.656 -1.3452 -1.2164 -0.3901
   57MOL   H55437626   4.975   1.067   0.138  1.2237 -0.2925  0.3258
   57MOL   H55537627   4.912   1.223   0.082  0.1515  1.5497  1.0039
   57MOL   H55637628   5.119   1.346   0.156  1.3985  0.7929  2.4248
   57MOL   H55737629   5.187   1.190   0.199  0.5683  1.3123  0.7743
   57MOL   H55837630   5.034   1.152   0.377  3.6344  0.4439  0.0278
   57MOL   H55937631   4.934   1.296   0.335  0.3376  1.8435 -0.4242
   57MOL   H56037632   5.100   1.329   0.530 -3.4519  1.1704 -0.4941
   57MOL   H56137633   5.230   1.279   0.419 -0.2663  1.2769  0.2261
   57MOL   H56237634   5.135   1.424   0.383  2.1264 -0.2651 -1.1612
   57MOL   C56337635   4.450   0.823   7.365  0.1393  0.5465  0.8539
   57MOL   C56437636   4.386   0.960   7.369  0.1995  1.1496  0.3562
   57MOL   C56537637   4.266   0.959   7.466  0.8597 -0.7439 -0.3617
   57MOL   C56637638   4.299   0.946   7.617  0.6551  0.1036 -0.4159
   57MOL   C56737639   4.369   1.065   7.683  0.3488 -0.1204 -0.3714
   57MOL   C56837640   4.415   1.047   0.132  0.7075 -0.0848 -0.3496
   57MOL   C56937641   4.510   0.932   0.166 -0.0402 -0.3456 -0.0531
   57MOL   C57037642   4.549   0.905   0.311 -0.2618 -0.3415  0.4132
   57MOL   C57137643   4.658   0.999   0.375 -0.2256  0.0891  0.1365
   57MOL   C57237644   4.678   0.956   0.528  0.5293  0.8302 -0.5495
   57MOL   C57337645   4.799   1.029   0.600  0.5441 -0.4309 -0.4201
   57MOL   H57437646   4.416   0.754   7.443 -2.8170  1.3653  0.3641
   57MOL   H57537647   4.399   0.765   7.288  2.8808 -0.0760 -0.5367
   57MOL   H57637648   4.461   1.030   7.407  1.0316 -0.9650  2.7281
   57MOL   H57737649   4.196   0.881   7.437 -1.3172  0.1408  2.3884
   57MOL   H57837650   4.205   1.047   7.444  1.7866 -0.6788 -2.8834
   57MOL   H57937651   4.367   0.863   7.634  0.5951  0.0477 -0.4487
   57MOL   H58037652   4.208   0.925   7.673  0.2458 -0.7892 -1.3955
   57MOL   H58137653   4.299   1.147   7.696 -0.6496 -1.1704  1.0425
   57MOL   H58237654   4.446   1.108   7.620  1.2942 -1.4115 -0.1106
   57MOL   H58337655   4.464   1.140   0.161  0.6853 -0.6096  1.4068
   57MOL   H58437656   4.328   1.030   0.194  2.0116 -1.2451  1.2232
   57MOL   H58537657   4.456   0.846   0.124 -0.3431  1.0456 -2.6244
   57MOL   H58637658   4.604   0.941   0.112  0.1268  2.7856  0.7109
   57MOL   H58737659   4.586   0.805   0.331  0.5769  0.4939  3.4413
   57MOL   H58837660   4.459   0.891   0.371  0.3322  0.0269  1.4191
   57MOL   H58937661   4.645   1.107   0.374  0.9998  0.2450 -0.1037
   57MOL   H59037662   4.757   0.973   0.338  0.7170  1.1741  1.8351
   57MOL   H59137663   4.702   0.850   0.538 -1.8243  0.1395 -1.9882
   57MOL   H59237664   4.586   0.969   0.586  1.1427  1.7668  0.2448
   57MOL   H59337665   4.794   1.135   0.623  0.3974 -0.2357 -1.3432
   57MOL   H59437666   4.812   0.970   0.691 -2.5773 -0.2926  0.1616
   57MOL   H59537667   4.890   1.017   0.542  0.4906  0.7975 -0.7721
   57MOL   C59637668   4.340   1.003   7.224 -0.2841 -0.7352  0.3976
   57MOL   C59737669   4.341   1.153   7.198 -0.4599 -0.0082 -0.9044
   57MOL   C59837670   4.250   1.189   7.071 -0.2149  0.5725  0.1096
   57MOL   C59937671   4.197   1.332   7.069 -0.1183 -0.5169 -0.0808
   57MOL   C60037672   4.106   1.342   6.946 -0.2080  0.0693 -0.3241
   57MOL   C60137673   4.066   1.486   6.910 -0.3915  0.4438  0.7241
   57MOL   C60237674   3.964   1.502   6.804  0.4186  0.1574  0.8401
   57MOL   C60337675   3.918   1.646   6.775 -1.1928 -0.3974 -0.2892
   57MOL   C60437676   3.790   1.656   6.678  0.0733  0.5089 -0.1335
   57MOL   C60537677   3.752   1.802   6.643  0.6154 -0.9789 -1.2914
   57MOL   C60637678   3.664   1.870   6.740  0.1322  0.2166 -0.3914
   57MOL   H60737679   4.397   0.969   7.138 -0.6171  2.7065 -1.2670
   57MOL   H60837680   4.243   0.955   7.207 -1.0280  1.3008 -1.3117
   57MOL   H60937681   4.291   1.203   7.281  0.3324  0.7033 -0.8504
   57MOL   H61037682   4.160   1.127   7.068  0.0479  0.1045  1.3439
   57MOL   H61137683   4.306   1.171   6.979 -4.1419  0.2239 -2.3269
   57MOL   H61237684   4.276   1.407   7.069 -0.4604 -0.1314  1.8774
   57MOL   H61337685   4.144   1.351   7.162  1.5572  1.6969  0.4568
   57MOL   H61437686   4.016   1.280   6.956 -0.9035  0.9522 -0.9463
   57MOL   H61537687   4.141   1.287   6.858  1.3193  0.7599 -0.1593
   57MOL   H61637688   4.032   1.538   7.000 -0.0210  0.8752  0.6149
   57MOL   H61737689   4.157   1.537   6.878 -0.3752 -0.5312 -0.8339
   57MOL   H61837690   3.880   1.446   6.845  0.7627 -0.4950  0.6605
   57MOL   H61937691   3.991   1.458   6.708 -0.6538  0.7652  0.2550
   57MOL   H62037692   3.992   1.706   6.720 -1.8520  0.5973 -0.1082
   57MOL   H62137693   3.900   1.697   6.870 -0.2935  0.7517 -0.7289
   57MOL   H62237694   3.829   1.605   6.589 -1.5632  0.7979 -1.0355
   57MOL   H62337695   3.702   1.610   6.721  1.0394 -1.1008  0.1672
   57MOL   H62437696   3.707   1.815   6.544 -0.3610 -4.2474 -1.3202
   57MOL   H62537697   3.846   1.855   6.626  1.8053 -1.8277  2.3385
   57MOL   H62637698   3.573   1.813   6.760 -0.3895  0.6225 -1.5703
   57MOL   H62737699   3.715   1.877   6.835 -1.4407 -0.6341  0.5461
   57MOL   H62837700   3.639   1.971   6.708 -0.3870  0.4658  0.8026
   57MOL   C62937701   4.485   1.213   7.200  0.5004  0.0855 -0.0640
   57MOL   C63037702   4.575   1.202   7.074  0.1862  0.3229 -0.4899
   57MOL   C63137703   4.727   1.229   7.109 -0.2068 -0.2687  0.3592
   57MOL   C63237704   4.807   1.275   6.982  0.0102  0.1818 -0.1382
   57MOL   C63337705   4.964   1.259   6.996  0.4009  0.5580  0.2482
   57MOL   C63437706   5.042   1.332   6.885 -0.8594  0.0032 -0.0520
   57MOL   C63537707   5.192   1.342   6.893  0.5218  0.2757 -0.5319
   57MOL   C63637708   5.253   1.426   6.781 -0.3142  0.1760 -0.0653
   57MOL   C63737709   5.405   1.439   6.777 -0.2960  0.2697  0.2840
   57MOL   C63837710   5.482   1.320   6.715 -0.1536 -0.2668  0.0297
   57MOL   C63937711   5.631   1.330   6.718 -0.4161 -0.1428  0.2261
   57MOL   H64037712   4.460   1.318   7.214  1.1129  0.6432 -2.8204
   57MOL   H64137713   4.547   1.167   7.277 -0.1948  1.2984  1.2374
   57MOL   H64237714   4.556   1.110   7.019  0.4223  0.8191 -1.3973
   57MOL   H64337715   4.727   1.299   7.192 -1.1230  1.9386 -1.4400
   57MOL   H64437716   4.788   1.151   7.155  1.5372 -0.0401 -1.4691
   57MOL   H64537717   4.781   1.375   6.947  0.1156  0.9193  1.7743
   57MOL   H64637718   4.782   1.208   6.901 -1.1364  0.3597  0.0665
   57MOL   H64737719   4.988   1.152   6.999 -0.8551  0.2802  0.6906
   57MOL   H64837720   4.999   1.291   7.094  0.2809 -1.0078  0.8250
   57MOL   H64937721   5.007   1.435   6.872 -0.2248  0.1652 -0.4966
   57MOL   H65037722   5.009   1.300   6.786 -1.3653  1.1981 -0.2781
   57MOL   H65137723   5.231   1.241   6.893  0.5087  0.2715 -0.3359
   57MOL   H65237724   5.214   1.392   6.987 -3.8495 -0.0645  0.7523
   57MOL   H65337725   5.204   1.523   6.772  1.0613  0.8149 -0.8484
   57MOL   H65437726   5.225   1.374   6.689 -0.2524 -1.2943  0.7214
   57MOL   H65537727   5.443   1.470   6.875  0.8928  2.0491 -0.7192
   57MOL   H65637728   5.420   1.518   6.704 -0.6836  1.1265  1.1204
   57MOL   H65737729   5.453   1.297   6.612  1.1018 -1.3020 -0.1050
   57MOL   H65837730   5.461   1.229   6.771  2.8130 -1.3577 -0.5354
   57MOL   H65937731   5.670   1.354   6.817 -0.2155 -0.5084  0.2388
   57MOL   H66037732   5.655   1.417   6.657 -1.6778  0.0785  0.0250
   57MOL   H66137733   5.691   1.247   6.682  1.8121  1.3013  0.4714
   57MOL   H66237734   4.548   1.270   6.994  2.1475  2.8672  0.9635
   58MOL     C137735   5.199   4.472   7.007  0.8341 -0.8585 -0.1341
   58MOL     C237736   5.168   4.355   6.911  0.5785  0.4346 -0.0577
   58MOL     C337737   5.140   4.403   6.770  0.2550 -0.5301 -0.2683
   58MOL     C437738   5.009   4.490   6.752 -0.2039 -0.2065  0.3774
   58MOL     C537739   4.998   4.551   6.614  0.2204 -0.1652 -0.3514
   58MOL     C637740   4.891   4.661   6.611 -0.0956  0.1536  0.4977
   58MOL     C737741   4.741   4.614   6.622 -0.6598  0.1413 -0.1326
   58MOL     C837742   4.654   4.737   6.611  0.5503 -0.6491 -0.0077
   58MOL     C937743   4.500   4.705   6.608  0.1778 -0.3545 -0.2487
   58MOL    C1037744   4.409   4.831   6.610  0.0194 -0.7959  0.3452
   58MOL    C1137745   4.261   4.779   6.593  0.5089 -0.3304 -0.4563
   58MOL    H1237746   5.282   4.535   6.975 -1.3026  1.3983 -1.4674
   58MOL    H1337747   5.218   4.438   7.108  3.1518 -1.5149 -0.7629
   58MOL    H1437748   5.083   4.297   6.948 -0.3605  0.8426 -1.5041
   58MOL    H1537749   5.127   4.320   6.701  0.8813 -0.0353 -0.9915
   58MOL    H1637750   5.225   4.464   6.738 -0.2144 -0.4129 -1.3239
   58MOL    H1737751   5.019   4.579   6.814  1.6437  0.0594 -0.2663
   58MOL    H1837752   4.924   4.432   6.786  1.1127 -2.8804 -0.6366
   58MOL    H1937753   5.095   4.596   6.597 -0.3960  1.3182  0.0145
   58MOL    H2037754   4.976   4.491   6.526 -2.1501  0.5384 -0.2687
   58MOL    H2137755   4.885   4.713   6.516 -4.3716 -2.0024 -0.5197
   58MOL    H2237756   4.909   4.737   6.687  0.9187  0.0335  0.3925
   58MOL    H2337757   4.713   4.541   6.546 -2.4586 -0.4349  1.0538
   58MOL    H2437758   4.723   4.579   6.724 -1.3731  1.4374  0.1895
   58MOL    H2537759   4.669   4.796   6.521 -0.3035 -0.1500  0.1697
   58MOL    H2637760   4.667   4.808   6.693  3.3452 -2.3033  1.0601
   58MOL    H2737761   4.476   4.638   6.690  1.2187  1.4431  1.5853
   58MOL    H2837762   4.489   4.652   6.513  2.1503  0.9247 -1.2365
   58MOL    H2937763   4.425   4.901   6.528  0.0730 -1.3403 -0.1076
   58MOL    H3037764   4.409   4.888   6.703 -1.0702 -0.8808  0.4008
   58MOL    H3137765   4.195   4.864   6.606  0.7497 -0.0973 -0.7432
   58MOL    H3237766   4.226   4.746   6.495 -0.7425 -3.0616  0.8426
   58MOL    H3337767   4.235   4.714   6.677 -0.3286 -1.6945 -1.7490
   58MOL    H3437768   5.112   4.538   7.012  0.9037 -0.8682  1.5096
   58MOL    C3537769   5.274   4.244   6.909 -0.6890  0.0347  0.0865
   58MOL    C3637770   5.287   4.165   7.044 -0.6107  0.0050  0.5774
   58MOL    C3737771   5.251   4.013   7.020 -0.7549  0.6641 -0.3621
   58MOL    C3837772   5.108   3.988   6.971 -0.3777 -0.0878  0.3449
   58MOL    C3937773   5.092   3.850   6.908 -0.4023  0.2012  0.2589
   58MOL    C4037774   4.950   3.815   6.868 -0.1907  0.0887  0.2690
   58MOL    C4137775   4.930   3.670   6.821 -0.1178 -0.3765 -0.3465
   58MOL    C4237776   4.921   3.558   6.929  0.1616 -0.1399  0.4660
   58MOL    C4337777   4.942   3.409   6.887  0.2506 -0.3685 -0.2023
   58MOL    C4437778   4.828   3.350   6.800 -0.1472 -0.8286 -0.0393
   58MOL    C4537779   4.832   3.194   6.797 -0.1826 -0.3235 -0.3266
   58MOL    H4637780   5.368   4.292   6.880 -1.0613 -0.2754 -1.6732
   58MOL    H4737781   5.261   4.173   6.828  1.6626  0.4093 -0.6832
   58MOL    H4837782   5.223   4.216   7.116 -3.8306 -0.7173 -1.6848
   58MOL    H4937783   5.328   3.978   6.952 -2.1134  1.5834 -2.4215
   58MOL    H5037784   5.256   3.963   7.117  1.7582  1.6181  0.0294
   58MOL    H5137785   5.062   4.066   6.910  0.0074  1.4909  2.0429
   58MOL    H5237786   5.036   3.988   7.053 -0.7153 -2.6583  0.0958
   58MOL    H5337787   5.149   3.791   6.980  0.2770 -0.3166 -0.6986
   58MOL    H5437788   5.150   3.839   6.817  1.0799  0.3021  1.1839
   58MOL    H5537789   4.935   3.873   6.778  0.4988  0.7672  0.5840
   58MOL    H5637790   4.867   3.841   6.934 -0.5672 -0.8306  0.1604
   58MOL    H5737791   4.841   3.664   6.758 -0.2168 -1.9320 -0.0787
   58MOL    H5837792   5.010   3.640   6.753  2.5409  1.7091  1.7643
   58MOL    H5937793   4.820   3.566   6.968 -0.0751  2.0512 -0.5445
   58MOL    H6037794   4.991   3.573   7.011  0.2161 -1.7118  0.7289
   58MOL    H6137795   4.962   3.341   6.970 -0.2511 -0.1580  0.0929
   58MOL    H6237796   5.028   3.403   6.820 -1.1087  1.7598 -2.1875
   58MOL    H6337797   4.733   3.375   6.847 -0.3699 -0.0391 -0.8809
   58MOL    H6437798   4.812   3.402   6.706  0.8588 -1.0154 -0.3112
   58MOL    H6537799   4.760   3.157   6.725 -1.5261  2.1045 -0.2981
   58MOL    H6637800   4.920   3.167   6.740  1.2648 -0.5703  1.9319
   58MOL    H6737801   4.824   3.142   6.893  1.7613 -0.4780 -0.2425
   58MOL    C6837802   5.430   4.179   7.093  0.1995 -0.0233 -0.4991
   58MOL    C6937803   5.459   4.123   7.236  0.0300  0.3760 -0.0410
   58MOL    C7037804   5.602   4.073   7.259 -0.4151 -0.0359  0.8383
   58MOL    C7137805   5.628   3.948   7.178  0.6554  0.3487  0.0033
   58MOL    C7237806   5.776   3.906   7.185 -0.3529 -0.2767 -0.3604
   58MOL    C7337807   5.825   3.809   7.070  0.3870  0.1979  0.5314
   58MOL    C7437808   5.968   3.752   7.076  0.4202  0.4646  0.3575
   58MOL    C7537809   5.995   3.643   6.972 -0.3498  0.7575 -0.2595
   58MOL    C7637810   5.921   3.507   6.999 -0.3079 -0.4403 -0.6909
   58MOL    C7737811   5.930   3.413   6.883 -0.0703 -0.6697  0.0192
   58MOL    C7837812   5.872   3.270   6.910  0.0900 -0.4220 -0.2032
   58MOL    H7937813   5.461   4.283   7.102 -0.0240  0.2228 -2.4610
   58MOL    H8037814   5.492   4.128   7.020  1.4833 -0.2137  0.6883
   58MOL    H8137815   5.400   4.032   7.248  1.2362 -0.3178  0.6971
   58MOL    H8237816   5.622   4.047   7.363 -0.8840  0.4468  1.0516
   58MOL    H8337817   5.679   4.149   7.247 -0.6174  0.2304  1.2082
   58MOL    H8437818   5.574   3.860   7.212  1.4577  0.3910  1.4106
   58MOL    H8537819   5.602   3.957   7.072 -0.3286  0.0105  0.2112
   58MOL    H8637820   5.795   3.867   7.285 -0.0298  0.2857 -0.1960
   58MOL    H8737821   5.843   3.991   7.171 -1.7836  1.1028  1.0837
   58MOL    H8837822   5.756   3.724   7.073  0.6120 -0.0207 -0.3099
   58MOL    H8937823   5.807   3.850   6.970 -0.3185 -0.2712  0.4598
   58MOL    H9037824   5.992   3.715   7.176 -1.2569  1.0717  0.9907
   58MOL    H9137825   6.052   3.821   7.061  1.4579 -1.1401 -1.4314
   58MOL    H9237826   5.986   3.682   6.870  1.0991  1.6801 -0.0512
   58MOL    H9337827   6.098   3.614   6.996 -0.6183  0.6128  0.7340
   58MOL    H9437828   5.974   3.451   7.076 -0.7076 -0.3514 -0.3540
   58MOL    H9537829   5.822   3.529   7.039  0.3937  0.8726  0.3639
   58MOL    H9637830   5.879   3.454   6.795  0.6503 -0.4615 -0.3083
   58MOL    H9737831   6.030   3.391   6.846  0.3831  1.4521 -0.1051
   58MOL    H9837832   5.769   3.278   6.945 -0.0545 -1.5465 -0.3575
   58MOL    H9937833   5.932   3.211   6.980  1.8832  1.3420 -0.2114
   58MOL   H10037834   5.869   3.221   6.813  0.3765 -1.7293  0.4434
   58MOL   C10137835   5.418   4.218   7.359 -0.3062 -0.2875  0.2897
   58MOL   C10237836   5.290   4.190   7.433 -0.1791  0.4102 -0.1333
   58MOL   C10337837   5.237   4.311   7.505 -0.0024 -0.0621 -0.5970
   58MOL   C10437838   5.172   4.429   7.420  0.6639  0.0109  0.9382
   58MOL   C10537839   5.123   4.550   7.499  0.1980 -0.0433 -0.3283
   58MOL   C10637840   5.066   4.654   7.401  0.7423  0.3131  0.5835
   58MOL   C10737841   4.988   4.770   7.460 -0.0050  0.6151 -0.2223
   58MOL   C10837842   4.918   4.877   7.375 -0.0691  0.5045  0.8159
   58MOL   C10937843   5.015   4.975   7.309 -0.1509 -0.1889  0.1167
   58MOL   C11037844   4.958   5.034   7.182 -0.4330 -0.2641  0.1105
   58MOL   C11137845   5.036   5.167   7.144  0.1497  0.7211  0.4184
   58MOL   H11237846   5.501   4.220   7.429  0.9394 -0.2075 -1.1788
   58MOL   H11337847   5.427   4.322   7.329  3.9934  0.2423  3.0007
   58MOL   H11437848   5.215   4.152   7.363  1.6867 -1.4776 -1.1748
   58MOL   H11537849   5.160   4.267   7.569 -0.0404 -1.4172 -1.5617
   58MOL   H11637850   5.323   4.347   7.561 -0.3054  1.2207 -0.9324
   58MOL   H11737851   5.236   4.473   7.343  0.6843 -1.8506 -0.1486
   58MOL   H11837852   5.088   4.385   7.365 -0.5015  2.8619  0.3707
   58MOL   H11937853   5.033   4.526   7.555 -0.8874 -2.1973 -2.8857
   58MOL   H12037854   5.202   4.596   7.559 -2.0647  0.4590  2.3535
   58MOL   H12137855   5.141   4.685   7.327 -0.2104  0.0556 -0.5079
   58MOL   H12237856   5.004   4.600   7.329 -0.2054  0.9097  0.9493
   58MOL   H12337857   5.058   4.827   7.521  0.5382  0.0968 -0.3564
   58MOL   H12437858   4.913   4.736   7.533  0.5576  0.6196  0.3648
   58MOL   H12537859   4.850   4.817   7.314  0.1299  0.8845  0.2215
   58MOL   H12637860   4.870   4.935   7.454 -1.8800 -1.6027  1.3253
   58MOL   H12737861   5.031   5.057   7.378 -0.4079 -0.0981  0.0685
   58MOL   H12837862   5.103   4.914   7.287  0.2948 -0.1653  1.7669
   58MOL   H12937863   4.852   5.052   7.198 -1.5737 -3.5886 -3.1361
   58MOL   H13037864   4.966   4.968   7.096  1.7141  2.3054 -1.7686
   58MOL   H13137865   5.014   5.195   7.041  0.2540  2.2817  0.8153
   58MOL   H13237866   5.008   5.251   7.207 -2.3971  2.0121 -2.3071
   58MOL   H13337867   5.145   5.158   7.142  0.0649 -0.3758 -0.0078
   58MOL   C13437868   5.326   4.073   7.528 -0.1480 -0.6254 -0.0731
   58MOL   C13537869   5.213   3.971   7.554 -0.2608 -0.0746  0.2801
   58MOL   C13637870   5.252   3.884   7.675 -0.0929 -0.5073 -0.3216
   58MOL   C13737871   5.376   3.790   7.660  0.2276 -0.2795 -0.4106
   58MOL   C13837872   5.426   3.724   0.084 -0.3056 -0.9269 -0.2305
   58MOL   C13937873   5.512   3.604   0.058  0.1072 -0.1014  0.4587
   58MOL   C14037874   5.566   3.547   0.187 -0.1024  0.0721  0.7006
   58MOL   C14137875   5.496   3.427   0.262  0.3228 -0.1347  0.6070
   58MOL   C14237876   5.572   3.357   0.380 -0.5278 -0.4229  0.0230
   58MOL   C14337877   5.495   3.266   0.466 -0.3923 -0.1111  0.4268
   58MOL   C14437878   5.409   3.335   0.569  0.2149 -0.1416  0.2289
   58MOL   H14537879   5.395   4.011   7.471 -0.3717  0.4988 -1.6027
   58MOL   H14637880   5.385   4.101   7.615  0.1841  1.4395 -0.9184
   58MOL   H14737881   5.132   4.036   7.589 -2.1753 -2.3582  0.2114
   58MOL   H14837882   5.168   3.821   0.002 -0.0883  0.0323  0.8510
   58MOL   H14937883   5.263   3.946   0.060 -1.2993  0.5457 -0.8823
   58MOL   H15037884   5.366   3.710   7.586 -2.1270  0.5532 -1.0343
   58MOL   H15137885   5.449   3.864   7.628 -0.2625  0.9070  1.1914
   58MOL   H15237886   5.474   3.789   0.157  0.9006  0.3042 -2.0816
   58MOL   H15337887   5.337   3.687   0.135 -0.5626  0.2154  0.1576
   58MOL   H15437888   5.459   3.523   0.007  0.2726  0.1052 -0.0457
   58MOL   H15537889   5.596   3.645   0.003 -1.2828  0.7741 -1.0764
   58MOL   H15637890   5.667   3.525   0.152 -0.0699 -1.6378  1.8120
   58MOL   H15737891   5.582   3.623   0.264  0.1685 -0.2157  0.9331
   58MOL   H15837892   5.408   3.473   0.309 -0.2303 -0.4458 -0.1154
   58MOL   H15937893   5.462   3.343   0.202 -1.2136 -0.2531  1.6093
   58MOL   H16037894   5.650   3.306   0.323  0.0009 -0.5106  0.8122
   58MOL   H16137895   5.618   3.442   0.432  1.6296 -1.1356 -0.6446
   58MOL   H16237896   5.434   3.192   0.414 -1.3201  0.2413  0.9876
   58MOL   H16337897   5.561   3.199   0.520 -0.7240 -1.6134 -0.9692
   58MOL   H16437898   5.362   3.269   0.641  2.0213  0.7434  2.2572
   58MOL   H16537899   5.325   3.382   0.517 -3.1088 -3.9268  1.9643
   58MOL   H16637900   5.474   3.403   0.624 -0.2973 -0.1224  0.8047
   58MOL   C16737901   5.172   3.887   7.422  0.5575 -0.9117 -0.4388
   58MOL   C16837902   5.059   3.788   7.436 -0.7209  0.3660 -0.0279
   58MOL   C16937903   5.094   3.678   7.329  0.2662  0.6931 -0.2786
   58MOL   C17037904   5.214   3.582   7.358  0.2691 -0.1161 -0.3771
   58MOL   C17137905   5.239   3.481   7.238 -0.5704 -0.6602 -0.1993
   58MOL   C17237906   5.348   3.537   7.141  0.5740  0.4152 -0.0845
   58MOL   C17337907   5.395   3.446   7.027 -0.0133  0.0660  0.4145
   58MOL   C17437908   5.491   3.517   6.936  1.0962  0.6836 -0.2039
   58MOL   C17537909   5.522   3.438   6.803  0.8012  1.5285 -0.2556
   58MOL   C17637910   5.607   3.524   6.715 -0.2668  0.4639 -0.9502
   58MOL   C17737911   5.657   3.449   6.594 -0.0956 -0.0483 -0.9094
   58MOL   H17837912   5.139   3.954   7.342 -0.7549  0.7920  1.4646
   58MOL   H17937913   5.266   3.840   7.392  1.5762  0.3638  0.6737
   58MOL   H18037914   5.063   3.736   7.532  0.7351  0.6145  0.0635
   58MOL   H18137915   5.112   3.726   7.233  2.6697 -1.2952 -0.8810
   58MOL   H18237916   4.999   3.627   7.313 -0.1342  1.0918  0.7868
   58MOL   H18337917   5.301   3.640   7.388  1.0359 -0.5516 -1.7095
   58MOL   H18437918   5.186   3.513   7.438  2.2680 -0.1745  0.2878
   58MOL   H18537919   5.150   3.456   7.180 -0.5084 -0.3897 -0.4120
   58MOL   H18637920   5.270   3.389   7.288  3.5800  0.2049 -0.9632
   58MOL   H18737921   5.298   3.626   7.102 -0.4915  0.4524  1.3434
   58MOL   H18837922   5.436   3.566   7.200 -0.1877 -0.9928  1.7664
   58MOL   H18937923   5.311   3.407   6.970  0.7324 -2.7560  1.1860
   58MOL   H19037924   5.429   3.346   7.052 -0.4753 -0.7061 -1.9148
   58MOL   H19137925   5.435   3.606   6.908 -1.1722 -0.1750  1.5177
   58MOL   H19237926   5.587   3.539   6.983  1.7497 -2.0837 -0.1341
   58MOL   H19337927   5.425   3.429   6.753  0.4684  0.4167  0.5631
   58MOL   H19437928   5.567   3.343   6.834 -0.5909  1.3671  1.3200
   58MOL   H19537929   5.692   3.564   6.770  0.1454 -1.4359 -0.1470
   58MOL   H19637930   5.563   3.618   6.683  0.4509  1.7087  1.6038
   58MOL   H19737931   5.712   3.358   6.617  1.0704  1.8226  4.5305
   58MOL   H19837932   5.728   3.519   6.549  0.5929  0.5272  1.0077
   58MOL   H19937933   5.584   3.432   6.515 -0.2114 -0.0986 -0.7922
   58MOL   C20037934   4.929   3.862   7.422  0.4333 -0.2919 -0.4480
   58MOL   C20137935   4.805   3.773   7.409  0.2009  0.2325 -0.0544
   58MOL   C20237936   4.772   3.751   7.258 -0.9705  0.8058 -0.4619
   58MOL   C20337937   4.688   3.624   7.232  0.2264 -1.3097  0.3968
   58MOL   C20437938   4.765   3.487   7.258 -0.3460 -0.0630  0.0565
   58MOL   C20537939   4.696   3.366   7.185  0.3174 -0.1094  0.5127
   58MOL   C20637940   4.768   3.234   7.212 -0.0562 -0.4997 -0.7377
   58MOL   C20737941   4.663   3.116   7.169 -0.0149  0.2140  0.4813
   58MOL   C20837942   4.723   2.976   7.164 -0.1822  0.2743  0.8057
   58MOL   C20937943   4.612   2.860   7.152 -0.3452 -0.4626 -0.3341
   58MOL   C21037944   4.649   2.712   7.153 -0.0987 -0.6349  0.2959
   58MOL   H21137945   4.922   3.927   7.509  2.9690 -2.9540  1.8575
   58MOL   H21237946   4.931   3.933   7.339  0.7547 -0.9550 -1.0167
   58MOL   H21337947   4.828   3.676   7.453 -2.4812  0.4955  2.0296
   58MOL   H21437948   4.857   3.745   7.190 -1.1900 -1.3751 -0.5728
   58MOL   H21537949   4.720   3.838   7.217 -2.6966 -0.5567 -1.2422
   58MOL   H21637950   4.652   3.624   7.129  1.6095 -1.5600 -0.0954
   58MOL   H21737951   4.602   3.631   7.298  0.9515  2.0645  1.0636
   58MOL   H21837952   4.745   3.459   7.362 -1.5174  1.2381  0.1928
   58MOL   H21937953   4.867   3.494   7.220 -1.0282 -1.1254 -2.0631
   58MOL   H22037954   4.593   3.366   7.220  0.4364  1.3855  0.9033
   58MOL   H22137955   4.683   3.385   7.078 -1.9985 -1.8663  0.4383
   58MOL   H22237956   4.802   3.231   7.315 -0.0168  0.3935 -0.7216
   58MOL   H22337957   4.861   3.248   7.157  0.0566 -0.0233 -0.4193
   58MOL   H22437958   4.615   3.143   7.075  0.9778 -0.6697 -0.2852
   58MOL   H22537959   4.581   3.126   7.240  0.5618 -2.0137  1.5019
   58MOL   H22637960   4.779   2.951   7.254  1.0522 -0.1969 -0.0923
   58MOL   H22737961   4.794   2.969   7.082 -0.1042 -0.5988  0.9408
   58MOL   H22837962   4.552   2.868   7.242  0.8781  0.1562  0.4323
   58MOL   H22937963   4.535   2.875   7.076 -0.9803 -1.7411  0.0346
   58MOL   H23037964   4.665   2.683   7.049 -0.1601  0.9632 -0.1738
   58MOL   H23137965   4.564   2.650   7.179 -0.7714  0.7941  1.5820
   58MOL   H23237966   4.743   2.705   7.207  1.5809  2.9154 -1.9835
   58MOL   C23337967   4.692   3.839   7.479  0.2732 -0.2458  0.1149
   58MOL   C23437968   4.696   3.837   7.636 -0.0884 -0.0212 -0.3231
   58MOL   C23537969   4.612   3.709   7.688 -0.1810 -0.3851 -0.1276
   58MOL   C23637970   4.668   3.571   7.634 -0.8200 -0.6087  0.3281
   58MOL   C23737971   4.588   3.456   7.697  0.3497  0.0598  0.1251
   58MOL   C23837972   4.631   3.319   7.648  0.2321 -0.6565 -0.0483
   58MOL   C23937973   4.529   3.207   7.666  0.9098  0.3413  0.0955
   58MOL   C24037974   4.570   3.067   7.604 -0.6070 -0.2163  0.3879
   58MOL   C24137975   4.629   2.969   0.008  0.0232 -0.7833 -0.3663
   58MOL   C24237976   4.651   2.828   7.669  0.4995 -0.4207  1.1916
   58MOL   C24337977   4.769   2.820   7.564  0.8403  0.2418 -0.0320
   58MOL   H24437978   4.595   3.801   7.447 -0.4199 -0.5647  2.4932
   58MOL   H24537979   4.697   3.939   7.437  1.7937 -0.0107  0.8328
   58MOL   H24637980   4.798   3.833   7.675 -0.8286 -0.0149  1.7199
   58MOL   H24737981   4.613   3.700   0.093  1.1267  0.5745 -0.0470
   58MOL   H24837982   4.511   3.735   7.657 -0.2733 -0.5870  0.0014
   58MOL   H24937983   4.774   3.561   7.660 -0.5308 -1.2239 -1.0132
   58MOL   H25037984   4.664   3.569   7.525 -1.9515  1.5191  0.3181
   58MOL   H25137985   4.481   3.471   7.682  0.5843 -1.4315 -3.4067
   58MOL   H25237986   4.608   3.452   0.101 -0.4164 -1.4510  0.2325
   58MOL   H25337987   4.720   3.286   7.702  1.7469  2.1900 -0.7443
   58MOL   H25437988   4.669   3.333   7.546  0.3799 -0.0480  0.0897
   58MOL   H25537989   4.504   3.198   0.068  2.2808  1.5045  0.5382
   58MOL   H25637990   4.440   3.249   7.618  0.6613  0.0088  0.2597
   58MOL   H25737991   4.479   3.023   7.565 -0.6626  0.8991 -0.7693
   58MOL   H25837992   4.641   3.090   7.524 -1.4769  0.7875 -0.1043
   58MOL   H25937993   4.721   3.009   0.052  0.0188 -0.4080 -0.7008
   58MOL   H26037994   4.553   2.964   0.085 -0.6926  3.3802 -0.6928
   58MOL   H26137995   4.563   2.776   7.630  1.7704 -0.4485 -1.7331
   58MOL   H26237996   4.692   2.766   0.045  0.0771  0.3343  2.0200
   58MOL   H26337997   4.754   2.854   7.461  0.8407 -1.8826 -0.7508
   58MOL   H26437998   4.798   2.716   7.560  2.6998  0.7841 -1.2604
   58MOL   H26537999   4.856   2.874   7.600  0.8614  0.4841 -0.4436
   58MOL   C26638000   4.637   3.962   0.014 -0.8118  0.4528  0.3071
   58MOL   C26738001   4.718   4.091   0.005 -0.4516  0.1116  0.2452
   58MOL   C26838002   4.825   4.092   0.116  0.4459 -0.2877  0.3820
   58MOL   C26938003   4.935   4.195   0.121 -0.3431  0.3607  0.8797
   58MOL   C27038004   5.003   4.201   0.257 -0.0467  0.1415  0.8903
   58MOL   C27138005   4.955   4.299   0.369  0.3082  0.3052 -0.7050
   58MOL   C27238006   5.062   4.291   0.482 -0.3879  0.1679 -0.2847
   58MOL   C27338007   5.020   4.378   0.599  0.7602 -0.1538 -0.6034
   58MOL   C27438008   4.889   4.330   0.678 -0.5464 -0.1071  0.1309
   58MOL   C27538009   4.853   4.410   0.799 -0.3464 -0.6837  0.4439
   58MOL   C27638010   4.742   4.336   0.876  0.0702 -0.5951 -0.0046
   58MOL   H27738011   4.596   3.932   0.111 -2.5551 -0.2092 -0.5952
   58MOL   H27838012   4.548   3.969   7.654 -0.3149  3.2456 -0.1239
   58MOL   H27938013   4.773   4.091   7.614 -1.5671 -0.1790 -0.4125
   58MOL   H28038014   4.764   4.110   0.204 -0.0152  1.0341 -0.1993
   58MOL   H28138015   4.873   3.997   0.141 -0.8506 -1.2383 -0.6390
   58MOL   H28238016   4.902   4.296   0.096 -0.1513 -0.2011 -1.7439
   58MOL   H28338017   5.004   4.176   0.039 -0.6169  1.0404  0.4896
   58MOL   H28438018   5.106   4.231   0.239 -0.2526 -0.1330 -0.8851
   58MOL   H28538019   5.022   4.098   0.287 -0.0651 -0.0295  0.3229
   58MOL   H28638020   4.850   4.270   0.384  0.0724  1.4610 -0.0525
   58MOL   H28738021   4.940   4.399   0.328 -0.4988  0.5792  0.2400
   58MOL   H28838022   5.071   4.185   0.505 -0.0442 -0.3472 -2.6683
   58MOL   H28938023   5.156   4.332   0.446 -0.2326 -1.1449 -1.3919
   58MOL   H29038024   5.000   4.483   0.574  0.9307 -0.0939 -0.4839
   58MOL   H29138025   5.107   4.384   0.664  0.6649 -1.5530 -0.3434
   58MOL   H29238026   4.810   4.329   0.603 -0.2269 -0.0489 -0.2077
   58MOL   H29338027   4.912   4.227   0.707 -2.0383 -0.0864  1.4960
   58MOL   H29438028   4.817   4.510   0.776  0.4637 -0.0766  1.7486
   58MOL   H29538029   4.940   4.435   0.860 -0.3599  0.0918  0.1460
   58MOL   H29638030   4.774   4.232   0.890 -0.0396 -0.8612 -1.6383
   58MOL   H29738031   4.646   4.320   0.827 -0.6365  0.9877  0.8237
   58MOL   H29838032   4.733   4.375   0.978  0.5063  0.8051 -0.4928
   58MOL   C29938033   4.629   4.213   0.010  0.4071 -0.8412 -0.0429
   58MOL   C30038034   4.581   4.266   7.576 -0.4115 -0.5781  0.4538
   58MOL   C30138035   4.695   4.341   7.513 -0.1495 -0.2114  0.3585
   58MOL   C30238036   4.668   4.354   7.357 -0.3284 -0.1837  0.4707
   58MOL   C30338037   4.735   4.251   7.269  0.0896  0.5821 -0.1617
   58MOL   C30438038   4.694   4.274   7.126  0.1576  0.7340  0.5677
   58MOL   C30538039   4.714   4.155   7.031 -0.0911  0.0289  0.2551
   58MOL   C30638040   4.655   4.181   6.896  0.5443  0.7815  0.4253
   58MOL   C30738041   4.666   4.081   6.786  0.5843  0.8090 -0.4131
   58MOL   C30838042   4.599   3.944   6.827 -0.5585 -0.2810  0.4816
   58MOL   C30938043   4.450   3.947   6.832  0.5039 -0.5456 -0.4554
   58MOL   H31038044   4.669   4.302   0.058 -1.3986 -0.6419  1.1711
   58MOL   H31138045   4.551   4.183   0.080 -1.2321  1.2285 -0.9178
   58MOL   H31238046   4.546   4.193   7.502  3.3100 -1.3964 -0.5983
   58MOL   H31338047   4.687   4.443   7.551 -3.7994  0.5735 -2.1926
   58MOL   H31438048   4.788   4.289   7.536 -2.2984 -4.5412 -0.2029
   58MOL   H31538049   4.560   4.354   7.341 -0.5347 -2.1213  1.7452
   58MOL   H31638050   4.706   4.449   7.320 -1.8464 -0.3107 -1.5023
   58MOL   H31738051   4.844   4.243   7.277 -0.0371 -1.9098 -0.4657
   58MOL   H31838052   4.702   4.157   7.314 -0.8798  0.7614 -0.4968
   58MOL   H31938053   4.732   4.369   7.088 -0.1688  0.9944  0.8869
   58MOL   H32038054   4.588   4.300   7.135  0.2435  0.4560  2.7016
   58MOL   H32138055   4.821   4.140   7.024  0.1150  1.6647 -0.2015
   58MOL   H32238056   4.666   4.069   7.079  1.8849 -0.9238  0.5433
   58MOL   H32338057   4.700   4.275   6.863  2.3627 -0.4857 -0.8333
   58MOL   H32438058   4.549   4.204   6.910  0.4650  1.1567 -0.7280
   58MOL   H32538059   4.772   4.064   6.772  0.5738 -0.3935  0.8299
   58MOL   H32638060   4.632   4.116   6.689 -0.1948 -1.2831 -0.9400
   58MOL   H32738061   4.638   3.903   6.920  3.0557  0.6761 -0.5091
   58MOL   H32838062   4.627   3.872   6.749  0.5226  0.1293  0.4815
   58MOL   H32938063   4.414   3.844   6.831  1.2430 -0.8392 -3.4758
   58MOL   H33038064   4.421   3.991   6.927  0.5834 -2.1068  0.3147
   58MOL   H33138065   4.399   4.006   6.756  0.5179 -0.7050 -0.5894
   58MOL   C33238066   4.459   4.362   7.612 -1.3424 -0.2478 -0.7913
   58MOL   C33338067   4.319   4.294   7.602 -0.1616 -0.0892  0.1323
   58MOL   C33438068   4.232   4.381   7.518  0.4323 -0.7424  0.7146
   58MOL   C33538069   4.245   4.360   7.365 -0.3290  0.5280  0.2689
   58MOL   C33638070   4.148   4.469   7.311  0.3144  0.4830 -0.0299
   58MOL   C33738071   4.130   4.470   7.160 -0.6547  0.9340  0.0998
   58MOL   C33838072   4.252   4.523   7.086  0.2464 -0.0475 -0.6754
   58MOL   C33938073   4.256   4.510   6.932  0.1040  0.1676  0.2398
   58MOL   C34038074   4.275   4.363   6.892 -0.2490  0.1013  0.5769
   58MOL   C34138075   4.351   4.344   6.764  0.5842  0.2718  0.3282
   58MOL   C34238076   4.245   4.374   6.651  0.0624  0.1505 -0.2590
   58MOL   H34338077   4.471   4.409   0.006 -0.4230 -1.0928 -0.4782
   58MOL   H34438078   4.461   4.446   7.543  2.8995 -0.0837 -0.6303
   58MOL   H34538079   4.332   4.200   7.549 -1.5511 -0.2904  0.1265
   58MOL   H34638080   4.241   4.480   7.563 -1.1291 -0.1063 -0.3141
   58MOL   H34738081   4.128   4.357   7.539  0.2829  0.6944  1.6702
   58MOL   H34838082   4.343   4.386   7.325  0.4433 -1.1954  1.0117
   58MOL   H34938083   4.233   4.257   7.334  0.7489  0.9702 -1.6870
   58MOL   H35038084   4.051   4.439   7.352 -0.0752 -0.7539 -1.8058
   58MOL   H35138085   4.169   4.569   7.350 -0.2599 -0.1845  2.0496
   58MOL   H35238086   4.049   4.536   7.129 -1.0850  0.6364  0.6004
   58MOL   H35338087   4.113   4.368   7.126 -2.9933  0.3809  2.7746
   58MOL   H35438088   4.343   4.477   7.123  0.2024  1.4018  1.3225
   58MOL   H35538089   4.265   4.625   7.123  1.1018 -0.5148  0.3289
   58MOL   H35638090   4.172   4.562   6.886 -0.2430  0.2113  0.9202
   58MOL   H35738091   4.340   4.566   6.890  0.1129 -0.5614 -0.7161
   58MOL   H35838092   4.181   4.310   6.885 -0.3970  0.4305  0.0846
   58MOL   H35938093   4.326   4.301   6.966 -3.4168 -0.6395  2.2265
   58MOL   H36038094   4.379   4.242   6.736 -0.1036 -0.2067  1.3420
   58MOL   H36138095   4.444   4.400   6.759  0.1538  0.8476 -1.6751
   58MOL   H36238096   4.195   4.471   6.661  1.2689  0.7117  0.4109
   58MOL   H36338097   4.293   4.365   6.553 -2.0178  0.2009 -1.3181
   58MOL   H36438098   4.163   4.303   6.662 -1.7796  2.1439 -0.6683
   58MOL   C36538099   4.250   4.248   0.028  0.1535  0.4248 -0.3369
   58MOL   C36638100   4.146   4.136   7.703  0.2113 -0.4836 -0.4611
   58MOL   C36738101   4.208   3.991   0.029 -0.3960  0.3319 -0.2235
   58MOL   C36838102   4.212   3.934   0.173  0.0935  0.1245  0.1939
   58MOL   C36938103   4.292   3.800   0.178 -0.4235 -0.0601 -0.0649
   58MOL   C37038104   4.281   3.714   0.305 -0.0921  0.3958 -0.2578
   58MOL   C37138105   4.342   3.788   0.431 -0.3193  0.2565 -0.5520
   58MOL   C37238106   4.481   3.831   0.410 -0.2833 -0.7914  0.1728
   58MOL   C37338107   4.546   3.884   0.539 -0.8197  0.5801  0.2342
   58MOL   C37438108   4.697   3.928   0.522 -0.1641 -0.0952  0.5326
   58MOL   C37538109   4.756   3.990   0.645 -0.1460  0.4875 -0.1601
   58MOL   H37638110   4.332   4.208   0.087  0.3488  1.3326  0.0135
   58MOL   H37738111   4.222   4.335   0.087 -1.9592  0.1423 -0.8707
   58MOL   H37838112   4.122   4.137   7.597  0.1657 -3.2951 -0.5160
   58MOL   H37938113   4.304   3.993   7.681  0.1524  2.6094  0.8246
   58MOL   H38038114   4.145   3.921   7.676 -2.4246  0.3958  1.9038
   58MOL   H38138115   4.111   3.925   0.214  1.2068 -1.7926  2.6361
   58MOL   H38238116   4.256   4.006   0.243 -0.7599  2.3183 -1.4609
   58MOL   H38338117   4.396   3.814   0.151 -0.9482  1.4149 -1.3895
   58MOL   H38438118   4.260   3.730   0.100 -1.6339 -1.7037  1.8415
   58MOL   H38538119   4.320   3.617   0.274 -0.9295  0.5563 -1.8547
   58MOL   H38638120   4.176   3.690   0.319  0.5807 -1.5252  1.8184
   58MOL   H38738121   4.283   3.876   0.456  0.4498  1.4450 -2.7803
   58MOL   H38838122   4.337   3.711   0.508  0.1166 -0.8936 -1.6644
   58MOL   H38938123   4.470   3.910   0.336 -0.2385 -1.5828 -0.6968
   58MOL   H39038124   4.540   3.759   0.353  1.2540 -0.0677  0.8102
   58MOL   H39138125   4.489   3.972   0.568 -0.0134  1.5970 -1.2144
   58MOL   H39238126   4.539   3.813   0.621  0.3405  0.4829  0.2648
   58MOL   H39338127   4.759   3.845   0.487 -0.4667  0.4058 -1.2602
   58MOL   H39438128   4.708   4.002   0.443 -0.3974  0.1862  0.7662
   58MOL   H39538129   4.744   3.912   0.720 -3.0700 -0.1863 -1.2562
   58MOL   H39638130   4.694   4.073   0.680 -2.6877 -1.6822  0.6521
   58MOL   H39738131   4.862   4.012   0.637 -0.0121  0.3780  1.1963
   58MOL   C39838132   4.020   4.162   0.078 -0.7007 -0.0941 -0.9341
   58MOL   C39938133   3.917   4.265   0.020 -0.2588 -0.0427  0.3904
   58MOL   C40038134   3.904   4.383   0.114 -0.4710 -0.1843  0.3048
   58MOL   C40138135   3.847   4.501   0.037 -0.3913  0.1590  0.0066
   58MOL   C40238136   3.831   4.623   0.121 -0.9374 -0.2665 -0.2388
   58MOL   C40338137   3.764   4.733   0.029  0.5730  0.7700  0.0869
   58MOL   C40438138   3.612   4.709   0.006  0.3661  0.1652 -0.2835
   58MOL   C40538139   3.551   4.825   7.625  0.1690 -0.1861 -0.0140
   58MOL   C40638140   3.412   4.795   7.581  0.0284  0.0306  0.1356
   58MOL   C40738141   3.371   4.876   7.455 -0.0361 -0.1253  0.5579
   58MOL   C40838142   3.232   4.833   7.408 -0.0682  0.3058 -0.3801
   58MOL   H40938143   4.055   4.182   0.179 -0.7960  2.0041 -1.2869
   58MOL   H41038144   3.973   4.064   0.077 -3.3554  1.0806  1.2656
   58MOL   H41138145   3.960   4.298   7.629  3.2080 -2.1107  1.1581
   58MOL   H41238146   4.008   4.400   0.144 -0.1371 -0.3415 -0.7614
   58MOL   H41338147   3.842   4.348   0.196  1.1916  2.7451  2.9317
   58MOL   H41438148   3.909   4.526   7.654 -0.5073 -1.3384 -0.5199
   58MOL   H41538149   3.749   4.475   7.699 -0.8845 -1.5243  2.1395
   58MOL   H41638150   3.770   4.603   0.209  0.3285  0.1798  0.7347
   58MOL   H41738151   3.927   4.647   0.165 -1.8061 -1.8667  2.6407
   58MOL   H41838152   3.800   4.747   7.630 -0.5201  3.3194 -0.0023
   58MOL   H41938153   3.780   4.837   0.059  0.3713  0.6189  0.7228
   58MOL   H42038154   3.595   4.609   7.668  0.1352  0.1028 -0.0350
   58MOL   H42138155   3.559   4.704   0.101 -1.1589 -2.4930 -1.1973
   58MOL   H42238156   3.620   4.842   7.542 -0.0225  1.0867  0.0724
   58MOL   H42338157   3.547   4.916   7.685  1.6329  1.7652 -2.7746
   58MOL   H42438158   3.405   4.691   7.549  2.1613 -0.3820  0.9529
   58MOL   H42538159   3.334   4.796   7.657  1.9021  0.6256  2.1078
   58MOL   H42638160   3.443   4.858   7.375  0.4891  2.3674  0.4243
   58MOL   H42738161   3.372   4.984   7.473  0.2531 -0.1586  0.7362
   58MOL   H42838162   3.229   4.724   7.400 -1.3726  0.3778 -1.0209
   58MOL   H42938163   3.191   4.879   7.318 -1.5505  0.8019  0.5363
   58MOL   H43038164   3.166   4.852   7.492 -1.7931 -2.8302 -0.9426
   58MOL   C43138165   3.788   4.197   7.687  0.0439 -0.3522 -0.5275
   58MOL   C43238166   3.799   4.124   7.553 -0.6209 -0.2943  0.2115
   58MOL   C43338167   3.819   4.204   7.424  0.0505 -1.2527 -0.3515
   58MOL   C43438168   3.720   4.323   7.413 -0.2047 -0.2172 -0.2127
   58MOL   C43538169   3.745   4.417   7.299  0.5722 -0.6630 -0.9559
   58MOL   C43638170   3.650   4.528   7.267 -0.3188  0.9285  0.2187
   58MOL   C43738171   3.526   4.484   7.193 -0.6333 -0.2404 -0.0050
   58MOL   C43838172   3.424   4.601   7.179 -0.3980  0.5672 -0.1322
   58MOL   C43938173   3.454   4.696   7.063  0.2950 -0.4419  0.5990
   58MOL   C44038174   3.337   4.802   7.046  0.0231 -0.3241 -0.3126
   58MOL   C44138175   3.372   4.893   6.934  0.2160  0.3140  0.4210
   58MOL   H44238176   3.709   4.271   7.695  0.2552  0.0107 -1.6969
   58MOL   H44338177   3.759   4.124   0.060 -0.6091  0.0728 -0.3678
   58MOL   H44438178   3.884   4.060   7.576 -0.5053 -0.4558 -0.6598
   58MOL   H44538179   3.912   4.260   7.415 -2.3134  2.8945  0.0054
   58MOL   H44638180   3.818   4.136   7.338 -0.0131 -3.3189  1.2370
   58MOL   H44738181   3.732   4.384   7.502  1.1306 -1.2481  0.3335
   58MOL   H44838182   3.614   4.298   7.409 -0.0018 -0.9779 -1.1178
   58MOL   H44938183   3.768   4.344   7.222 -1.4803 -2.3119 -0.0601
   58MOL   H45038184   3.847   4.454   7.310  0.5765 -0.9563  0.0127
   58MOL   H45138185   3.697   4.608   7.210  0.2811  0.4227 -0.0069
   58MOL   H45238186   3.614   4.576   7.357  2.6883  2.5699  0.6083
   58MOL   H45338187   3.479   4.399   7.244  0.4074  0.0883  1.5429
   58MOL   H45438188   3.558   4.447   7.096 -0.4169 -1.2874  0.4661
   58MOL   H45538189   3.323   4.564   7.165  0.5789 -1.4875 -1.9134
   58MOL   H45638190   3.397   4.663   7.266 -0.2195  1.3570 -0.6328
   58MOL   H45738191   3.468   4.628   6.979  2.5796 -0.7050  1.1439
   58MOL   H45838192   3.551   4.743   7.082  0.4050 -0.2794 -0.3514
   58MOL   H45938193   3.325   4.856   7.140  0.0743  1.0393 -1.0636
   58MOL   H46038194   3.241   4.753   7.034  0.4835 -1.0927 -0.9285
   58MOL   H46138195   3.469   4.943   6.936  0.4161 -0.0268 -0.5657
   58MOL   H46238196   3.379   4.827   6.848  1.0326 -1.6972  1.9815
   58MOL   H46338197   3.298   4.973   6.931  1.4618  1.4714 -0.3253
   58MOL   C46438198   3.665   4.037   7.548 -0.4552  0.4881 -0.0577
   58MOL   C46538199   3.674   3.924   7.444 -0.0174 -0.8241  1.2345
   58MOL   C46638200   3.797   3.825   7.468  0.4962  0.4560 -0.5918
   58MOL   C46738201   3.813   3.772   7.614 -0.3711 -0.0133  0.0371
   58MOL   C46838202   3.928   3.683   7.645  0.0727 -0.0670  0.1250
   58MOL   C46938203   3.962   3.664   0.092 -0.6899 -0.4083 -0.0826
   58MOL   C47038204   3.847   3.607   0.176 -0.2134 -0.7198 -0.7144
   58MOL   C47138205   3.903   3.599   0.317 -0.2612 -0.6178 -0.0059
   58MOL   C47238206   3.807   3.534   0.418  0.2653 -0.8689 -0.1338
   58MOL   C47338207   3.850   3.555   0.563  0.0695  0.0643 -1.1808
   58MOL   C47438208   3.863   3.695   0.603  0.3609  0.3924 -0.3283
   58MOL   H47538209   3.582   4.105   7.531  0.0646  0.6161 -2.2274
   58MOL   H47638210   3.650   3.989   7.645  0.1412  0.3708 -0.0201
   58MOL   H47738211   3.693   3.972   7.348  1.5012  0.6146  2.2335
   58MOL   H47838212   3.894   3.862   7.434  0.5761  0.0974 -0.7588
   58MOL   H47938213   3.771   3.731   7.419  0.1294 -0.0999  0.6245
   58MOL   H48038214   3.836   3.860   7.674 -0.9727  1.8607 -2.3942
   58MOL   H48138215   3.722   3.725   7.651 -0.1387 -0.9397 -0.5443
   58MOL   H48238216   4.018   3.725   7.600  1.1967 -4.3329 -1.8988
   58MOL   H48338217   3.920   3.590   7.589  2.5579 -1.5915  2.1947
   58MOL   H48438218   4.048   3.597   0.099 -1.2290 -1.0382  0.5558
   58MOL   H48538219   3.990   3.759   0.138  0.4497  0.2048 -1.9396
   58MOL   H48638220   3.772   3.685   0.191  1.2730  0.3722  1.2533
   58MOL   H48738221   3.815   3.507   0.146  1.1116 -1.2467 -0.4086
   58MOL   H48838222   3.995   3.542   0.323 -1.2127 -2.1196  0.6902
   58MOL   H48938223   3.933   3.701   0.343  0.1108 -1.2950  2.3802
   58MOL   H49038224   3.708   3.574   0.395  0.8634 -1.2593 -3.6312
   58MOL   H49138225   3.788   3.430   0.393  3.6366 -1.5961  0.1523
   58MOL   H49238226   3.778   3.507   0.629 -0.9072  0.1592 -2.1509
   58MOL   H49338227   3.944   3.502   0.576  0.9194  2.2265  1.8384
   58MOL   H49438228   3.901   3.704   0.705  0.8157 -1.2741 -0.3413
   58MOL   H49538229   3.769   3.749   0.589  1.3749  1.8289 -1.6433
   58MOL   H49638230   3.930   3.748   0.535 -1.0568  0.7310 -1.4930
   58MOL   C49738231   3.532   3.858   7.426  0.4744  0.0003 -0.6251
   58MOL   C49838232   3.524   3.779   7.291  0.1382  0.1316 -0.8182
   58MOL   C49938233   3.535   3.873   7.169  0.0546 -0.1811 -0.3653
   58MOL   C50038234   3.434   3.983   7.145  0.4888  0.3804  0.4922
   58MOL   C50138235   3.483   4.075   7.033 -0.3704 -0.2521 -0.9255
   58MOL   C50238236   3.471   4.020   6.898  0.6327  0.0575  0.4663
   58MOL   C50338237   3.480   4.121   6.775  0.1955  0.9520  0.5343
   58MOL   C50438238   3.535   4.054   6.652  0.0090  0.6009  0.5909
   58MOL   C50538239   3.577   4.147   6.537  0.4637 -0.6378 -0.4792
   58MOL   C50638240   3.649   4.085   6.420  0.7473 -0.0715 -0.6790
   58MOL   C50738241   3.792   4.044   6.454  0.1785  0.0415  0.1168
   58MOL   H50838242   3.502   3.791   7.507  0.9346 -1.8393 -1.9397
   58MOL   H50938243   3.465   3.944   7.428 -0.1308 -0.4466 -1.1351
   58MOL   H51038244   3.614   3.718   7.291  0.4886  0.6236  1.0887
   58MOL   H51138245   3.540   3.799   7.089  2.3767  0.3950 -0.7827
   58MOL   H51238246   3.635   3.913   7.154 -0.3246  1.2169  0.7283
   58MOL   H51338247   3.425   4.037   7.239  0.4350 -0.6333  1.0704
   58MOL   H51438248   3.333   3.947   7.124  0.3916 -0.4660  2.3094
   58MOL   H51538249   3.413   4.157   7.047 -0.0430 -0.1394  0.0822
   58MOL   H51638250   3.580   4.124   7.044 -0.1121 -1.1595  1.0290
   58MOL   H51738251   3.552   3.947   6.893  1.9000  1.4942 -0.4900
   58MOL   H51838252   3.379   3.962   6.894 -0.4233  1.6932  0.6730
   58MOL   H51938253   3.380   4.158   6.756  1.2967  3.0717 -1.2910
   58MOL   H52038254   3.535   4.213   6.792  1.1331  0.3330  0.9056
   58MOL   H52138255   3.469   3.971   6.625  2.4592 -1.5341  0.9828
   58MOL   H52238256   3.626   3.996   6.670  0.1921  0.6151 -0.2401
   58MOL   H52338257   3.639   4.228   6.578  0.3382 -0.9429  0.3262
   58MOL   H52438258   3.492   4.207   6.506  0.7583  0.2781  0.4273
   58MOL   H52538259   3.643   4.156   6.338 -1.7719 -0.1300 -0.5823
   58MOL   H52638260   3.592   4.000   6.381 -2.5382  0.6312  2.3677
   58MOL   H52738261   3.859   4.128   6.467  0.8391 -0.5085  0.2939
   58MOL   H52838262   3.833   3.997   6.364 -3.1635  1.3721 -2.2125
   58MOL   H52938263   3.814   3.980   6.540  0.7525 -0.6984 -0.5733
   58MOL   C53038264   3.402   3.688   7.282 -0.0808  0.3624  0.6645
   58MOL   C53138265   3.397   3.571   7.384 -0.0393  0.0412  0.1291
   58MOL   C53238266   3.502   3.462   7.357  0.1433 -0.0284 -0.4152
   58MOL   C53338267   3.585   3.438   7.482  0.5141  0.2635 -0.1665
   58MOL   C53438268   3.679   3.318   7.474  0.0730 -0.9530 -0.5046
   58MOL   C53538269   3.763   3.290   7.601  0.1192  0.3972 -0.5422
   58MOL   C53638270   3.674   3.252   0.016  0.2052  0.2850 -0.0496
   58MOL   C53738271   3.746   3.206   0.147  0.2757  0.3311 -0.3442
   58MOL   C53838272   3.814   3.074   0.125  0.3003  0.6779  0.4746
   58MOL   C53938273   3.868   3.021   0.252 -0.0853 -0.6804 -0.3519
   58MOL   C54038274   3.920   2.879   0.261 -0.0026  0.4978 -0.2444
   58MOL   H54138275   3.315   3.752   7.293  0.8574  2.1046 -1.5401
   58MOL   H54238276   3.391   3.653   7.179 -2.1634  1.1980  0.5763
   58MOL   H54338277   3.405   3.609   7.486  0.2766  1.5932 -0.4505
   58MOL   H54438278   3.567   3.482   7.271  0.8456 -1.0805 -0.1454
   58MOL   H54538279   3.451   3.374   7.320  0.0511 -0.2962  0.3390
   58MOL   H54638280   3.512   3.421   7.561  0.2990  0.7191 -0.2624
   58MOL   H54738281   3.639   3.530   7.504  3.2268 -0.7366 -2.4025
   58MOL   H54838282   3.747   3.335   7.390  1.3877 -0.8475  0.5535
   58MOL   H54938283   3.619   3.232   7.445  0.4118 -1.7842  1.2325
   58MOL   H55038284   3.807   3.385   7.631 -1.2184  0.2808  1.9349
   58MOL   H55138285   3.831   3.207   7.579 -1.5302 -1.1915  0.2189
   58MOL   H55238286   3.603   3.174   7.691 -0.0771  0.4068  0.3180
   58MOL   H55338287   3.617   3.343   0.035  1.3551  1.5909 -2.6155
   58MOL   H55438288   3.668   3.192   0.221 -0.9549 -2.4309 -2.0574
   58MOL   H55538289   3.817   3.282   0.180  1.5218 -1.5896  1.5176
   58MOL   H55638290   3.895   3.081   0.051 -0.5362  1.8209 -0.3431
   58MOL   H55738291   3.742   3.003   0.085 -0.9216  0.7689  2.4496
   58MOL   H55838292   3.781   3.035   0.316 -0.5924  0.4529 -1.2796
   58MOL   H55938293   3.940   3.094   0.289 -1.9505 -0.9283  4.0001
   58MOL   H56038294   3.972   2.864   0.166 -1.2170  1.0272 -1.0117
   58MOL   H56138295   3.993   2.874   0.341 -0.0493 -0.1655 -0.2398
   58MOL   H56238296   3.841   2.807   0.284  1.4258  0.1531  3.8755
   58MOL   C56338297   3.250   3.504   7.370 -0.2670  0.5791 -0.4776
   58MOL   C56438298   3.129   3.595   7.392  0.7425 -0.6432  0.1862
   58MOL   C56538299   3.031   3.540   7.501 -0.4571 -0.2714 -0.8387
   58MOL   C56638300   3.088   3.535   7.648 -0.1464 -0.6643  0.7161
   58MOL   C56738301   2.997   3.473   0.051  0.1630  0.1661  0.0922
   58MOL   C56838302   3.079   3.464   0.190 -0.7185  0.4484 -0.7154
   58MOL   C56938303   3.192   3.351   0.185  0.0792 -0.7649 -0.1743
   58MOL   C57038304   3.293   3.387   0.294 -0.3029 -0.6754  0.1564
   58MOL   C57138305   3.381   3.278   0.346  0.5197  0.3354  0.1630
   58MOL   C57238306   3.491   3.327   0.430 -0.5633  0.7274 -0.3218
   58MOL   C57338307   3.542   3.228   0.538 -1.2150  0.0908  0.2252
   58MOL   H57438308   3.241   3.417   7.434 -4.0730  0.9321 -0.3689
   58MOL   H57538309   3.245   3.466   7.268  1.0967 -0.4274 -0.1807
   58MOL   H57638310   3.183   3.680   7.436 -2.4465  1.2892  0.4824
   58MOL   H57738311   3.001   3.438   7.477 -1.6853 -0.2067  0.3790
   58MOL   H57838312   2.938   3.596   7.505 -0.5230 -0.5054  1.3419
   58MOL   H57938313   3.109   3.634   7.689  0.2587  0.1061 -1.3148
   58MOL   H58038314   3.181   3.479   7.638 -0.4173 -1.0818  0.5056
   58MOL   H58138315   2.973   3.369   0.028  2.2955 -0.0256 -1.3787
   58MOL   H58238316   2.909   3.537   0.062 -0.3494 -0.2269 -1.5073
   58MOL   H58338317   3.123   3.557   0.223 -1.0252  0.2872  0.1549
   58MOL   H58438318   3.013   3.438   0.273  1.5326 -2.2620  0.3268
   58MOL   H58538319   3.146   3.257   0.217 -0.6344 -0.2525  0.3100
   58MOL   H58638320   3.241   3.335   0.089  0.1299 -5.0348  0.4745
   58MOL   H58738321   3.258   3.439   0.384 -0.1503 -1.1438  0.4921
   58MOL   H58838322   3.353   3.465   0.249  0.6157 -1.0218  0.7621
   58MOL   H58938323   3.427   3.222   0.264 -2.4556 -0.6517 -0.8958
   58MOL   H59038324   3.323   3.209   0.407 -1.5912  1.9528  0.0378
   58MOL   H59138325   3.457   3.412   0.489 -1.7075 -0.1489  0.3050
   58MOL   H59238326   3.575   3.364   0.371  0.2493 -0.8974 -0.2312
   58MOL   H59338327   3.625   3.272   0.594 -0.4426 -1.6638  0.5120
   58MOL   H59438328   3.461   3.193   0.602 -0.8088  1.4944  1.5516
   58MOL   H59538329   3.584   3.134   0.501  1.0451  0.9374  0.5790
   58MOL   C59638330   3.061   3.627   7.257 -0.3206  0.0418  0.0433
   58MOL   C59738331   2.957   3.735   7.265 -0.4461 -0.3136 -0.2619
   58MOL   C59838332   2.869   3.740   7.138 -0.4752  0.9696  0.1624
   58MOL   C59938333   2.748   3.647   7.139 -0.0020  0.5345 -0.3771
   58MOL   C60038334   2.669   3.652   7.009  0.7661 -0.6436 -0.6504
   58MOL   C60138335   2.745   3.580   6.894  0.0408 -0.5448 -0.0531
   58MOL   C60238336   2.663   3.573   6.760  0.0361  0.2435  0.0177
   58MOL   C60338337   2.751   3.555   6.636  0.8165 -0.0128  0.4859
   58MOL   C60438338   2.835   3.419   6.643  0.1764 -0.0480  0.6706
   58MOL   C60538339   2.917   3.400   6.513 -0.4905  0.3638 -0.1639
   58MOL   C60638340   2.993   3.272   6.516  0.2630  0.0027 -0.0154
   58MOL   H60738341   3.136   3.663   7.187  0.5060 -0.8463  0.4630
   58MOL   H60838342   3.031   3.534   7.208 -0.0042 -1.2896  2.3052
   58MOL   H60938343   2.885   3.717   7.345 -0.8686  0.5962 -0.4289
   58MOL   H61038344   2.923   3.728   7.044  0.9389 -3.1864  1.3725
   58MOL   H61138345   2.827   3.839   7.122  0.0965  1.0977 -0.5415
   58MOL   H61238346   2.678   3.659   7.222  1.7451  1.5537  0.9794
   58MOL   H61338347   2.781   3.543   7.146  0.0568  0.5391 -0.5799
   58MOL   H61438348   2.630   3.753   6.993 -2.3506 -1.9875 -1.9244
   58MOL   H61538349   2.567   3.616   7.022  0.0184  0.8370 -2.1329
   58MOL   H61638350   2.828   3.640   6.856  0.0853 -0.7866 -0.3403
   58MOL   H61738351   2.783   3.483   6.926 -0.4645 -1.9703 -3.4555
   58MOL   H61838352   2.597   3.659   6.746 -0.6634 -0.2163  0.4428
   58MOL   H61938353   2.594   3.489   6.775  0.4866 -0.0898  0.2367
   58MOL   H62038354   2.810   3.646   6.630  0.6295 -0.0648 -2.4338
   58MOL   H62138355   2.693   3.556   6.544  0.6797 -1.3134  0.5543
   58MOL   H62238356   2.890   3.418   6.738  3.6256 -0.1101 -1.2437
   58MOL   H62338357   2.759   3.342   6.651  0.7239 -0.4365  2.5045
   58MOL   H62438358   2.980   3.486   6.489 -3.1343  2.0484 -1.3087
   58MOL   H62538359   2.856   3.418   6.425  0.8525  2.8069 -0.6342
   58MOL   H62638360   2.930   3.197   6.564 -0.4430 -0.9845 -2.4407
   58MOL   H62738361   3.034   3.238   6.421 -0.6467 -2.2432  0.3712
   58MOL   H62838362   3.079   3.294   6.580 -0.5219 -0.6634  1.2920
   58MOL   C62938363   3.040   3.872   7.281  0.0174 -0.5501 -0.0959
   58MOL   C63038364   2.962   4.004   7.279  0.4297 -0.0593 -0.0262
   58MOL   C63138365   3.052   4.127   7.281  0.0054 -0.7292  0.5401
   58MOL   C63238366   2.975   4.246   7.343 -0.4032 -0.5790 -0.1626
   58MOL   C63338367   3.057   4.377   7.325  0.0316 -0.1968  0.1732
   58MOL   C63438368   3.004   4.486   7.426  0.9080  0.5889 -0.0510
   58MOL   C63538369   2.882   4.561   7.379 -0.7814  0.8875 -0.0458
   58MOL   C63638370   2.853   4.690   7.452 -0.8837 -0.5876  0.6691
   58MOL   C63738371   2.775   4.776   7.358 -0.2570 -0.2880  0.0305
   58MOL   C63838372   2.851   4.865   7.256  0.0466 -0.6812 -0.0540
   58MOL   C63938373   2.749   4.956   7.179  0.4525  0.5905  0.2975
   58MOL   H64038374   3.084   3.879   7.380 -0.4574 -0.3920  0.1072
   58MOL   H64138375   3.115   3.881   7.202 -0.7938  2.0132 -0.6041
   58MOL   H64238376   2.898   4.004   7.191  0.9077  1.7004 -0.3892
   58MOL   H64338377   3.140   4.102   7.341  0.4356  0.5774  0.4640
   58MOL   H64438378   3.097   4.148   7.184  1.4097 -0.4370  1.2355
   58MOL   H64538379   2.946   4.224   7.446 -0.8866 -0.0664 -0.1845
   58MOL   H64638380   2.881   4.256   7.288  0.1103  0.9188 -0.7914
   58MOL   H64738381   3.050   4.416   7.224 -1.6849  1.4228  0.8786
   58MOL   H64838382   3.163   4.370   7.350 -0.4714 -1.5766  2.0532
   58MOL   H64938383   3.086   4.556   7.440  2.4594 -0.9736 -1.1214
   58MOL   H65038384   2.995   4.443   7.526 -1.5739  1.8895  0.3277
   58MOL   H65138385   2.795   4.497   7.396  2.1593 -2.5301  3.0278
   58MOL   H65238386   2.900   4.572   7.272  1.1078  2.8137  0.4168
   58MOL   H65338387   2.950   4.734   7.476 -1.4596  2.3918 -2.0868
   58MOL   H65438388   2.812   4.678   7.553  0.2371  0.3610  1.2587
   58MOL   H65538389   2.724   4.833   7.436 -0.2122 -0.8409  0.4681
   58MOL   H65638390   2.701   4.719   7.302 -0.8264  1.3601 -0.9296
   58MOL   H65738391   2.900   4.799   7.184  1.7113 -0.0793  0.4970
   58MOL   H65838392   2.931   4.920   7.305  1.1819 -1.2374 -1.2610
   58MOL   H65938393   2.704   5.035   7.239 -1.7160 -0.8355  0.6040
   58MOL   H66038394   2.670   4.900   7.128  2.2602 -1.3630 -0.4573
   58MOL   H66138395   2.799   5.002   7.093  0.4633 -3.4799 -2.0132
   58MOL   H66238396   2.896   4.004   7.365 -0.7579  1.6947 -0.9254
   59MOL     C138397   7.066   6.892   6.292 -0.4308 -0.0987 -0.4256
   59MOL     C238398   7.072   7.009   6.397  0.0686  0.0930  0.1267
   59MOL     C338399   6.942   7.013   6.488  0.2594 -0.1800  0.1376
   59MOL     C438400   6.951   7.122   6.594  0.3065  0.7665  0.0441
   59MOL     C538401   6.830   7.119   6.685  0.1485 -0.0965 -0.3235
   59MOL     C638402   6.833   7.243   6.780 -0.2206  0.6478  0.0374
   59MOL     C738403   6.724   7.231   6.893 -0.7141  0.0527  0.1106
   59MOL     C838404   6.719   7.355   6.985  0.5774  0.3634 -0.0943
   59MOL     C938405   6.858   7.397   7.042  0.6349 -0.9465  0.6034
   59MOL    C1038406   6.855   7.529   7.121  0.2652 -0.1258 -0.4735
   59MOL    C1138407   6.993   7.571   7.168 -0.3007  0.2406  0.0530
   59MOL    H1238408   6.971   6.882   6.239 -0.2697  0.4096 -0.8094
   59MOL    H1338409   7.086   6.796   6.341 -2.2401 -0.2730 -0.0027
   59MOL    H1438410   7.070   7.100   6.336 -1.7385 -0.5634 -0.8388
   59MOL    H1538411   6.944   6.909   6.522  0.6019 -0.6451 -1.2673
   59MOL    H1638412   6.847   7.034   6.439  1.2251  2.3974 -0.7427
   59MOL    H1738413   6.976   7.213   6.540  0.8227  0.6668  0.1108
   59MOL    H1838414   7.036   7.102   6.659  1.3057 -2.2992 -2.0969
   59MOL    H1938415   6.741   7.125   6.622 -0.6448  0.0031  0.7871
   59MOL    H2038416   6.827   7.019   6.729 -1.6285 -0.1701 -0.5690
   59MOL    H2138417   6.812   7.321   6.707  0.2234 -1.1310 -2.0337
   59MOL    H2238418   6.935   7.261   6.816  0.3011  0.7558 -1.4538
   59MOL    H2338419   6.629   7.205   6.848 -0.4881  0.9560 -0.9057
   59MOL    H2438420   6.758   7.158   6.967 -0.8837 -0.9670 -0.8054
   59MOL    H2538421   6.652   7.337   7.069 -1.0400 -0.1772 -1.4588
   59MOL    H2638422   6.676   7.443   6.939 -1.0437 -1.6143 -2.5225
   59MOL    H2738423   6.934   7.406   6.965 -0.1616  2.1206  0.1357
   59MOL    H2838424   6.897   7.325   7.114  0.8036 -3.5286 -1.9475
   59MOL    H2938425   6.785   7.526   7.205 -1.1729 -0.2183 -1.6566
   59MOL    H3038426   6.817   7.604   7.051 -0.5010  2.2417  2.3455
   59MOL    H3138427   7.054   7.501   7.225  0.0846 -1.3731 -2.2835
   59MOL    H3238428   7.052   7.617   7.089  1.3528  0.2623  1.2809
   59MOL    H3338429   6.967   7.645   7.243  0.3889 -0.9860  1.5267
   59MOL    H3438430   7.147   6.906   6.221  1.2940  1.0484  1.7246
   59MOL    C3538431   7.207   6.998   6.473 -0.0349 -0.2560 -0.4720
   59MOL    C3638432   7.332   6.985   6.378 -0.3053 -0.0691  0.8058
   59MOL    C3738433   7.333   7.094   6.266  0.4319 -0.5806 -0.0528
   59MOL    C3838434   7.401   7.041   6.137 -0.1394 -0.4193  0.1995
   59MOL    C3938435   7.449   7.157   6.045  0.2337  0.0138 -0.0633
   59MOL    C4038436   7.461   7.104   5.905  0.5675 -0.2545  0.0229
   59MOL    C4138437   7.511   7.213   5.811  0.9763  1.1028 -0.2963
   59MOL    C4238438   7.392   7.297   5.748  0.5950  0.5035 -0.0216
   59MOL    C4338439   7.429   7.395   5.633 -0.0236 -0.0482  0.3456
   59MOL    C4438440   7.304   7.465   5.592  0.5372  0.4573 -0.4418
   59MOL    C4538441   7.321   7.568   5.478  0.1946  0.2087  0.0288
   59MOL    H4638442   7.211   6.914   6.542 -0.2525  0.0102 -0.1276
   59MOL    H4738443   7.240   7.085   6.530 -2.5516  0.7560 -0.5041
   59MOL    H4838444   7.321   6.886   6.333 -1.6095  1.3409 -2.1973
   59MOL    H4938445   7.237   7.129   6.227  0.1282  1.0761  2.0624
   59MOL    H5038446   7.378   7.188   6.300 -1.3749 -0.6872  2.8066
   59MOL    H5138447   7.319   6.985   6.093  0.5568 -1.9377  0.8156
   59MOL    H5238448   7.478   6.965   6.147 -1.7334 -2.0435  0.3985
   59MOL    H5338449   7.541   7.205   6.079 -0.1159  0.9688 -0.4533
   59MOL    H5438450   7.376   7.237   6.057  0.1895 -0.0985  0.4159
   59MOL    H5538451   7.374   7.055   5.861 -0.4556  0.2018  1.4594
   59MOL    H5638452   7.535   7.024   5.905  0.4494 -0.4198 -3.1018
   59MOL    H5738453   7.587   7.261   5.872 -2.1213  0.3355  4.3865
   59MOL    H5838454   7.575   7.178   5.729  0.1219 -2.4554  0.4877
   59MOL    H5938455   7.351   7.362   5.826  1.8094 -0.1281  1.1743
   59MOL    H6038456   7.319   7.222   5.718 -0.5888  1.2198  1.0192
   59MOL    H6138457   7.469   7.326   5.558  0.9124 -0.4532  1.1969
   59MOL    H6238458   7.513   7.458   5.661  0.3735 -1.0159  1.4159
   59MOL    H6338459   7.236   7.393   5.546 -1.1027  2.6451 -1.5631
   59MOL    H6438460   7.251   7.512   5.676 -0.2960 -0.2146 -0.5797
   59MOL    H6538461   7.393   7.647   5.500 -0.3901  1.2094 -1.5280
   59MOL    H6638462   7.359   7.512   5.392 -0.2759 -0.8373  0.5011
   59MOL    H6738463   7.233   7.630   5.458 -0.0075  0.9646  3.0264
   59MOL    C6838464   7.466   6.979   6.456 -0.2112  0.4090 -0.4208
   59MOL    C6938465   7.491   6.840   6.536 -0.1763 -0.3409 -0.4877
   59MOL    C7038466   7.531   6.723   6.439 -0.9012  0.6433  0.0742
   59MOL    C7138467   7.543   6.581   6.503  0.3634 -0.1989  0.3458
   59MOL    C7238468   7.572   6.471   6.401 -0.1979  0.1514  0.5579
   59MOL    C7338469   7.620   6.327   6.448  0.4540 -0.4582  0.0947
   59MOL    C7438470   7.648   6.238   6.332  0.1218 -0.4186  0.3205
   59MOL    C7538471   7.665   6.099   6.382 -0.4341  0.3468 -0.0806
   59MOL    C7638472   0.043   6.008   6.289 -0.5537 -0.4741 -0.1868
   59MOL    C7738473   0.041   5.859   6.324 -0.0137 -0.3421  0.0455
   59MOL    C7838474   0.114   5.756   6.239  0.2888 -0.8873  0.3697
   59MOL    H7938475   7.457   7.064   6.524 -2.4515 -0.2337  0.1239
   59MOL    H8038476   7.546   7.002   6.385 -0.1375  0.3520 -0.3560
   59MOL    H8138477   7.408   6.810   6.600  0.5151  1.8459  1.4911
   59MOL    H8238478   7.622   6.752   6.387  0.2434 -0.8979  1.1493
   59MOL    H8338479   7.461   6.721   6.356 -2.5816 -0.1567  1.4643
   59MOL    H8438480   7.623   6.583   6.578 -0.5564 -0.1683  1.3417
   59MOL    H8538481   7.449   6.575   6.558  1.2005 -2.8484  1.5483
   59MOL    H8638482   7.655   6.516   6.348 -1.7001  0.6383 -1.4326
   59MOL    H8738483   7.483   6.458   6.340  1.5989  0.7294 -2.2505
   59MOL    H8838484   7.685   6.329   6.536  1.4252  0.1088 -0.6198
   59MOL    H8938485   7.521   6.300   6.485 -0.6752  1.6578 -1.2987
   59MOL    H9038486   0.037   6.271   6.284 -0.0779  0.3557  0.4553
   59MOL    H9138487   7.573   6.253   6.254  0.0634 -1.7417  0.1155
   59MOL    H9238488   0.015   6.092   6.477  0.6334  1.2567 -0.5989
   59MOL    H9338489   7.567   6.060   6.408  0.5729 -0.9508  1.9461
   59MOL    H9438490   7.695   6.002   6.193 -0.3354 -0.8669 -0.2780
   59MOL    H9538491   0.145   6.039   6.267 -0.3695 -0.5417  0.5578
   59MOL    H9638492   0.070   5.849   6.429 -3.7121 -1.0376  1.0741
   59MOL    H9738493   7.639   5.832   6.321 -0.0439 -0.3711  0.9810
   59MOL    H9838494   0.091   5.651   6.256 -0.8817 -0.7703 -0.4079
   59MOL    H9938495   0.222   5.770   6.228  0.0291 -0.3474 -1.7945
   59MOL   H10038496   0.080   5.770   6.136 -0.2703 -1.8088  0.4176
   59MOL   C10138497   7.603   6.869   6.642  0.8144  0.6938  0.1561
   59MOL   C10238498   7.576   6.977   6.754  0.1020  0.5045 -0.4002
   59MOL   C10338499   7.693   6.976   6.856  0.8731  0.7169 -0.9384
   59MOL   C10438500   0.117   7.039   6.802  0.1779 -0.2898 -0.1575
   59MOL   C10538501   0.235   7.046   6.902  0.4872  0.2524 -0.8934
   59MOL   C10638502   0.221   7.168   6.991  0.0780 -0.2379 -0.4806
   59MOL   C10738503   0.318   7.187   7.105  0.1574  0.0735  0.0724
   59MOL   C10838504   0.317   7.077   7.212  0.4529 -0.2505 -0.0286
   59MOL   C10938505   0.429   7.088   7.318  0.6998 -0.6695  0.5561
   59MOL   C11038506   0.447   6.963   7.402  0.3884 -0.3594  0.3826
   59MOL   C11138507   0.573   6.964   7.492 -0.2108 -0.1495 -0.2925
   59MOL   H11238508   7.627   6.778   6.697  0.9043  0.7701  0.2418
   59MOL   H11338509   7.701   6.885   6.596  0.1642  2.2885 -0.6941
   59MOL   H11438510   7.578   7.073   6.703 -0.5090  1.2741  1.0047
   59MOL   H11538511   7.663   7.011   6.956  1.5721 -1.5691  0.0886
   59MOL   H11638512   0.016   6.872   6.875 -0.0286  1.0983  2.8252
   59MOL   H11738513   0.141   6.988   6.709 -1.0466 -1.9715  0.4356
   59MOL   H11838514   0.103   7.142   6.771  1.1761 -0.6092 -1.7208
   59MOL   H11938515   0.238   6.951   6.956 -0.7067  0.8771  0.2646
   59MOL   H12038516   0.325   7.054   6.841  2.6435  0.8069  2.2384
   59MOL   H12138517   0.226   7.255   6.926  0.8600 -0.0015 -0.0976
   59MOL   H12238518   0.120   7.171   7.033  1.3599  1.9414  2.5897
   59MOL   H12338519   0.296   7.286   7.144  0.7611  1.3812 -2.7791
   59MOL   H12438520   0.420   7.192   7.066  0.0111  4.9566  0.0622
   59MOL   H12538521   0.216   7.058   7.248 -0.1180 -0.3540 -1.6311
   59MOL   H12638522   0.342   6.984   7.159  1.3622 -0.4183  0.6887
   59MOL   H12738523   0.525   7.101   7.267 -0.0140 -0.3580 -0.7444
   59MOL   H12838524   0.409   7.173   7.383 -1.9332 -2.9651  2.8451
   59MOL   H12938525   0.453   6.868   7.349  0.1679  0.2503 -0.7391
   59MOL   H13038526   0.364   6.954   7.472  0.7913  0.9684  1.0507
   59MOL   H13138527   0.554   7.025   7.581 -2.6115 -0.4383 -0.5667
   59MOL   H13238528   0.593   6.864   7.528  1.2697 -0.1109 -0.9584
   59MOL   H13338529   0.662   7.007   7.446  0.3968 -0.7485  0.3201
   59MOL   C13438530   7.436   6.952   6.819 -0.6991 -0.4220  0.5743
   59MOL   C13538531   7.386   7.067   6.914  0.7380  0.3036  0.7878
   59MOL   C13638532   7.290   7.028   7.022  0.1827 -0.0016  0.2654
   59MOL   C13738533   7.162   6.958   6.966  0.4077  0.1404  0.2711
   59MOL   C13838534   7.055   6.935   7.072 -0.0084 -0.8287  0.1543
   59MOL   C13938535   6.939   6.849   7.013  0.6432 -0.1614  0.6537
   59MOL   C14038536   6.796   6.837   7.075 -0.3855 -0.5483  0.1577
   59MOL   C14138537   6.704   6.771   6.975 -0.1178 -0.4458  0.6736
   59MOL   C14238538   6.571   6.734   7.041 -0.3737  0.3998 -0.3716
   59MOL   C14338539   6.456   6.695   6.945 -0.4751  0.0595  0.0465
   59MOL   C14438540   6.503   6.594   6.841  0.0037 -0.2773 -0.9187
   59MOL   H14538541   7.362   6.949   6.739 -0.0425  0.6199 -0.0817
   59MOL   H14638542   7.428   6.849   6.854 -0.4516 -0.8656 -0.6587
   59MOL   H14738543   7.470   7.093   6.978  1.0556  0.7514  0.1950
   59MOL   H14838544   7.250   7.114   7.076 -0.9326 -0.8753  0.8597
   59MOL   H14938545   7.343   6.956   7.085 -0.1521  0.8419  1.5385
   59MOL   H15038546   7.132   7.001   6.871  1.6250 -2.8976 -1.5548
   59MOL   H15138547   7.198   6.858   6.942  0.0167  0.2187 -0.6466
   59MOL   H15238548   7.106   6.886   7.155 -0.1713 -0.7233  0.3160
   59MOL   H15338549   7.026   7.031   7.114  2.3901 -1.5296  3.6351
   59MOL   H15438550   6.922   6.883   6.911  2.1333 -0.0999  0.4139
   59MOL   H15538551   6.973   6.746   7.004  3.3709  0.6894  0.9225
   59MOL   H15638552   6.800   6.765   7.157 -1.3263 -2.4478 -1.4515
   59MOL   H15738553   6.766   6.937   7.107  0.7442 -0.5722  1.3749
   59MOL   H15838554   6.689   6.842   6.894  2.4208 -2.0920 -1.2918
   59MOL   H15938555   6.747   6.684   6.925  0.9261  0.2455  0.3728
   59MOL   H16038556   6.593   6.646   7.101  0.4953  0.8996  0.0408
   59MOL   H16138557   6.555   6.821   7.105  0.4236  2.0217 -2.3213
   59MOL   H16238558   6.371   6.661   7.004 -1.1921  0.0144 -1.0116
   59MOL   H16338559   6.427   6.789   6.899  0.0931 -0.0208 -0.4859
   59MOL   H16438560   6.564   6.654   6.774 -0.2327 -0.2743 -1.1320
   59MOL   H16538561   6.424   6.544   6.784 -0.5287 -0.3162 -0.1659
   59MOL   H16638562   6.551   6.511   6.893  0.4348  0.2373 -0.4942
   59MOL   C16738563   7.348   7.193   6.842 -0.2397  0.3390 -0.1678
   59MOL   C16838564   7.394   7.324   6.905  0.4793 -0.3122 -0.5737
   59MOL   C16938565   7.288   7.438   6.861 -0.1897  0.4714 -0.1421
   59MOL   C17038566   7.263   7.439   6.717  0.1363  0.0550  0.0365
   59MOL   C17138567   7.171   7.559   6.674  0.2776  0.5787 -0.1696
   59MOL   C17238568   7.021   7.525   6.678  0.5017  0.2797  0.2976
   59MOL   C17338569   6.936   7.628   6.606  0.0971 -0.1469 -0.4672
   59MOL   C17438570   6.790   7.620   6.629  1.3254 -0.2677  0.2330
   59MOL   C17538571   6.753   7.691   6.760  0.3513  0.0459 -0.0799
   59MOL   C17638572   6.601   0.005   6.784  0.7595  0.4972 -0.3928
   59MOL   C17738573   6.573   0.101   6.897 -0.6804  0.8391 -0.4749
   59MOL   H17838574   7.375   7.196   6.737  0.3522  0.5751 -0.0086
   59MOL   H17938575   7.239   7.193   6.833 -0.2013 -0.0400 -0.6177
   59MOL   H18038576   7.390   7.317   7.014  0.0850 -2.4941 -0.6990
   59MOL   H18138577   7.311   7.540   6.892  0.3892 -0.4951  2.7744
   59MOL   H18238578   7.198   7.418   6.919 -1.2958  0.8617 -1.6921
   59MOL   H18338579   7.362   7.473   6.685 -0.1707  1.7761  0.8625
   59MOL   H18438580   7.231   7.353   6.657 -0.5436  0.6091 -0.3966
   59MOL   H18538581   7.200   7.587   6.573 -3.5573 -0.7186 -1.7452
   59MOL   H18638582   7.186   7.642   6.742 -1.3840  0.9522 -0.2261
   59MOL   H18738583   6.999   7.434   6.622 -0.4006  1.3958 -1.1947
   59MOL   H18838584   6.991   7.516   6.782 -2.5457 -1.1962 -0.6244
   59MOL   H18938585   6.954   7.615   6.499 -0.0608  3.3850 -0.9850
   59MOL   H19038586   6.955   0.030   6.626 -1.0925 -0.1728  0.8169
   59MOL   H19138587   6.738   7.668   6.545 -0.1121 -0.6713  0.8751
   59MOL   H19238588   6.744   7.522   6.616  1.2375 -0.1819 -0.1120
   59MOL   H19338589   6.813   0.074   6.790  1.2648 -0.2346 -1.0753
   59MOL   H19438590   6.778   7.614   6.832 -0.2564  0.7224  0.8715
   59MOL   H19538591   6.565   7.608   6.804  3.5429 -0.6329 -0.9206
   59MOL   H19638592   6.548   0.043   6.696 -0.3422  0.9873  0.4713
   59MOL   H19738593   6.603   0.057   6.992  0.6520 -2.5280 -2.3398
   59MOL   H19838594   6.468   0.129   6.907 -0.4660  2.3029 -2.1845
   59MOL   H19938595   6.624   0.195   6.877  0.3640  0.3821  0.0042
   59MOL   C20038596   7.543   7.357   6.874 -0.6522 -0.0600  0.0216
   59MOL   C20138597   7.610   7.477   6.956 -0.4099 -0.2973  0.0658
   59MOL   C20238598   0.017   7.541   6.870 -0.0747 -0.3674  0.4225
   59MOL   C20338599   0.082   7.656   6.944  0.6704  0.2411  0.0949
   59MOL   C20438600   0.186   0.009   6.853  0.3196 -0.3666 -0.0559
   59MOL   C20538601   0.235   0.127   6.927 -0.4075 -0.0465  0.7237
   59MOL   C20638602   0.369   0.190   6.889  0.4597  0.7060 -0.3187
   59MOL   C20738603   0.441   0.259   7.004 -0.3660  0.5732  0.6421
   59MOL   C20838604   0.537   0.164   7.084  0.5086 -0.5317 -0.4747
   59MOL   C20938605   0.618   0.246   7.186 -0.3218  1.1050  0.2755
   59MOL   C21038606   0.712   0.155   7.273 -0.3006  0.2674  0.0239
   59MOL   H21138607   7.609   7.270   6.879 -0.1675  0.0231 -3.4146
   59MOL   H21238608   7.544   7.395   6.771  0.8434 -0.1800 -0.0161
   59MOL   H21338609   7.522   7.542   6.952 -0.3945 -0.3059 -0.4204
   59MOL   H21438610   7.673   7.574   6.777 -3.7847 -0.1036  2.3349
   59MOL   H21538611   0.088   7.459   6.857 -0.6129 -0.7304 -0.2434
   59MOL   H21638612   0.116   7.628   7.043  3.5238  2.5207 -0.1962
   59MOL   H21738613   0.000   0.025   6.951  1.8040  1.3282  2.7810
   59MOL   H21838614   0.157   0.048   6.756  0.7481 -1.0028 -0.4492
   59MOL   H21938615   0.269   7.645   6.829 -0.2282 -0.8109 -0.7189
   59MOL   H22038616   0.160   0.203   6.947 -1.0466 -0.7786  1.1174
   59MOL   H22138617   0.251   0.097   7.030 -0.2351  1.0162  1.0070
   59MOL   H22238618   0.346   0.258   6.806  1.2592  0.2670 -0.9101
   59MOL   H22338619   0.435   0.110   6.855  0.3491 -0.3772  2.0021
   59MOL   H22438620   0.367   0.297   7.075 -2.2522 -0.8533 -0.5286
   59MOL   H22538621   0.505   0.336   6.961  1.0881 -1.5386 -1.0494
   59MOL   H22638622   0.600   0.100   7.024  1.1685  0.7640 -1.1951
   59MOL   H22738623   0.476   0.101   7.149 -1.6119  1.7180 -0.1644
   59MOL   H22838624   0.680   0.318   7.133  0.9582 -1.0341 -1.2162
   59MOL   H22938625   0.553   0.304   7.251  0.0007  0.6803  0.9759
   59MOL   H23038626   0.790   0.109   7.212 -0.6496 -0.5199  0.1623
   59MOL   H23138627   0.658   0.067   7.309 -2.9631  3.1263  3.4525
   59MOL   H23238628   0.751   0.209   7.359 -2.1050  1.7373 -0.0397
   59MOL   C23338629   7.653   7.425   7.093  0.7476  0.3146  0.6753
   59MOL   C23438630   7.624   7.507   7.213  0.5307  0.3575 -0.3132
   59MOL   C23538631   7.700   7.459   7.333  0.0768 -0.1175  0.2595
   59MOL   C23638632   0.126   7.537   7.361  0.5770 -0.1997 -0.7063
   59MOL   C23738633   0.188   7.500   7.499  0.1707 -0.5062 -0.1434
   59MOL   C23838634   0.268   7.618   7.552 -0.3426  0.5572  0.8821
   59MOL   C23938635   0.357   7.593   7.671  0.1670  0.5319 -0.2133
   59MOL   C24038636   0.409   0.022   0.031  0.3230 -0.6869  0.5492
   59MOL   C24138637   0.498   0.106   7.644  0.0481  0.8259  0.0167
   59MOL   C24238638   0.553   0.236   0.008 -0.4883 -0.3995  0.2569
   59MOL   C24338639   0.447   0.340   0.040 -0.5918  0.6937  0.1336
   59MOL   H24438640   0.054   7.393   7.088  0.3783 -0.7829 -0.1093
   59MOL   H24538641   7.606   7.327   7.102 -0.7175  0.7654 -1.7625
   59MOL   H24638642   7.648   7.611   7.192  2.5573 -0.0830 -0.2984
   59MOL   H24738643   7.626   7.460   7.413 -2.4106 -1.4836 -1.9234
   59MOL   H24838644   0.021   7.354   7.323  2.2762  0.5866 -2.3243
   59MOL   H24938645   0.093   7.640   7.375 -0.4875 -0.7943  1.4743
   59MOL   H25038646   0.202   7.539   7.284 -1.3379  3.4318 -2.6194
   59MOL   H25138647   0.247   7.408   7.496 -0.2013 -0.8694  2.7555
   59MOL   H25238648   0.114   7.478   7.575 -1.0926 -2.2950 -1.8385
   59MOL   H25338649   0.203   0.001   7.563  0.8093  1.3666  1.4050
   59MOL   H25438650   0.325   7.664   7.471 -0.4738 -2.1791 -0.8497
   59MOL   H25538651   0.310   7.525   0.039  1.9258  1.3343  1.8066
   59MOL   H25638652   0.445   7.536   7.642  1.4061  1.8055  0.9309
   59MOL   H25738653   0.323   0.076   0.070  1.5079  1.1457  0.7108
   59MOL   H25838654   0.471   7.697   0.116 -2.2664 -1.5973  2.1915
   59MOL   H25938655   0.580   0.054   7.594  1.1681  1.2986  1.3307
   59MOL   H26038656   0.430   0.138   7.565  0.2927 -1.9362 -1.3763
   59MOL   H26138657   0.629   0.280   7.646 -0.1399  0.3575  1.1565
   59MOL   H26238658   0.603   0.216   0.103  0.4155 -0.5454 -0.2420
   59MOL   H26338659   0.477   0.401   0.125  1.9538 -0.8422  0.3851
   59MOL   H26438660   0.355   0.291   0.072  1.0205 -3.2385 -0.9604
   59MOL   H26538661   0.424   0.403   7.658 -1.2245  1.5463  0.9221
   59MOL   C26638662   7.477   7.519   7.248 -0.1645 -0.2975  0.6782
   59MOL   C26738663   7.446   7.629   7.357  0.5040 -0.4616 -0.4366
   59MOL   C26838664   7.346   7.563   7.458 -0.1371  0.0312 -0.6836
   59MOL   C26938665   7.302   7.650   7.568  0.4520 -0.1562 -0.1578
   59MOL   C27038666   7.223   7.570   7.677 -0.2245 -0.0609  0.1968
   59MOL   C27138667   7.288   7.446   0.039  0.3438 -0.1818  0.7570
   59MOL   C27238668   7.197   7.367   0.131 -0.7186  0.0205  0.2974
   59MOL   C27338669   7.263   7.268   0.225  0.3080 -0.3644 -0.1130
   59MOL   C27438670   7.171   7.187   0.317 -0.8055  0.3523  0.4124
   59MOL   C27538671   7.240   7.090   0.414  0.2414  0.3101 -0.0656
   59MOL   C27638672   7.333   7.159   0.519  1.0091  0.1602  0.2873
   59MOL   H27738673   7.453   7.418   7.280  0.2109 -0.1924  1.2862
   59MOL   H27838674   7.410   7.545   7.166 -0.4099 -1.2364  0.5738
   59MOL   H27938675   7.539   7.644   7.414  0.6075  0.6929 -0.8858
   59MOL   H28038676   7.261   7.515   7.410  0.1800  1.4687 -2.7218
   59MOL   H28138677   7.406   7.480   7.497  0.2859  0.8203  0.3853
   59MOL   H28238678   7.234   0.023   7.532  0.3943 -1.1443 -2.1855
   59MOL   H28338679   7.394   7.684   7.615  0.7026 -0.6559 -0.2757
   59MOL   H28438680   7.128   7.531   7.640  0.9032 -2.2690 -0.5242
   59MOL   H28538681   7.199   7.632   0.059 -0.3425  0.5368 -0.2716
   59MOL   H28638682   7.385   7.461   0.087  1.2568  0.0582 -1.1225
   59MOL   H28738683   7.308   7.378   7.659 -0.1063  0.4657  0.1128
   59MOL   H28838684   7.157   7.442   0.200 -2.5163 -0.8542  0.2477
   59MOL   H28938685   7.115   7.318   0.079 -1.4431  1.0122  0.4814
   59MOL   H29038686   7.326   7.330   0.287 -0.5092  0.4175 -0.0480
   59MOL   H29138687   7.317   7.204   0.155  2.1682  1.7162 -0.6178
   59MOL   H29238688   7.106   7.254   0.372 -0.9608  2.2298 -1.9882
   59MOL   H29338689   7.101   7.131   0.254  0.3759 -1.0069  0.2651
   59MOL   H29438690   7.303   7.019   0.360 -0.5108  0.0828 -0.6585
   59MOL   H29538691   7.172   7.035   0.480  0.9458  2.0010  2.1293
   59MOL   H29638692   7.412   7.210   0.465  0.7690  0.9342  0.6543
   59MOL   H29738693   7.367   7.085   0.592  1.5932  2.1023  2.0316
   59MOL   H29838694   7.279   7.238   0.571  1.8329  1.0718 -0.2174
   59MOL   C29938695   7.390   0.062   7.296  0.2090 -0.8944 -0.5759
   59MOL   C30038696   7.494   0.138   7.213  0.1733  0.5815 -0.0642
   59MOL   C30138697   7.614   0.183   7.292 -0.8651 -0.2195 -0.1164
   59MOL   C30238698   0.054   0.164   7.225  0.0265  0.2580  0.7767
   59MOL   C30338699   0.167   0.219   7.314 -0.0549  0.5041  0.7077
   59MOL   C30438700   0.159   0.374   7.312  0.1715 -0.4752  0.1089
   59MOL   C30538701   0.288   0.446   7.352  0.1584  0.3034 -0.1032
   59MOL   C30638702   0.280   0.597   7.336 -0.6113  1.1335  0.0393
   59MOL   C30738703   0.403   0.673   7.380  0.3983 -0.5303 -0.3859
   59MOL   C30838704   0.535   0.603   7.335  0.2653  0.1538  0.6304
   59MOL   C30938705   0.555   0.619   7.180 -0.2648  0.0367 -0.3495
   59MOL   H31038706   7.384   0.128   7.383  1.8824  2.2559 -2.7493
   59MOL   H31138707   7.297   0.053   7.240 -0.6207 -0.8252  0.7573
   59MOL   H31238708   7.530   0.064   7.142 -2.1176 -0.0347 -0.6271
   59MOL   H31338709   7.614   0.291   7.309  1.0302  0.0308 -1.5484
   59MOL   H31438710   7.611   0.131   7.388  0.9557  0.8793  0.5694
   59MOL   H31538711   0.079   0.061   7.202  1.8966  1.2618 -2.0701
   59MOL   H31638712   0.044   0.208   7.126 -3.0042 -1.8568  0.1031
   59MOL   H31738713   0.152   0.185   7.417  0.9299 -1.0106  0.3554
   59MOL   H31838714   0.259   0.188   7.267 -0.5789 -0.2084  0.1408
   59MOL   H31938715   0.070   0.420   7.355  1.3785  1.6644  0.4100
   59MOL   H32038716   0.150   0.413   7.211  5.3697  1.6576  0.3162
   59MOL   H32138717   0.324   0.408   7.448  1.5848  2.9115  0.4378
   59MOL   H32238718   0.360   0.413   7.276  0.3518  0.3740  0.0487
   59MOL   H32338719   0.186   0.637   7.375 -1.1010  1.6511 -1.6545
   59MOL   H32438720   0.270   0.613   7.229 -2.7320  0.9181  0.1819
   59MOL   H32538721   0.399   0.672   7.489  0.4345 -2.7679 -0.3804
   59MOL   H32638722   0.394   0.772   7.334 -0.9659 -0.2336  0.5110
   59MOL   H32738723   0.542   0.498   7.364  1.3283 -0.3338 -1.2679
   59MOL   H32838724   0.616   0.652   7.390 -0.8385  1.9983  0.6260
   59MOL   H32938725   0.651   0.574   7.156 -0.0023  1.0995 -1.3637
   59MOL   H33038726   0.484   0.568   7.114 -1.3592 -2.6700  2.7641
   59MOL   H33138727   0.568   0.723   7.148 -2.1096  0.6880  0.9389
   59MOL   C33238728   7.440   0.250   7.128  0.4616  0.1639  0.1834
   59MOL   C33338729   7.335   0.210   7.016 -0.3387  0.2435  0.2387
   59MOL   C33438730   7.401   0.132   6.899  0.8432  0.6119  0.2493
   59MOL   C33538731   7.506   0.211   6.813  0.4189 -0.4234 -0.1749
   59MOL   C33638732   7.558   0.140   6.678  0.3068  0.2892  0.2023
   59MOL   C33738733   7.458   0.154   6.561 -0.1048 -0.6144  0.1421
   59MOL   C33838734   7.480   0.060   6.445  0.2388 -0.3667  0.2227
   59MOL   C33938735   7.604   0.095   6.363 -1.0011  0.1661  0.3706
   59MOL   C34038736   7.591   0.072   6.212 -0.0717 -0.2617  0.4250
   59MOL   C34138737   7.566   7.628   6.175  0.0019 -0.6143  0.6328
   59MOL   C34238738   7.562   7.599   6.023 -0.6074 -0.2142  0.3553
   59MOL   H34338739   7.394   0.320   7.197  1.8754  1.4149 -0.1101
   59MOL   H34438740   7.521   0.313   7.092  0.6175  0.2544  0.6871
   59MOL   H34538741   7.260   0.145   7.059 -1.4124  0.1977 -1.6341
   59MOL   H34638742   7.333   0.091   6.824 -0.2418  1.3682  0.8106
   59MOL   H34738743   7.444   0.042   6.944  1.4594  0.5723 -0.4090
   59MOL   H34838744   7.465   0.306   6.778  2.2003  0.8724  1.1479
   59MOL   H34938745   7.588   0.240   6.879  0.5579 -0.1708 -0.4587
   59MOL   H35038746   7.657   0.168   6.643 -0.8185  0.9496 -2.5862
   59MOL   H35138747   7.572   0.033   6.692 -0.5596  0.1488  0.0326
   59MOL   H35238748   7.452   0.261   6.539  2.5517 -0.1970  1.2447
   59MOL   H35338749   7.363   0.117   6.598 -0.6332 -0.2167 -0.8075
   59MOL   H35438750   7.395   0.076   6.379  0.3985 -0.5710 -0.0347
   59MOL   H35538751   7.476   7.655   6.458 -2.2875 -0.0466  2.5937
   59MOL   H35638752   7.625   0.202   6.374  2.3948 -0.1798 -1.8939
   59MOL   H35738753   7.681   0.025   6.394 -0.8693  0.3879  0.5405
   59MOL   H35838754   7.684   0.107   6.168 -0.3717 -2.1664 -1.8448
   59MOL   H35938755   7.517   0.134   6.161  2.1860  2.5659  0.4760
   59MOL   H36038756   7.474   7.593   6.221 -0.3399 -0.8865 -0.2640
   59MOL   H36138757   7.644   7.569   6.223  0.6643 -0.4266 -0.1968
   59MOL   H36238758   7.531   7.495   6.013 -1.4290  0.0988 -0.4730
   59MOL   H36338759   7.499   7.662   5.959  1.6349  0.7053 -0.9990
   59MOL   H36438760   7.667   7.600   5.993 -0.6003 -0.8336  0.3643
   59MOL   C36538761   7.263   0.337   6.967  0.6115 -0.3540 -0.3540
   59MOL   C36638762   7.144   0.321   6.871  0.9395 -0.6062 -0.3873
   59MOL   C36738763   7.020   0.247   6.926 -0.3971  0.6664 -0.5978
   59MOL   C36838764   6.941   0.313   7.040 -0.0150 -0.0670 -0.1836
   59MOL   C36938765   6.990   0.266   7.187  0.0220 -0.2121  0.2389
   59MOL   C37038766   6.903   0.341   7.294 -0.5134 -0.2502  0.4720
   59MOL   C37138767   6.903   0.288   7.435  0.5765  0.5095 -0.0262
   59MOL   C37238768   7.033   0.303   7.512  0.1944 -0.0201 -0.5486
   59MOL   C37338769   7.037   0.256   7.661 -0.2125  0.0151  0.5503
   59MOL   C37438770   7.178   0.263   0.019 -0.6129 -0.5614  0.5664
   59MOL   C37538771   7.198   0.198   0.158 -0.2815  0.4511  0.2855
   59MOL   H37638772   7.214   0.396   7.046 -2.2844 -1.1108 -1.5087
   59MOL   H37738773   7.341   0.398   6.922  0.3874  0.1548 -0.0607
   59MOL   H37838774   7.174   0.265   6.782 -1.0920 -2.0757 -0.1781
   59MOL   H37938775   7.039   0.144   6.957  3.3138  2.2590  2.8768
   59MOL   H38038776   6.952   0.234   6.841  1.9722  0.0143 -2.4659
   59MOL   H38138777   6.836   0.285   7.034  0.4114 -2.2546  2.2197
   59MOL   H38238778   6.939   0.422   7.036  1.4498  0.0504  1.6058
   59MOL   H38338779   7.093   0.288   7.216  0.2386 -0.3848 -0.3993
   59MOL   H38438780   6.968   0.160   7.192  1.2293 -0.4556  0.6954
   59MOL   H38538781   6.799   0.343   7.261 -0.0416  2.5916 -1.0051
   59MOL   H38638782   6.926   0.447   7.295  0.2689 -0.4169  1.8618
   59MOL   H38738783   6.823   0.331   7.496 -0.8468 -0.2056 -1.3703
   59MOL   H38838784   6.894   0.180   7.437 -0.3094  0.6013  1.4641
   59MOL   H38938785   7.044   0.411   7.512  0.2006 -0.0231 -0.1309
   59MOL   H39038786   7.117   0.269   7.451  0.0978  0.2637 -0.8415
   59MOL   H39138787   6.980   0.329   0.016  1.5179  2.1711 -0.3995
   59MOL   H39238788   7.009   0.152   7.673  0.7432 -0.6136 -2.4592
   59MOL   H39338789   7.254   0.234   7.649  2.1082  1.4317  2.4888
   59MOL   H39438790   7.202   0.369   0.024 -2.6161 -0.0024 -1.1679
   59MOL   H39538791   7.256   0.106   0.149  0.2943  0.7750  0.6026
   59MOL   H39638792   7.101   0.184   0.204 -0.2321 -4.5264 -0.8506
   59MOL   H39738793   7.271   0.260   0.210  1.4041 -0.5920 -0.7760
   59MOL   C39838794   7.108   0.461   6.821  0.3733 -0.3590  0.3267
   59MOL   C39938795   6.992   0.476   6.713  0.0118  0.3024 -0.0711
   59MOL   C40038796   7.027   0.410   6.584 -0.2930  0.1752 -0.1574
   59MOL   C40138797   6.912   0.374   6.485 -0.1248  0.0750  0.4633
   59MOL   C40238798   6.962   0.301   6.362  0.0422 -0.0706  0.0307
   59MOL   C40338799   6.850   0.274   6.256 -0.3408 -0.2095  0.0029
   59MOL   C40438800   6.769   0.150   6.304  0.3108  0.1532 -0.1846
   59MOL   C40538801   6.618   0.149   6.257 -0.4975  0.1433 -0.0732
   59MOL   C40638802   6.568   0.003   6.261 -0.2899  0.0313  0.2388
   59MOL   C40738803   6.426   7.693   6.211 -0.5879  0.2007 -0.1287
   59MOL   C40838804   6.358   7.565   6.259 -0.0042 -0.2409  0.5468
   59MOL   H40938805   7.198   0.510   6.782  0.8604  2.1330  4.3154
   59MOL   H41038806   7.086   0.533   6.900  0.8797  3.1465 -2.5313
   59MOL   H41138807   6.895   0.435   6.745  0.2761 -0.5113 -0.2864
   59MOL   H41238808   7.079   0.317   6.605 -1.5613 -0.9034 -1.6378
   59MOL   H41338809   7.104   0.462   6.526  0.7742 -0.4813  0.6570
   59MOL   H41438810   6.827   0.323   6.529 -0.3124  0.1022  0.1362
   59MOL   H41538811   6.866   0.470   6.459 -0.9886 -0.7255 -1.0814
   59MOL   H41638812   7.026   0.371   6.309  0.9365 -0.3543  0.7285
   59MOL   H41738813   7.026   0.215   6.383  0.1513 -0.4367 -1.7346
   59MOL   H41838814   6.888   0.273   6.154  0.2404 -1.5348  0.2191
   59MOL   H41938815   6.793   0.367   6.260  2.3764  1.5669 -0.9211
   59MOL   H42038816   6.821   0.061   6.268 -0.7891  0.4134 -2.4768
   59MOL   H42138817   6.769   0.146   6.413 -1.3398  0.9013 -0.1449
   59MOL   H42238818   6.607   0.188   6.156 -1.5493 -0.8848 -0.3705
   59MOL   H42338819   6.553   0.214   6.317 -1.1238  0.1250 -0.7222
   59MOL   H42438820   6.643   7.664   6.195  0.6137  0.1758  1.1581
   59MOL   H42538821   6.583   7.658   6.357  0.5379  0.2444  0.2203
   59MOL   H42638822   6.425   7.686   6.102 -0.0530 -2.3446 -0.0001
   59MOL   H42738823   6.365   0.079   6.230 -0.3222  0.2958  0.2747
   59MOL   H42838824   6.380   7.483   6.191  2.0656  1.6594 -1.1672
   59MOL   H42938825   6.252   7.584   6.274 -0.3492 -1.9280  0.3684
   59MOL   H43038826   6.397   7.541   6.358  0.1193 -1.2774  0.2525
   59MOL   C43138827   6.959   0.623   6.696 -0.4261 -1.1126  0.3260
   59MOL   C43238828   6.880   0.686   6.815 -0.3792 -0.0005 -0.4315
   59MOL   C43338829   6.735   0.651   6.812 -0.4163 -0.5987 -0.7374
   59MOL   C43438830   6.653   0.660   6.939 -0.1488 -0.0069 -0.6195
   59MOL   C43538831   6.598   0.516   6.981 -0.2392 -0.0815 -0.7470
   59MOL   C43638832   6.482   0.523   7.084  0.5343  0.5026 -0.3416
   59MOL   C43738833   6.436   0.386   7.126  0.3905  0.4667  0.3614
   59MOL   C43838834   6.300   0.379   7.204  0.9286 -0.1950  0.4063
   59MOL   C43938835   6.237   0.235   7.204  0.0256 -0.0158  0.0125
   59MOL   C44038836   6.101   0.228   7.270  0.1927 -0.5579  0.3696
   59MOL   C44138837   6.049   0.085   7.278 -0.2071 -0.8177 -0.2337
   59MOL   H44238838   6.910   0.638   6.600 -1.1856  0.1384  0.9024
   59MOL   H44338839   7.051   0.682   6.690 -2.0507  1.5262  0.5300
   59MOL   H44438840   6.914   0.652   6.913 -0.0769  0.6389 -0.3122
   59MOL   H44538841   6.692   0.727   6.747 -2.6766 -1.2658 -0.0965
   59MOL   H44638842   6.725   0.553   6.766  2.7426 -2.8713  3.1253
   59MOL   H44738843   6.561   0.715   6.922  0.9230  2.0733  0.1701
   59MOL   H44838844   6.707   0.703   7.024 -0.3920  0.1326 -0.5372
   59MOL   H44938845   6.679   0.463   7.031 -1.0480  0.7256  1.4438
   59MOL   H45038846   6.568   0.463   6.890  2.3963 -3.8334  0.4768
   59MOL   H45138847   6.403   0.576   7.031  0.2336 -1.5874 -2.0408
   59MOL   H45238848   6.509   0.575   7.176  0.1043  2.0050 -1.0441
   59MOL   H45338849   6.513   0.343   7.191 -1.4254 -2.1797  0.8689
   59MOL   H45438850   6.433   0.330   7.033 -0.6253  0.5321  0.3416
   59MOL   H45538851   6.322   0.432   7.296  1.1013 -1.2242  0.9576
   59MOL   H45638852   6.231   0.440   7.145 -1.2238 -2.4102  0.5580
   59MOL   H45738853   6.303   0.170   7.262 -1.0790 -0.4590  0.8052
   59MOL   H45838854   6.247   0.186   7.107 -0.8408  0.9201 -0.5628
   59MOL   H45938855   6.031   0.293   7.217  0.7352 -0.6182 -0.4132
   59MOL   H46038856   6.115   0.266   7.372 -2.0074 -0.9808  0.8734
   59MOL   H46138857   6.045   0.028   7.185 -1.4217 -1.9664  0.5061
   59MOL   H46238858   6.117   0.030   7.343  0.8802  0.9435  0.1403
   59MOL   H46338859   5.950   0.084   7.324  0.3221 -1.1641  0.9259
   59MOL   C46438860   6.913   0.831   6.832  0.4279  0.4583 -0.0779
   59MOL   C46538861   7.059   0.860   6.889 -0.0798 -0.3196 -0.2588
   59MOL   C46638862   7.136   0.955   6.796  0.4165 -0.3781  0.1187
   59MOL   C46738863   7.219   0.888   6.683 -0.2867 -0.3828 -0.7008
   59MOL   C46838864   7.329   0.980   6.628 -0.3720 -0.0711  0.3552
   59MOL   C46938865   7.440   0.905   6.557 -0.1471  0.4508  0.6973
   59MOL   C47038866   7.543   1.008   6.500  0.1147 -0.1711 -0.2458
   59MOL   C47138867   7.654   0.932   6.434 -0.3078  0.2517 -0.3100
   59MOL   C47238868   0.052   1.030   6.380  0.6325  0.0440 -0.4744
   59MOL   C47338869   0.136   0.979   6.257 -0.7467 -0.4510 -0.1031
   59MOL   C47438870   0.231   1.083   6.197 -0.3767 -0.3605  0.2497
   59MOL   H47538871   6.838   0.892   6.883  0.6101  0.9241 -0.3628
   59MOL   H47638872   6.905   0.872   6.731  0.0406 -0.8071 -0.5621
   59MOL   H47738873   7.107   0.762   6.895 -0.1768 -0.2331  3.2211
   59MOL   H47838874   7.220   0.997   6.852 -1.0600  1.0577  1.3303
   59MOL   H47938875   7.074   1.036   6.756 -1.1334 -1.4822  0.2181
   59MOL   H48038876   7.262   0.790   6.703 -1.6402 -0.6260  1.0859
   59MOL   H48138877   7.140   0.867   6.611 -2.0240  2.9731  0.1053
   59MOL   H48238878   7.370   1.031   6.715 -0.1924 -0.6496  0.6134
   59MOL   H48338879   7.296   1.049   6.551  0.2665  1.0568  1.0709
   59MOL   H48438880   7.489   0.830   6.619 -0.7220 -0.1991  0.3698
   59MOL   H48538881   7.397   0.845   6.477  0.3908  0.6801  0.2293
   59MOL   H48638882   7.500   1.082   6.433  1.9074  0.4726 -0.7098
   59MOL   H48738883   7.579   1.065   6.586  0.1840 -0.2918 -0.1945
   59MOL   H48838884   0.005   0.876   6.510  1.8227  1.1727 -1.1211
   59MOL   H48938885   7.616   0.874   6.350 -1.0622 -0.1581  0.3060
   59MOL   H49038886   0.002   1.122   6.350  1.7261  1.3063  1.5172
   59MOL   H49138887   0.117   1.066   6.460  1.2985  0.2527 -1.1029
   59MOL   H49238888   0.190   0.893   6.296 -0.6644  0.2841  1.4171
   59MOL   H49338889   0.063   0.944   6.184  1.1354  0.8197 -2.6897
   59MOL   H49438890   0.287   1.041   6.114 -1.4072 -0.3352 -0.4665
   59MOL   H49538891   0.300   1.123   6.272  1.9192 -0.1890 -1.8885
   59MOL   H49638892   0.177   1.168   6.154  0.7571 -0.3089 -1.1015
   59MOL   C49738893   7.041   0.905   7.038  0.1626  0.1704  0.0709
   59MOL   C49838894   7.173   0.895   7.121  0.3764 -0.0758 -0.0560
   59MOL   C49938895   7.172   0.773   7.213  0.1269  0.7962 -0.9961
   59MOL   C50038896   7.298   0.744   7.301  0.6199  0.2015 -0.1801
   59MOL   C50138897   7.287   0.616   7.387 -0.6977 -0.5728  0.0290
   59MOL   C50238898   7.425   0.561   7.429 -0.1802  0.1227 -0.4020
   59MOL   C50338899   7.408   0.465   7.546 -0.0758 -0.3328  0.1802
   59MOL   C50438900   7.543   0.422   7.612  0.3528  0.2736 -0.0409
   59MOL   C50538901   7.531   0.376   0.055 -0.1808  0.5100 -0.2345
   59MOL   C50638902   7.658   0.317   0.123  0.3623  0.3012 -0.0599
   59MOL   C50738903   0.011   0.186   0.073 -0.4411 -0.1795  0.2809
   59MOL   H50838904   6.990   1.001   7.042 -0.2766 -0.0552 -0.0548
   59MOL   H50938905   6.976   0.829   7.082 -1.6795  0.8857 -1.3592
   59MOL   H51038906   7.261   0.877   7.058  0.6563 -1.8208  0.7976
   59MOL   H51138907   7.137   0.683   7.161 -0.4880  0.7618 -0.5260
   59MOL   H51238908   7.097   0.802   7.286  0.6821  0.1599 -0.1562
   59MOL   H51338909   7.316   0.831   7.363 -0.7742  0.6700 -0.4171
   59MOL   H51438910   7.388   0.725   7.242 -0.1470 -1.2462 -0.9371
   59MOL   H51538911   7.240   0.645   7.481  1.2521 -3.6722  2.0540
   59MOL   H51638912   7.231   0.538   7.336 -1.0220  0.8483 -1.8250
   59MOL   H51738913   7.472   0.515   7.343  1.9440 -0.2342  0.9104
   59MOL   H51838914   7.508   0.630   7.438 -1.1590  1.1432  1.1565
   59MOL   H51938915   7.358   0.528   7.620 -0.7393 -0.8511  0.1699
   59MOL   H52038916   7.337   0.384   7.533  1.1468 -1.3076 -0.4726
   59MOL   H52138917   7.620   0.499   7.611 -1.2873  1.9250  0.1572
   59MOL   H52238918   7.575   0.342   7.545 -0.1548  0.6224 -0.7058
   59MOL   H52338919   7.453   0.300   0.059 -1.1833  1.5734  1.6366
   59MOL   H52438920   7.500   0.467   0.107 -0.8170 -0.9522  2.0319
   59MOL   H52538921   7.628   0.306   0.227 -1.3520 -2.9438 -0.8162
   59MOL   H52638922   0.029   0.396   0.115  0.4387  0.0264 -2.3938
   59MOL   H52738923   0.094   0.162   0.139  1.8407  2.1508 -1.6844
   59MOL   H52838924   0.041   0.195   7.672  0.5064  0.9701  0.6476
   59MOL   H52938925   7.644   0.103   0.085  0.5731 -1.4770 -2.3789
   59MOL   C53038926   7.196   1.023   7.202 -0.9056 -0.3600 -0.0213
   59MOL   C53138927   7.226   1.149   7.118 -0.4269 -0.1065  0.7616
   59MOL   C53238928   7.377   1.153   7.082 -0.6935  0.5258  0.2996
   59MOL   C53338929   7.405   1.246   6.963 -0.3855 -0.2702 -0.0672
   59MOL   C53438930   7.555   1.254   6.926 -0.4261 -0.2929  0.2602
   59MOL   C53538931   7.631   1.338   7.034  0.6010  0.1270  0.1976
   59MOL   C53638932   0.073   1.351   6.996 -0.2506  0.0390  0.3320
   59MOL   C53738933   0.155   1.401   7.110 -0.2171  0.0518  0.0259
   59MOL   C53838934   0.295   1.446   7.068  0.1162  0.3107  0.0758
   59MOL   C53938935   0.373   1.524   7.170  0.0431 -0.3464 -0.2423
   59MOL   C54038936   0.498   1.606   7.141  0.1864 -0.5954  0.3205
   59MOL   H54138937   7.111   1.026   7.269 -0.9210 -2.8054  0.1198
   59MOL   H54238938   7.287   1.007   7.261 -2.0911 -4.1813  0.9020
   59MOL   H54338939   7.171   1.153   7.024  0.0020 -1.8631  0.4115
   59MOL   H54438940   7.416   1.054   7.060  1.8579  0.8852  3.0150
   59MOL   H54538941   7.434   1.195   7.165 -0.8755  0.9774  0.1990
   59MOL   H54638942   7.379   1.351   6.975 -0.1209  0.1558 -2.9178
   59MOL   H54738943   7.355   1.213   6.872 -1.8147 -0.7923  0.9074
   59MOL   H54838944   7.559   1.303   6.829  1.5071 -0.8588  0.0435
   59MOL   H54938945   7.590   1.151   6.913  1.9246  0.2423  1.9918
   59MOL   H55038946   7.624   1.289   7.131  1.0149 -0.7170 -0.1922
   59MOL   H55138947   7.596   1.441   7.045  0.5707  0.4110 -2.2389
   59MOL   H55238948   0.082   1.430   6.922  0.8526 -0.5782 -0.2115
   59MOL   H55338949   0.117   1.259   6.957 -0.3436  0.0846  0.1202
   59MOL   H55438950   0.166   1.322   7.184  0.6773 -2.0146 -2.2390
   59MOL   H55538951   0.109   1.489   7.156  0.8961  0.0743  1.1172
   59MOL   H55638952   0.285   1.511   6.982  0.0570  1.4629  0.9481
   59MOL   H55738953   0.341   1.354   7.029  1.2213  0.6792  0.4845
   59MOL   H55838954   0.397   1.456   7.252  5.1661  2.2120  0.6113
   59MOL   H55938955   0.306   1.600   7.210  1.1895  0.1291  0.8093
   59MOL   H56038956   0.501   1.644   7.038 -0.2010 -2.2897 -0.3258
   59MOL   H56138957   0.510   1.697   7.200  0.9761 -0.9536  0.7137
   59MOL   H56238958   0.593   1.554   7.156 -0.1404 -1.8311 -1.7050
   59MOL   C56338959   7.197   1.272   7.207 -0.0509 -0.3982 -0.4866
   59MOL   C56438960   7.042   1.309   7.207  0.4078  0.3975 -0.8334
   59MOL   C56538961   6.993   1.356   7.065  0.9235  0.1683  0.6143
   59MOL   C56638962   6.851   1.302   7.035 -0.0143  0.0821  0.0784
   59MOL   C56738963   6.812   1.337   6.894  0.0574  0.2230 -0.2101
   59MOL   C56838964   6.663   1.309   6.857 -0.5303  0.3406  0.8216
   59MOL   C56938965   6.638   1.153   6.854  0.6247  0.6751  0.4470
   59MOL   C57038966   6.501   1.118   6.796 -0.3368  0.9076 -0.4166
   59MOL   C57138967   6.463   0.970   6.795 -0.4723 -0.0435 -0.4405
   59MOL   C57238968   6.330   0.944   6.728 -0.1914 -0.3068 -0.7395
   59MOL   C57338969   6.283   0.802   6.735 -0.2807 -0.2485  0.0917
   59MOL   H57438970   7.258   1.359   7.182 -3.1390  2.1119  0.3517
   59MOL   H57538971   7.219   1.242   7.309 -0.4856 -1.6838 -0.7544
   59MOL   H57638972   6.992   1.212   7.207  1.8211 -0.3590 -1.0695
   59MOL   H57738973   7.061   1.335   6.983 -2.2804 -0.4057 -2.0085
   59MOL   H57838974   6.983   1.464   7.079 -0.2509  0.1331  0.1541
   59MOL   H57938975   6.778   1.354   7.097 -0.4622 -1.1996  0.6339
   59MOL   H58038976   6.844   1.197   7.061  2.2653  0.9382  4.6035
   59MOL   H58138977   6.874   1.275   6.829 -0.6982 -0.1253 -0.6055
   59MOL   H58238978   6.840   1.442   6.885  2.9928 -0.4846  0.1590
   59MOL   H58338979   6.606   1.347   6.942  2.1002  1.1614  2.2723
   59MOL   H58438980   6.651   1.352   6.758 -1.8825 -1.8427 -0.0007
   59MOL   H58538981   6.716   1.098   6.802  0.9889  1.5976  0.0058
   59MOL   H58638982   6.657   1.114   6.954 -0.1021 -1.9553 -0.4119
   59MOL   H58738983   6.506   1.148   6.691 -0.0047 -0.3059 -0.7455
   59MOL   H58838984   6.419   1.174   6.842  0.6787  1.8582  0.2365
   59MOL   H58938985   6.450   0.955   6.902  0.7063  0.3888 -0.2270
   59MOL   H59038986   6.539   0.906   6.752  0.8066  0.6836  0.6877
   59MOL   H59138987   6.347   0.967   6.623  0.4514 -0.0672 -0.5914
   59MOL   H59238988   6.241   0.998   6.758  0.4859 -0.0577  0.8803
   59MOL   H59338989   6.254   0.783   6.838  4.4571 -2.2581  1.2168
   59MOL   H59438990   6.204   0.778   6.665 -0.0408  3.2205 -1.5073
   59MOL   H59538991   6.374   0.744   6.717  0.2747  0.6274  0.0109
   59MOL   C59638992   6.991   1.408   7.313  0.1543 -0.0850  0.2236
   59MOL   C59738993   6.986   1.370   7.468  0.5398  0.2332  0.8180
   59MOL   C59838994   6.851   1.301   7.494  0.3775  0.3614  0.4426
   59MOL   C59938995   6.793   1.203   7.398  0.6325  0.1009 -0.3888
   59MOL   C60038996   6.653   1.161   7.411  0.1129 -0.1904 -0.1826
   59MOL   C60138997   6.613   1.053   7.313 -0.1462  0.5132 -0.3233
   59MOL   C60238998   6.463   1.011   7.324 -0.4660 -0.3905  0.1030
   59MOL   C60338999   6.424   0.894   7.228 -0.0529  0.1403 -0.2811
   59MOL   C60439000   6.271   0.891   7.213  0.2429 -0.1226  0.0177
   59MOL   C60539001   6.215   0.748   7.194 -0.2042 -0.2960  0.2127
   59MOL   C60639002   6.070   0.747   7.228  0.1563 -0.6590 -0.4565
   59MOL   H60739003   7.055   1.495   7.296 -1.0696  0.9542  0.8193
   59MOL   H60839004   6.893   1.450   7.288 -0.1473 -1.1029 -0.3284
   59MOL   H60939005   7.063   1.295   7.482 -2.5980 -3.4409 -0.8686
   59MOL   H61039006   6.784   1.387   7.494 -0.6795 -0.3934 -2.4564
   59MOL   H61139007   6.848   1.266   7.597  0.5685 -0.1741  0.2682
   59MOL   H61239008   6.859   1.116   7.405  0.8123  0.2659 -0.0071
   59MOL   H61339009   6.811   1.231   7.294  0.7225 -1.2203 -0.7376
   59MOL   H61439010   6.580   1.242   7.416 -1.0989 -1.4047  3.0773
   59MOL   H61539011   6.635   1.119   7.509  1.8741  1.8334  1.0566
   59MOL   H61639012   6.643   1.068   7.209  0.7784 -1.7191 -0.3980
   59MOL   H61739013   6.682   0.970   7.332 -2.6558 -1.4530  0.4264
   59MOL   H61839014   6.397   1.097   7.317  1.8403  1.5587  1.3857
   59MOL   H61939015   6.448   0.969   7.424 -0.6598  0.7690  0.5720
   59MOL   H62039016   6.450   0.800   7.275 -0.2825  0.1547 -0.1232
   59MOL   H62139017   6.475   0.899   7.132  0.3738 -0.1910 -0.0722
   59MOL   H62239018   6.228   0.922   7.308 -1.8390 -0.4870 -0.7747
   59MOL   H62339019   6.234   0.966   7.143 -0.1604  0.7676  1.1750
   59MOL   H62439020   6.269   0.682   7.261  1.4028  1.1244  0.3726
   59MOL   H62539021   6.226   0.720   7.089 -1.7238 -0.5184  0.1007
   59MOL   H62639022   6.058   0.793   7.326  2.3428 -1.6868  0.3062
   59MOL   H62739023   6.019   0.813   7.157 -0.5064 -1.3160 -0.5932
   59MOL   H62839024   6.034   0.644   7.224  1.2830 -1.2005  2.4672
   59MOL   C62939025   6.989   1.501   7.546  0.4356  0.1220  0.6227
   59MOL   C63039026   7.129   1.544   7.577  0.0912 -0.6919  0.5584
   59MOL   C63139027   7.147   1.651   7.687  0.1060 -0.5468  0.0905
   59MOL   C63239028   7.294   1.690   7.698  0.3141 -0.6842 -0.0734
   59MOL   C63339029   7.321   1.814   0.080  0.1487  0.6420  0.3878
   59MOL   C63439030   7.373   1.781   0.222 -0.4010 -0.4269  0.5001
   59MOL   C63539031   7.385   1.900   0.315 -0.0707 -0.7064 -0.3501
   59MOL   C63639032   7.414   1.854   0.461 -0.0910 -0.3097  0.2001
   59MOL   C63739033   7.492   1.944   0.553 -0.9396  0.0495 -0.5334
   59MOL   C63839034   7.428   2.086   0.572  0.2393 -0.2531  0.4451
   59MOL   C63939035   7.522   2.188   0.639  0.1189  0.8255 -0.4704
   59MOL   H64039036   6.933   1.581   7.497 -2.4780 -1.9407  0.4234
   59MOL   H64139037   6.943   1.484   7.643  1.2412 -0.5233  0.8960
   59MOL   H64239038   7.181   1.456   7.615 -0.2951 -0.9937  0.3892
   59MOL   H64339039   7.099   1.733   7.633 -1.2695 -0.9904  0.6125
   59MOL   H64439040   7.100   1.623   0.078  1.4058  0.4670  1.0669
   59MOL   H64539041   7.346   1.702   7.604  1.5079 -0.7799  0.5675
   59MOL   H64639042   7.339   1.596   0.029 -0.3558  0.0858  3.0665
   59MOL   H64739043   7.232   1.877   0.078 -0.9862 -0.9616 -0.8196
   59MOL   H64839044   7.403   1.865   0.029 -0.1702  1.4153  0.6414
   59MOL   H64939045   7.470   1.730   0.214 -0.9779 -1.4163 -0.3606
   59MOL   H65039046   7.304   1.710   0.268  1.5018 -1.0886  2.4561
   59MOL   H65139047   7.290   1.952   0.310  1.0900  1.3975 -0.8604
   59MOL   H65239048   7.474   1.953   0.279 -0.0822  0.1984  0.9427
   59MOL   H65339049   7.482   1.769   0.463 -0.4529 -0.6479 -1.3646
   59MOL   H65439050   7.317   1.818   0.495 -0.2795 -0.3782 -0.4124
   59MOL   H65539051   7.588   1.967   0.506  0.0404  1.6152  2.1167
   59MOL   H65639052   7.506   1.899   0.651  0.1423  0.7396 -0.3641
   59MOL   H65739053   7.341   2.077   0.637  0.3179  0.0947  0.6036
   59MOL   H65839054   7.403   2.121   0.472  0.4317 -2.1531 -0.2946
   59MOL   H65939055   7.524   2.169   0.747  4.0830 -0.3932 -0.6583
   59MOL   H66039056   7.481   2.288   0.626  3.3095  2.1617 -0.7004
   59MOL   H66139057   7.623   2.185   0.599 -0.4129 -0.1312 -1.7642
   59MOL   H66239058   7.178   1.583   7.489  0.9294 -0.0377  1.3064
   60MOL     C139059   5.370   7.101   5.586 -0.2939  0.4741 -0.8466
   60MOL     C239060   5.426   6.973   5.657 -0.2567  0.6922 -0.6394
   60MOL     C339061   5.325   6.933   5.762 -0.9565  0.1921  0.5980
   60MOL     C439062   5.341   7.012   5.890  0.2898 -0.2787 -0.4173
   60MOL     C539063   5.258   6.963   6.006  0.0530  0.0861 -0.8241
   60MOL     C639064   5.258   7.035   6.138 -0.2615 -0.0434  0.3656
   60MOL     C739065   5.179   6.982   6.250 -0.5538 -0.1393 -0.3338
   60MOL     C839066   5.187   7.071   6.381  0.0330 -0.7036 -0.2882
   60MOL     C939067   5.328   7.077   6.461 -0.5760 -0.8866  0.2886
   60MOL    C1039068   5.369   6.935   6.511 -0.2706  0.2769  0.3082
   60MOL    C1139069   5.497   6.941   6.594  0.3388 -0.4498  0.7581
   60MOL    H1239070   5.426   7.125   5.495  2.1806  0.5373  0.6298
   60MOL    H1339071   5.359   7.190   5.648 -2.0288  1.4420 -2.4723
   60MOL    H1439072   5.513   7.019   5.705  0.5784  0.5500 -1.9688
   60MOL    H1539073   5.330   6.825   5.774  2.0287  0.1461 -0.5878
   60MOL    H1639074   5.228   6.947   5.716 -1.1365  2.7686  1.6610
   60MOL    H1739075   5.324   7.119   5.883  1.8033  0.0015 -0.0079
   60MOL    H1839076   5.447   7.007   5.916 -0.2969 -0.7673  2.0305
   60MOL    H1939077   5.153   6.962   5.975  0.0687 -0.5063 -0.8647
   60MOL    H2039078   5.278   6.856   6.014  0.7060  0.3359  1.4113
   60MOL    H2139079   5.217   7.135   6.124  0.9163  0.8036  2.7407
   60MOL    H2239080   5.362   7.055   6.164 -0.3564  1.6111 -0.4908
   60MOL    H2339081   5.074   6.962   6.226 -0.9121 -2.7657  3.0941
   60MOL    H2439082   5.218   6.882   6.269 -3.6203 -1.1820  0.7484
   60MOL    H2539083   5.117   7.028   6.452 -1.2395  1.6027 -0.1070
   60MOL    H2639084   5.147   7.170   6.359  3.0522  0.4862 -0.6817
   60MOL    H2739085   5.321   7.149   6.543  3.0235  0.7628 -0.7527
   60MOL    H2839086   5.404   7.118   6.395 -0.4363 -1.2719  0.2160
   60MOL    H2939087   5.406   6.884   6.422 -0.4843  2.1478 -0.8737
   60MOL    H3039088   5.296   6.869   6.557  0.4273 -0.9538 -0.3314
   60MOL    H3139089   5.529   6.838   6.607  0.6802 -0.3526  0.6935
   60MOL    H3239090   5.583   6.995   6.553 -0.3750  0.6122  0.6608
   60MOL    H3339091   5.484   6.991   6.690  1.8157 -0.9545  1.2407
   60MOL    H3439092   5.271   7.079   5.548 -0.3076 -1.3068  0.1806
   60MOL    C3539093   5.458   6.863   5.560 -0.6867  0.5177 -0.1411
   60MOL    C3639094   5.565   6.898   5.454  0.0490 -0.2649 -0.0496
   60MOL    C3739095   5.696   6.966   5.509  0.5124  0.4834 -0.3449
   60MOL    C3839096   5.790   7.020   5.400 -0.6650  0.1096  0.1578
   60MOL    C3939097   5.903   7.105   5.460  0.2959 -0.0841 -0.3951
   60MOL    C4039098   6.024   7.023   5.508 -0.3581  0.0156 -0.3810
   60MOL    C4139099   6.154   7.108   5.534 -0.0673  0.0950  0.1156
   60MOL    C4239100   6.287   7.027   5.550 -0.2097  0.6724 -0.1791
   60MOL    C4339101   6.412   7.117   5.575  0.2974  0.6253  0.1503
   60MOL    C4439102   6.524   7.021   5.589 -0.4859  0.0599  0.4300
   60MOL    C4539103   6.657   7.097   5.560 -0.1623 -0.7088 -0.2667
   60MOL    H4639104   5.382   6.805   5.509 -1.1458  0.0932  1.0044
   60MOL    H4739105   5.515   6.788   5.615  1.1049  0.6195 -1.8145
   60MOL    H4839106   5.524   6.970   5.382 -0.7219  1.7020  2.2779
   60MOL    H4939107   5.671   7.045   5.580  0.8591 -0.6562  1.0764
   60MOL    H5039108   5.754   6.892   5.565 -1.8289 -0.4004  0.9743
   60MOL    H5139109   5.725   7.082   5.338  1.5106  0.7935 -1.5035
   60MOL    H5239110   5.833   6.940   5.340 -1.4250 -0.5026  0.4125
   60MOL    H5339111   5.868   7.172   5.539  2.9941  0.0024  0.7909
   60MOL    H5439112   5.925   7.170   5.375  1.7636  1.4747  1.1269
   60MOL    H5539113   6.050   6.951   5.430 -1.0120 -0.6463  0.0011
   60MOL    H5639114   5.992   6.962   5.593 -0.3242  1.3597  0.6004
   60MOL    H5739115   6.161   7.169   5.444 -0.8570 -0.0575 -0.0538
   60MOL    H5839116   6.139   7.185   5.610  0.8294  2.4643 -2.0527
   60MOL    H5939117   6.294   6.951   5.473 -1.5416 -0.9030  1.2237
   60MOL    H6039118   6.270   6.981   5.648  0.5228 -0.2883 -0.5009
   60MOL    H6139119   6.390   7.168   5.669 -3.0917 -0.0734 -0.2123
   60MOL    H6239120   6.425   7.191   5.496  1.2932  0.7638  0.4350
   60MOL    H6339121   6.520   6.978   5.689 -1.2072 -0.6360  0.1085
   60MOL    H6439122   6.523   6.940   5.516  1.1985  1.0345 -0.6904
   60MOL    H6539123   6.737   7.025   5.542  0.5211  0.1010 -0.5152
   60MOL    H6639124   6.650   7.153   5.467 -1.1717 -1.7761 -0.8459
   60MOL    H6739125   6.687   7.162   5.642 -1.8491  1.6930 -1.5067
   60MOL    C6839126   5.596   6.769   5.371  0.0747  0.5935  0.6159
   60MOL    C6939127   5.504   6.764   5.245  0.0985  0.3873  0.4332
   60MOL    C7039128   5.546   6.853   5.130  0.6257  0.5634  0.2783
   60MOL    C7139129   5.690   6.858   5.080  0.9956 -0.5097 -1.0051
   60MOL    C7239130   5.714   6.893   4.934  0.2438  0.5498 -0.2696
   60MOL    C7339131   5.864   6.875   4.893 -0.6518  0.3674 -0.0737
   60MOL    C7439132   5.890   6.892   4.742 -0.1151 -0.2134 -0.2956
   60MOL    C7539133   6.033   6.955   4.716  0.2430  0.3762  0.1987
   60MOL    C7639134   6.052   6.978   4.566  0.0646  0.1140 -0.6633
   60MOL    C7739135   6.003   7.108   4.521 -0.5915 -0.0740 -0.0387
   60MOL    C7839136   6.050   7.142   4.380 -0.4760 -0.3206 -0.9096
   60MOL    H7939137   5.585   6.679   5.430 -1.0045 -1.2418 -2.2668
   60MOL    H8039138   5.702   6.773   5.345 -0.0927 -1.4815 -0.4400
   60MOL    H8139139   5.403   6.789   5.277 -0.7649  1.0293 -2.5748
   60MOL    H8239140   5.516   6.951   5.167 -0.8693 -1.3361  4.4018
   60MOL    H8339141   5.480   6.846   5.043 -0.8740  1.8008  1.2729
   60MOL    H8439142   5.744   6.921   5.151  0.5786 -1.1257 -0.1262
   60MOL    H8539143   5.730   6.757   5.086 -0.8206 -1.2878 -1.5794
   60MOL    H8639144   5.681   6.996   4.916 -0.3736  1.1903  3.9878
   60MOL    H8739145   5.660   6.823   4.870  0.2556 -0.2730  0.6070
   60MOL    H8839146   5.929   6.944   4.947 -1.9197  1.0767  0.5769
   60MOL    H8939147   5.896   6.777   4.929  2.4015  1.5587  0.5670
   60MOL    H9039148   5.822   6.971   4.711 -0.0797  0.2818  0.8449
   60MOL    H9139149   5.885   6.796   4.690 -0.5792 -0.1575 -0.3526
   60MOL    H9239150   6.044   7.047   4.773 -2.2146  0.9727 -0.2449
   60MOL    H9339151   6.096   6.872   4.749 -1.6181 -0.2709  2.2908
   60MOL    H9439152   6.161   6.985   4.559  0.1137 -0.0788 -0.0477
   60MOL    H9539153   6.029   6.895   4.499  0.1202 -2.8235  2.8245
   60MOL    H9639154   5.896   7.109   4.542 -0.3875  0.1753  1.0413
   60MOL    H9739155   6.037   7.182   4.594  1.3791 -1.2932  0.2872
   60MOL    H9839156   6.014   7.058   4.320  1.7304 -1.1456 -1.1374
   60MOL    H9939157   6.159   7.147   4.370 -0.1721 -2.8387  0.5411
   60MOL   H10039158   5.995   7.223   4.333  0.9239  0.8802 -0.5335
   60MOL   C10139159   5.498   6.615   5.194 -0.2863  0.4831  0.3116
   60MOL   C10239160   5.425   6.520   5.287 -0.6494  0.0853  0.0618
   60MOL   C10339161   5.510   6.396   5.311 -0.1797 -0.0214 -0.1061
   60MOL   C10439162   5.453   6.285   5.407  0.2317 -0.6896 -0.1935
   60MOL   C10539163   5.390   6.339   5.549  0.0305 -0.0710  0.0088
   60MOL   C10639164   5.482   6.400   5.652 -0.1500  0.1496 -0.7829
   60MOL   C10739165   5.400   6.432   5.782  0.2362 -0.0124  0.4063
   60MOL   C10839166   5.485   6.465   5.904  0.0081 -0.7085  0.1314
   60MOL   C10939167   5.404   6.530   6.022  0.0774 -0.7350 -0.3114
   60MOL   C11039168   5.491   6.589   6.135  0.0004  0.4871 -0.2762
   60MOL   C11139169   5.593   6.490   6.199 -0.4821 -0.2351  0.4968
   60MOL   H11239170   5.464   6.607   5.091  0.4103  1.7240 -0.0232
   60MOL   H11339171   5.600   6.575   5.192  0.7797  3.0063  1.6092
   60MOL   H11439172   5.405   6.569   5.383 -0.1949  1.1722 -0.3925
   60MOL   H11539173   5.530   6.351   5.213 -1.4064 -1.8753  0.4731
   60MOL   H11639174   5.605   6.410   5.363 -0.2623  0.2747 -0.0340
   60MOL   H11739175   5.388   6.223   5.345 -1.2458  0.3058  0.3390
   60MOL   H11839176   5.525   6.208   5.435  0.3848  0.2784  2.2523
   60MOL   H11939177   5.318   6.416   5.521  2.1276  0.9424 -2.6821
   60MOL   H12039178   5.332   6.257   5.593  2.2250 -1.0983  1.0897
   60MOL   H12139179   5.555   6.325   5.680 -0.5261  0.0003 -0.2009
   60MOL   H12239180   5.532   6.493   5.626  1.3651 -0.3104  0.4645
   60MOL   H12339181   5.329   6.351   5.799 -1.6651  1.1875 -1.6559
   60MOL   H12439182   5.325   6.507   5.756  0.0305 -1.1599 -2.4394
   60MOL   H12539183   5.542   6.377   5.932  1.2275  0.1783  0.4841
   60MOL   H12639184   5.554   6.542   5.872 -2.8272  2.0141  0.2785
   60MOL   H12739185   5.352   6.622   5.997 -0.5846 -1.3337 -1.1602
   60MOL   H12839186   5.325   6.469   6.066 -0.5889 -0.9470 -1.7854
   60MOL   H12939187   5.421   6.630   6.208 -0.3328 -1.3169  0.4370
   60MOL   H13039188   5.542   6.671   6.084 -1.5862  2.7161  1.6012
   60MOL   H13139189   5.666   6.458   6.125  0.6195  0.6388  1.1839
   60MOL   H13239190   5.652   6.531   6.282  0.0665  2.1247 -1.0148
   60MOL   H13339191   5.539   6.406   6.242  1.1276 -0.6306  1.8007
   60MOL   C13439192   5.289   6.482   5.225 -0.4156 -0.6821  0.1440
   60MOL   C13539193   5.185   6.599   5.213 -0.1007  0.8602  0.1658
   60MOL   C13639194   5.126   6.628   5.353 -0.1140 -0.1513 -0.3983
   60MOL   C13739195   5.036   6.757   5.368 -0.1924 -0.2892 -0.0292
   60MOL   C13839196   5.011   6.781   5.526  0.0213  0.8490 -0.5779
   60MOL   C13939197   4.978   6.924   5.561  0.2036 -0.1594  0.8363
   60MOL   C14039198   4.947   6.956   5.708 -0.2554  0.8981 -0.3096
   60MOL   C14139199   4.933   7.107   5.737 -0.8761 -0.6287 -0.2300
   60MOL   C14239200   4.915   7.128   5.890 -0.2984  0.0411  0.1182
   60MOL   C14339201   4.899   7.277   5.938 -0.7222  0.6936  0.3324
   60MOL   C14439202   5.028   7.350   5.907  0.5411  0.2296  0.7035
   60MOL   H14539203   5.307   6.428   5.132 -1.0098  0.1366 -0.4561
   60MOL   H14639204   5.251   6.395   5.277  2.3936 -1.4166  1.0167
   60MOL   H14739205   5.226   6.692   5.176 -1.5695  1.2813 -0.4208
   60MOL   H14839206   5.204   6.645   5.428  0.5636  0.4050 -1.2205
   60MOL   H14939207   5.092   6.532   5.392 -0.5465 -0.2114 -0.9186
   60MOL   H15039208   5.079   6.846   5.320  1.0488 -1.2576 -0.7601
   60MOL   H15139209   4.942   6.744   5.314  0.3992  0.8703 -1.3621
   60MOL   H15239210   4.930   6.722   5.570  1.9520 -1.3127  0.1767
   60MOL   H15339211   5.098   6.758   5.588 -1.3436 -2.1905  0.3252
   60MOL   H15439212   5.052   6.996   5.524 -2.0837  1.8417  0.0345
   60MOL   H15539213   4.882   6.941   5.512  0.4307  3.7727  1.6351
   60MOL   H15639214   4.852   6.908   5.734  0.7697 -1.1460 -0.2456
   60MOL   H15739215   5.015   6.913   5.781  0.2207 -0.1331 -1.3387
   60MOL   H15839216   5.023   7.154   5.696  0.8642 -1.3665  2.5811
   60MOL   H15939217   4.850   7.160   5.690  1.3372  1.7881 -1.5654
   60MOL   H16039218   4.827   7.071   5.920  0.7586 -1.0758  1.1759
   60MOL   H16139219   5.001   7.099   5.951 -0.1262  0.3965  0.0448
   60MOL   H16239220   4.820   7.312   5.873  1.9753  0.2992 -3.3417
   60MOL   H16339221   4.873   7.276   6.044  0.3606  2.7226  0.6345
   60MOL   H16439222   5.116   7.320   5.965  1.4173  1.7144  0.1737
   60MOL   H16539223   5.012   7.454   5.934 -0.6522  0.4001 -0.5890
   60MOL   H16639224   5.041   7.357   5.799 -1.2265 -0.8139  0.4159
   60MOL   C16739225   5.077   6.562   5.108 -0.9376 -0.3000  0.1505
   60MOL   C16839226   5.130   6.566   4.961 -0.1785  0.0235  0.3565
   60MOL   C16939227   5.148   6.715   4.924  0.5137  0.4148  1.0396
   60MOL   C17039228   5.237   6.739   4.802  0.1360 -0.2827  0.1504
   60MOL   C17139229   5.232   6.888   4.749 -0.3172 -0.3939  0.0394
   60MOL   C17239230   5.304   6.987   4.850  0.0920 -0.4617  0.4228
   60MOL   C17339231   5.264   7.138   4.832 -0.5673  0.5217  0.3550
   60MOL   C17439232   5.329   7.236   4.936 -0.3582  0.0481  0.2150
   60MOL   C17539233   5.278   7.383   4.921  0.4944  0.9460  0.0795
   60MOL   C17639234   5.340   7.457   4.803  0.1585 -0.0406 -0.6062
   60MOL   C17739235   5.327   7.614   4.807  0.8042 -0.1415  0.3225
   60MOL   H17839236   5.033   6.468   5.141 -2.2337  0.1438 -0.3002
   60MOL   H17939237   4.995   6.631   5.125 -1.2352 -0.6463  0.1294
   60MOL   H18039238   5.228   6.519   4.950  0.1030  0.3545  1.4307
   60MOL   H18139239   5.187   6.781   5.002  1.1652 -0.1345  1.1856
   60MOL   H18239240   5.045   6.746   4.910  0.7850  0.0951 -1.7904
   60MOL   H18339241   5.338   6.704   4.824  0.2905 -0.2155 -0.4298
   60MOL   H18439242   5.191   6.682   4.721 -0.1721 -0.4023  0.4062
   60MOL   H18539243   5.132   6.926   4.731 -0.0581  0.4669  0.3958
   60MOL   H18639244   5.283   6.897   4.653 -2.0557  0.3144 -0.8284
   60MOL   H18739245   5.281   6.963   4.954 -0.7115 -0.1000  0.3379
   60MOL   H18839246   5.411   6.981   4.830 -0.3252 -1.3134 -1.6232
   60MOL   H18939247   5.155   7.134   4.844 -0.5464 -1.0978  0.1850
   60MOL   H19039248   5.295   7.155   4.729 -0.4721 -3.0754 -0.2740
   60MOL   H19139249   5.309   7.198   5.037  0.3314 -1.9371 -0.3556
   60MOL   H19239250   5.437   7.232   4.919 -0.2624  1.8597  0.2902
   60MOL   H19339251   5.307   7.425   5.017  1.0791 -0.3797  0.4953
   60MOL   H19439252   5.171   7.399   4.929  0.1577 -1.4467  0.9706
   60MOL   H19539253   5.306   7.426   4.704 -1.7274 -0.5605  0.1817
   60MOL   H19639254   5.447   7.436   4.801 -0.1799 -2.0704  1.0107
   60MOL   H19739255   5.398   7.653   4.733  0.7032  0.2976  0.4574
   60MOL   H19839256   5.344   7.655   4.906  0.4886  0.0070  0.3123
   60MOL   H19939257   5.225   7.641   4.780  0.8530 -1.6101 -1.4600
   60MOL   C20039258   5.019   6.489   4.863 -0.4918  0.0558  0.0901
   60MOL   C20139259   5.049   6.337   4.842 -0.1134  0.0649  0.3826
   60MOL   C20239260   4.979   6.277   4.719 -0.6572 -0.3350  0.4941
   60MOL   C20339261   4.829   6.265   4.716  0.5815 -0.4354  0.1333
   60MOL   C20439262   4.786   6.220   4.576  0.4374  0.4059 -0.2707
   60MOL   C20539263   4.637   6.195   4.585  0.8951 -0.4547 -0.2155
   60MOL   C20639264   4.543   6.320   4.582 -0.4730 -0.1070 -0.4990
   60MOL   C20739265   4.389   6.290   4.570  0.4827 -0.1888 -0.2957
   60MOL   C20839266   4.307   6.416   4.598  0.6297 -0.6244 -0.1361
   60MOL   C20939267   4.152   6.407   4.611 -0.1407 -0.6075  0.4907
   60MOL   C21039268   4.095   6.548   4.616  0.0284  0.2983  0.3328
   60MOL   H21139269   4.919   6.506   4.901  0.8245  3.4611  2.2695
   60MOL   H21239270   5.024   6.540   4.766  0.4317 -0.6991 -0.2641
   60MOL   H21339271   5.154   6.338   4.814 -0.1386  0.7604  0.2885
   60MOL   H21439272   5.017   6.175   4.712  1.5628  0.3058  2.6072
   60MOL   H21539273   5.020   6.322   4.629 -2.2068 -1.3947 -0.7735
   60MOL   H21639274   4.790   6.364   4.739  5.0726  1.9854 -2.0218
   60MOL   H21739275   4.794   6.199   4.796 -1.4931 -1.7924 -1.8265
   60MOL   H21839276   4.829   6.124   4.547 -0.4716 -0.8067  2.2640
   60MOL   H21939277   4.810   6.281   4.489 -0.7999 -0.1165 -0.9907
   60MOL   H22039278   4.607   6.151   4.490 -2.1106  0.0687  0.4283
   60MOL   H22139279   4.599   6.136   4.669  2.4069  2.2104  2.4479
   60MOL   H22239280   4.583   6.391   4.510 -0.3097 -0.4791 -0.7797
   60MOL   H22339281   4.556   6.369   4.679  0.6537  1.2087 -1.2989
   60MOL   H22439282   4.365   6.226   4.655 -0.3314 -0.0285 -0.3980
   60MOL   H22539283   4.348   6.259   4.474  0.7489 -0.0777 -0.4439
   60MOL   H22639284   4.332   6.473   4.508 -0.3023 -0.0039 -0.0066
   60MOL   H22739285   4.354   6.471   4.679  0.5658 -0.5122 -0.1748
   60MOL   H22839286   4.109   6.365   4.520 -0.4815  0.5682  0.0866
   60MOL   H22939287   4.131   6.336   4.691 -0.3757 -0.1883  0.8058
   60MOL   H23039288   4.131   6.608   4.533  2.4940 -0.5462  0.7613
   60MOL   H23139289   4.132   6.601   4.704  1.1338 -0.8936  0.5936
   60MOL   H23239290   3.987   6.547   4.603  0.3672 -0.8531 -2.7914
   60MOL   C23339291   5.024   6.250   4.968 -0.0539 -0.9107  0.3454
   60MOL   C23439292   5.053   6.089   4.970  0.1362  0.4456  0.0453
   60MOL   C23539293   4.962   6.016   5.071 -0.2147  0.3254  0.9279
   60MOL   C23639294   4.817   5.997   5.029 -0.5411  0.1389 -0.2265
   60MOL   C23739295   4.749   5.896   5.123  0.4510 -0.0739 -0.4747
   60MOL   C23839296   4.597   5.912   5.100 -0.8406 -0.1244 -0.1665
   60MOL   C23939297   4.541   5.882   4.958 -0.4011  0.3691 -0.8021
   60MOL   C24039298   4.392   5.915   4.954  0.1039 -0.3536  0.3570
   60MOL   C24139299   4.324   5.883   4.808 -0.3113 -0.0788  0.2503
   60MOL   C24239300   4.187   5.948   4.783  0.4347  0.3340  0.2872
   60MOL   C24339301   4.127   5.917   4.647  0.5328 -0.6080  0.4312
   60MOL   H24439302   4.926   6.279   5.006  0.9671  2.5327  0.4738
   60MOL   H24539303   5.085   6.291   5.049  0.4140 -0.6482 -0.1328
   60MOL   H24639304   5.017   6.051   4.875 -0.8757  0.3431  0.4713
   60MOL   H24739305   5.010   5.921   5.096 -0.4357 -0.4301 -1.4518
   60MOL   H24839306   4.956   6.074   5.164 -2.1685  0.4445  0.7628
   60MOL   H24939307   4.809   5.948   4.932 -0.0714  0.1858 -0.2920
   60MOL   H25039308   4.765   6.092   5.016  0.0293  0.2226 -2.0293
   60MOL   H25139309   4.793   5.903   5.223  0.7566  0.1115 -0.6248
   60MOL   H25239310   4.782   5.793   5.105  0.9644 -0.2369  1.2377
   60MOL   H25339311   4.567   6.013   5.126 -0.4697 -0.4367  1.5547
   60MOL   H25439312   4.539   5.847   5.166  0.5917 -3.7986 -2.3484
   60MOL   H25539313   4.606   5.927   4.883 -0.1492  1.0994 -0.1407
   60MOL   H25639314   4.549   5.776   4.934 -1.7933  0.7053 -2.8934
   60MOL   H25739315   4.336   5.856   5.027 -0.9318  0.3175  0.1232
   60MOL   H25839316   4.356   6.012   4.987 -1.0460 -1.0966  1.3305
   60MOL   H25939317   4.393   5.916   4.730 -3.1049 -0.2707 -2.3805
   60MOL   H26039318   4.322   5.774   4.799 -0.6006  0.1333 -2.8411
   60MOL   H26139319   4.189   6.056   4.798  1.1606  0.5348 -1.1596
   60MOL   H26239320   4.117   5.913   4.859  0.5726 -2.3899 -0.7906
   60MOL   H26339321   4.205   5.923   4.571  0.8596 -3.1554  0.4963
   60MOL   H26439322   4.051   5.989   4.618  1.0741 -0.2650 -0.1507
   60MOL   H26539323   4.077   5.820   4.643  1.5253 -1.0641 -1.3945
   60MOL   C26639324   5.204   6.068   4.989 -1.1398  0.1906  0.2257
   60MOL   C26739325   5.266   5.930   4.961 -0.3534  0.3563  0.0240
   60MOL   C26839326   5.272   5.833   5.082  0.8257  0.9234 -0.1084
   60MOL   C26939327   5.200   5.698   5.052 -0.3245 -0.2405 -0.3573
   60MOL   C27039328   5.191   5.611   5.177 -0.0817 -0.0053 -0.0114
   60MOL   C27139329   5.171   5.464   5.149  0.2152  0.6056  0.6622
   60MOL   C27239330   5.292   5.389   5.087 -0.8220  0.2254  0.0952
   60MOL   C27339331   5.265   5.236   5.076  0.4697  0.4980 -0.0583
   60MOL   C27439332   5.334   5.152   5.180 -0.4936  0.1287  0.7850
   60MOL   C27539333   5.488   5.157   5.150  0.7172  0.0719 -0.8014
   60MOL   C27639334   5.556   5.050   5.230 -0.4420  1.2172 -0.4911
   60MOL   H27739335   5.238   6.102   5.087  0.2004 -1.0860  0.2240
   60MOL   H27839336   5.256   6.138   4.923  1.0773 -0.1894  1.5137
   60MOL   H27939337   5.199   5.891   4.884 -1.0684  2.0610 -0.2297
   60MOL   H28039338   5.373   5.814   5.117  0.2830 -1.1643  0.3642
   60MOL   H28139339   5.219   5.886   5.161 -0.1772  0.5540 -0.5290
   60MOL   H28239340   5.270   5.657   4.979  0.2409  1.5426 -0.8555
   60MOL   H28339341   5.105   5.711   5.000  0.8597 -0.0168 -2.5212
   60MOL   H28439342   5.108   5.646   5.240  1.3254  1.4082  1.0887
   60MOL   H28539343   5.285   5.615   5.232  0.1255 -0.6385 -0.3152
   60MOL   H28639344   5.087   5.453   5.081 -1.2854  0.4028  2.4888
   60MOL   H28739345   5.147   5.415   5.244  1.9520 -2.0504 -0.1938
   60MOL   H28839346   5.312   5.429   4.988  0.4925  0.6013  0.5072
   60MOL   H28939347   5.386   5.400   5.140  0.6564 -1.7905 -2.0329
   60MOL   H29039348   5.287   5.207   4.973  1.6540  0.0791  0.3011
   60MOL   H29139349   5.159   5.216   5.092  0.8470 -0.1243  1.7279
   60MOL   H29239350   5.310   5.191   5.279 -0.8251 -1.1427  1.2150
   60MOL   H29339351   5.296   5.050   5.176  0.9741 -0.4025  0.0383
   60MOL   H29439352   5.514   5.258   5.182 -1.9626  0.7324 -0.5466
   60MOL   H29539353   5.516   5.144   5.046  1.1688  1.0115 -0.7963
   60MOL   H29639354   5.658   5.088   5.242 -0.2061  0.8201 -1.1750
   60MOL   H29739355   5.550   4.949   5.188 -1.6202  1.2389 -0.3933
   60MOL   H29839356   5.509   5.038   5.327  1.4649 -1.4818  0.1820
   60MOL   C29939357   5.403   5.936   4.900 -0.4651  0.1634  1.0085
   60MOL   C30039358   5.471   5.807   4.842 -0.1968 -0.0185 -0.3810
   60MOL   C30139359   5.625   5.842   4.832  0.4508 -0.4449 -0.0818
   60MOL   C30239360   5.707   5.809   4.960 -0.3341 -0.0144 -0.1004
   60MOL   C30339361   5.857   5.864   4.963  0.2350  0.9042  0.4607
   60MOL   C30439362   5.862   6.015   4.971 -0.4024 -0.0775  0.6094
   60MOL   C30539363   5.997   6.075   5.029  1.3607  0.1034 -0.1164
   60MOL   C30639364   5.969   6.221   5.074  0.3316 -0.4201 -0.2185
   60MOL   C30739365   6.082   6.306   5.140 -0.0578  0.4652  0.1594
   60MOL   C30839366   6.058   6.452   5.168  0.0147 -0.3922 -0.1718
   60MOL   C30939367   6.029   6.533   5.046  0.2540 -0.4995 -0.0269
   60MOL   H31039368   5.470   5.995   4.963  0.5045  0.6154 -0.4195
   60MOL   H31139369   5.400   5.995   4.808 -0.6689 -0.1319  0.8280
   60MOL   H31239370   5.460   5.727   4.915 -1.7168  1.4221  1.0126
   60MOL   H31339371   5.668   5.791   4.746  0.3526 -0.3870 -0.1646
   60MOL   H31439372   5.641   5.949   4.817 -0.3345 -0.2931  0.1333
   60MOL   H31539373   5.659   5.858   5.044 -0.6609  0.2976 -0.4676
   60MOL   H31639374   5.708   5.700   4.967 -1.2223 -0.1466 -1.7072
   60MOL   H31739375   5.909   5.820   5.048  1.6913  0.8824 -0.4197
   60MOL   H31839376   5.915   5.826   4.879  1.4573  0.0162  1.6874
   60MOL   H31939377   5.775   6.038   5.032 -1.2403 -3.8537  0.9599
   60MOL   H32039378   5.846   6.061   4.873 -0.3353  0.4344  0.8321
   60MOL   H32139379   6.034   6.008   5.107 -0.0435 -0.3683  0.1556
   60MOL   H32239380   6.076   6.066   4.954  0.4265  0.4061 -1.1385
   60MOL   H32339381   5.896   6.214   5.155 -0.1903 -1.5516 -0.7751
   60MOL   H32439382   5.924   6.273   4.990  0.5319 -0.8449 -0.5865
   60MOL   H32539383   6.166   6.311   5.070  1.0103  0.1545  1.3957
   60MOL   H32639384   6.125   6.266   5.232  0.8733 -1.2292 -0.9778
   60MOL   H32739385   6.153   6.485   5.211 -0.0376  2.0850 -1.8891
   60MOL   H32839386   5.979   6.456   5.243 -1.0777 -0.0336 -1.3197
   60MOL   H32939387   6.078   6.485   4.961 -2.7640  0.8455 -2.6091
   60MOL   H33039388   5.924   6.528   5.016 -0.2971  2.6693  1.2015
   60MOL   H33139389   6.061   6.637   5.044  1.1064 -0.7566 -0.0054
   60MOL   C33239390   5.407   5.758   4.709 -0.2041 -0.0466 -0.7470
   60MOL   C33339391   5.418   5.604   4.668  0.6538 -0.5723 -0.0436
   60MOL   C33439392   5.556   5.545   4.683 -0.7234 -0.7027 -0.8005
   60MOL   C33539393   5.551   5.390   4.696  0.3765 -0.0602 -0.9166
   60MOL   C33639394   5.689   5.330   4.725  0.6246  0.5081  0.0687
   60MOL   C33739395   5.678   5.187   4.767  0.2161  0.1827 -0.1286
   60MOL   C33839396   5.809   5.137   4.831  0.4624 -0.0763  0.3451
   60MOL   C33939397   5.799   4.993   4.884  0.7831 -0.6505  0.1220
   60MOL   C34039398   5.931   4.952   4.937 -0.6945  0.1454  0.1284
   60MOL   C34139399   5.943   4.801   4.957  0.1612 -0.0113  0.6314
   60MOL   C34239400   6.088   4.756   4.985  0.7041  0.1356 -0.5928
   60MOL   H34339401   5.301   5.782   4.710  0.0416  1.0753  1.6831
   60MOL   H34439402   5.447   5.813   4.624  0.0832  0.3200 -0.3757
   60MOL   H34539403   5.359   5.550   4.742  0.2678  1.6042  1.2837
   60MOL   H34639404   5.593   5.575   4.781 -0.4721  0.3065 -1.1969
   60MOL   H34739405   5.617   5.580   4.599 -1.2033 -0.3941 -1.0261
   60MOL   H34839406   5.483   5.355   4.774  1.8710 -0.1286  0.3747
   60MOL   H34939407   5.497   5.334   4.620 -0.8672  1.3873 -1.1096
   60MOL   H35039408   5.755   5.352   4.641  0.7047  0.6680  0.1746
   60MOL   H35139409   5.726   5.382   4.813  0.1038  2.0828 -0.6293
   60MOL   H35239410   5.644   5.128   4.682  0.6352  2.3826 -1.8957
   60MOL   H35339411   5.597   5.173   4.838  0.0173 -1.6437 -0.6911
   60MOL   H35439412   5.834   5.204   4.913  1.5758 -1.7740  1.4059
   60MOL   H35539413   5.890   5.154   4.760  1.1862  2.5390  1.6968
   60MOL   H35639414   5.717   4.973   4.953 -0.2025 -1.2213 -1.1924
   60MOL   H35739415   5.787   4.921   4.803  0.1692  1.1475 -1.4177
   60MOL   H35839416   5.948   4.990   5.038  0.4182 -0.0069  0.0131
   60MOL   H35939417   6.012   4.993   4.876  0.0235 -0.4261  0.6870
   60MOL   H36039418   5.911   4.737   4.875 -1.0967  0.4721  0.7196
   60MOL   H36139419   5.884   4.781   5.047 -0.3367  0.3409  0.3876
   60MOL   H36239420   6.155   4.784   4.904  1.3089  2.6219  0.7306
   60MOL   H36339421   6.123   4.785   5.084  0.3997 -3.0475  0.5189
   60MOL   H36439422   6.082   4.647   4.987  2.6111 -0.1232 -3.9465
   60MOL   C36539423   5.353   5.575   4.532  0.0304 -0.1285 -0.6117
   60MOL   C36639424   5.200   5.598   4.504 -0.1485 -0.3765 -0.0387
   60MOL   C36739425   5.115   5.535   4.617 -0.1907  0.5050 -0.3875
   60MOL   C36839426   5.128   5.388   4.641  0.1673 -0.5078  0.2773
   60MOL   C36939427   5.021   5.335   4.738 -0.2162  0.2307 -0.0328
   60MOL   C37039428   5.045   5.194   4.765  0.4924  0.4838 -0.6747
   60MOL   C37139429   4.955   5.131   4.870 -0.1395 -0.3218  0.1924
   60MOL   C37239430   4.935   4.984   4.855  0.5601 -0.0728  0.2839
   60MOL   C37339431   4.838   4.933   4.956 -0.1551  0.5821 -0.6667
   60MOL   C37439432   4.817   4.775   4.947 -0.5001 -0.5059 -0.0366
   60MOL   C37539433   4.719   4.736   5.051 -0.3041 -0.4424 -0.4232
   60MOL   H37639434   5.409   5.632   4.458  1.5246  0.8339  1.2333
   60MOL   H37739435   5.362   5.468   4.513  0.0561 -0.2650  0.1401
   60MOL   H37839436   5.157   5.542   4.420  0.0138  0.6656 -0.8216
   60MOL   H37939437   5.010   5.564   4.611 -0.2869  0.0887 -0.7027
   60MOL   H38039438   5.147   5.596   4.702 -2.4809  1.6551 -0.3053
   60MOL   H38139439   5.226   5.360   4.679  1.7130  2.7386 -1.2085
   60MOL   H38239440   5.110   5.337   4.546 -1.6186 -2.3614  1.5632
   60MOL   H38339441   4.921   5.345   4.696 -1.1231 -0.4317  1.9194
   60MOL   H38439442   5.028   5.396   4.828  0.6666 -0.4179  0.3447
   60MOL   H38539443   5.148   5.185   4.799  0.4552  1.5733 -0.2658
   60MOL   H38639444   5.034   5.138   4.672 -2.3762 -0.9033  0.4328
   60MOL   H38739445   4.995   5.147   4.970  0.4183 -2.0076  0.2576
   60MOL   H38839446   4.862   5.189   4.875 -0.6917 -1.1595 -0.1714
   60MOL   H38939447   5.036   4.942   4.853 -0.1999 -1.9419 -0.0734
   60MOL   H39039448   4.898   4.966   4.754 -0.1879  1.5529  0.2565
   60MOL   H39139449   4.889   4.949   5.050  0.4867  0.5963 -1.0182
   60MOL   H39239450   4.746   4.991   4.948  0.1270  1.0385 -0.5718
   60MOL   H39339451   4.786   4.754   4.844  2.2571 -0.6956 -0.8760
   60MOL   H39439452   4.909   4.723   4.975 -0.1152  0.8477  1.2759
   60MOL   H39539453   4.647   4.817   5.061 -1.9981 -1.4628 -3.5427
   60MOL   H39639454   4.761   4.734   5.151  0.9267 -1.2180 -0.9405
   60MOL   H39739455   4.666   4.645   5.022 -1.3619  0.3408 -0.9696
   60MOL   C39839456   5.159   5.741   4.468  0.5240  0.1939  0.0583
   60MOL   C39939457   5.203   5.785   4.316  0.2152  0.3745 -0.1386
   60MOL   C40039458   5.192   5.935   4.296 -0.4379  0.3600  0.0760
   60MOL   C40139459   5.272   6.028   4.395 -0.1037 -0.3592  0.2485
   60MOL   C40239460   5.247   6.176   4.365  0.0083  0.1143  0.5608
   60MOL   C40339461   5.278   6.261   4.487  0.4241  0.0249  0.1775
   60MOL   C40439462   5.426   6.303   4.482 -0.0003 -0.4222 -0.9247
   60MOL   C40539463   5.475   6.395   4.592 -0.6257  0.3655 -0.2370
   60MOL   C40639464   5.469   6.323   4.732 -0.3802 -0.4413  0.9006
   60MOL   C40739465   5.508   6.416   4.849  0.3389 -0.1986 -0.1293
   60MOL   C40839466   5.654   6.464   4.838 -1.1944  0.1966 -0.8965
   60MOL   H40939467   5.199   5.811   4.541 -0.7301  0.2101  0.7446
   60MOL   H41039468   5.052   5.758   4.473  0.8043  1.5556  1.6484
   60MOL   H41139469   5.311   5.776   4.312  0.3511  0.4314  2.4950
   60MOL   H41239470   5.087   5.963   4.305 -0.9130  0.0409 -3.6985
   60MOL   H41339471   5.215   5.963   4.193 -0.7783  0.3862  0.0083
   60MOL   H41439472   5.223   6.010   4.491  1.3848 -1.0815  0.8804
   60MOL   H41539473   5.379   6.010   4.406 -0.1502 -0.1096  1.1044
   60MOL   H41639474   5.296   6.209   4.274  1.7829 -1.8655  0.7493
   60MOL   H41739475   5.140   6.185   4.347  0.1152  3.0675  1.2441
   60MOL   H41839476   5.254   6.207   4.579 -2.4586  2.1411  0.7333
   60MOL   H41939477   5.213   6.348   4.494 -1.6392 -1.4314 -0.4528
   60MOL   H42039478   5.487   6.214   4.463 -1.5674 -1.2367 -2.2901
   60MOL   H42139479   5.440   6.360   4.390 -0.0296  0.6082 -0.2966
   60MOL   H42239480   5.415   6.485   4.590 -3.0471 -1.2049  0.2039
   60MOL   H42339481   5.581   6.406   4.570  0.0551 -1.0189  2.0909
   60MOL   H42439482   5.367   6.293   4.754 -0.1992 -0.3822  1.8441
   60MOL   H42539483   5.530   6.233   4.729  1.0127  0.5108 -2.9910
   60MOL   H42639484   5.486   6.361   4.940 -0.9142 -1.5879 -1.2250
   60MOL   H42739485   5.442   6.502   4.851  2.1338  1.2238 -0.4252
   60MOL   H42839486   5.724   6.417   4.770  0.2057  0.6328  0.2251
   60MOL   H42939487   5.698   6.436   4.934 -1.6368 -1.4634 -1.1748
   60MOL   H43039488   5.665   6.573   4.829 -2.2284  0.4165  0.3099
   60MOL   C43139489   5.146   5.708   4.197  0.0767 -0.0723  0.4228
   60MOL   C43239490   4.994   5.689   4.183 -0.3231 -0.1091  0.1658
   60MOL   C43339491   4.975   5.572   4.093  0.1522  0.4282  0.6686
   60MOL   C43439492   4.988   5.436   4.161  0.4184  0.1515  0.6086
   60MOL   C43539493   4.851   5.375   4.207 -0.5172  0.0137 -0.1367
   60MOL   C43639494   4.858   5.234   4.275 -0.0029  0.7623  0.5663
   60MOL   C43739495   4.723   5.184   4.327  0.4609 -0.1906  0.0386
   60MOL   C43839496   4.736   5.046   4.391 -0.1262  0.4762 -0.0112
   60MOL   C43939497   4.603   4.969   4.394  0.5650 -0.0270  0.9240
   60MOL   C44039498   4.482   5.025   4.479  0.0511 -0.4488  0.4109
   60MOL   C44139499   4.525   5.031   4.627  0.4371  0.1223  0.2105
   60MOL   H44239500   5.199   5.613   4.189 -0.0706 -0.0271 -1.2188
   60MOL   H44339501   5.186   5.757   4.108 -0.1024  0.2204  0.5032
   60MOL   H44439502   4.955   5.655   4.279  0.1642 -0.2920  0.3005
   60MOL   H44539503   4.877   5.580   4.044 -0.9786 -0.4106  2.7205
   60MOL   H44639504   5.049   5.583   4.014  0.2826 -1.0377  0.5831
   60MOL   H44739505   5.073   5.437   4.229 -1.2062  0.0579  2.7065
   60MOL   H44839506   5.005   5.362   4.083 -1.5204 -0.1603  0.4465
   60MOL   H44939507   4.792   5.374   4.115 -3.3430  1.1076  1.6058
   60MOL   H45039508   4.800   5.445   4.273 -1.4961 -0.8389  0.0015
   60MOL   H45139509   4.925   5.234   4.361 -1.8221 -3.0398  2.0669
   60MOL   H45239510   4.883   5.153   4.207 -0.2587  1.3462 -0.2259
   60MOL   H45339511   4.650   5.200   4.247  0.5904 -1.5483 -0.3615
   60MOL   H45439512   4.687   5.237   4.415  2.7529  0.1091  0.8331
   60MOL   H45539513   4.818   4.990   4.347  0.1645  1.3146 -0.5481
   60MOL   H45639514   4.780   5.066   4.489  2.4761  1.4963 -1.3300
   60MOL   H45739515   4.629   4.869   4.428 -1.1427 -1.7970 -2.7228
   60MOL   H45839516   4.578   4.958   4.289 -0.2868  0.4078  1.0686
   60MOL   H45939517   4.394   4.962   4.469  0.4721 -1.2979  1.8369
   60MOL   H46039518   4.458   5.126   4.446  0.9814  0.1102  1.4065
   60MOL   H46139519   4.596   5.108   4.656  0.8320 -0.2308  0.1837
   60MOL   H46239520   4.432   5.044   4.682 -1.3080 -0.6688 -2.4108
   60MOL   H46339521   4.554   4.929   4.653  1.0165 -0.4835 -2.5952
   60MOL   C46439522   4.923   5.814   4.127  0.1068 -0.3527 -0.1345
   60MOL   C46539523   4.831   5.892   4.228 -0.1609  0.1358 -0.1347
   60MOL   C46639524   4.793   6.031   4.162  0.5500  0.4605  0.2371
   60MOL   C46739525   4.897   6.129   4.133 -0.1783  0.1197  0.1625
   60MOL   C46839526   4.846   6.261   4.072 -0.0516  0.9563 -0.0408
   60MOL   C46939527   4.947   6.372   4.027  0.3449  0.3879 -0.3438
   60MOL   C47039528   4.878   6.488   3.949  0.8439 -0.1175 -0.2496
   60MOL   C47139529   4.980   6.561   3.856  0.0388  0.4588 -0.3441
   60MOL   C47239530   4.905   6.653   3.753 -0.5457  0.1310  0.4421
   60MOL   C47339531   5.007   6.718   3.657 -0.3748 -0.0369  0.2255
   60MOL   C47439532   4.938   6.822   3.568  0.9881 -0.3268  0.5659
   60MOL   H47539533   4.854   5.786   4.048  1.8190  1.1354 -2.1969
   60MOL   H47639534   4.996   5.881   4.082 -1.5363  1.2808 -0.4471
   60MOL   H47739535   4.884   5.922   4.319 -1.0666  2.2569 -0.2827
   60MOL   H47839536   4.714   6.078   4.221 -0.6556 -2.6672  1.2207
   60MOL   H47939537   4.752   5.993   4.068  0.7647 -0.4534  0.5071
   60MOL   H48039538   4.958   6.146   4.222 -1.6198  1.2082  0.9688
   60MOL   H48139539   4.961   6.094   4.052  1.9702  2.6152  0.7252
   60MOL   H48239540   4.793   6.299   4.160  0.2003 -0.4130  0.7112
   60MOL   H48339541   4.770   6.247   3.995  0.0289 -1.8158  0.3528
   60MOL   H48439542   4.996   6.422   4.110 -1.7671  2.7072 -0.4295
   60MOL   H48539543   5.031   6.332   3.970  0.5347 -1.9303  1.5056
   60MOL   H48639544   4.806   6.443   3.880 -0.2441 -0.8057  1.2918
   60MOL   H48739545   4.821   6.546   4.022  1.4170 -1.6974  1.4896
   60MOL   H48839546   5.055   6.618   3.912  0.0514 -0.0093  0.1196
   60MOL   H48939547   5.050   6.496   3.805  0.8892 -0.4138  1.8580
   60MOL   H49039548   4.832   6.599   3.692 -0.1326  1.5432 -1.3341
   60MOL   H49139549   4.848   6.733   3.799 -2.2810 -2.1890  2.5123
   60MOL   H49239550   5.081   6.776   3.712 -0.0174  1.1164 -1.4243
   60MOL   H49339551   5.061   6.643   3.598 -0.4174  0.5872 -0.6176
   60MOL   H49439552   5.000   6.850   3.483  0.4306 -1.1954 -0.1282
   60MOL   H49539553   4.912   6.916   3.616 -0.8460 -0.1696 -0.6867
   60MOL   H49639554   4.845   6.785   3.526  0.7741 -1.0096  1.5949
   60MOL   C49739555   4.702   5.810   4.254  0.2963  0.2542 -0.1276
   60MOL   C49839556   4.617   5.849   4.385  0.2725  0.2196  0.6369
   60MOL   C49939557   4.698   5.856   4.516  0.1586 -0.4810  0.6752
   60MOL   C50039558   4.775   5.738   4.572 -0.2190 -0.3635 -1.2081
   60MOL   C50139559   4.685   5.635   4.643  0.0444 -0.2145  0.1973
   60MOL   C50239560   4.742   5.571   4.766 -0.4735  0.3529 -0.0371
   60MOL   C50339561   4.658   5.477   4.843 -0.4975  0.6134 -0.1899
   60MOL   C50439562   4.711   5.447   4.981 -0.6256 -0.0867  0.8321
   60MOL   C50539563   4.626   5.336   5.049  0.3266  0.2875  0.5429
   60MOL   C50639564   4.659   5.303   5.197 -0.5351  0.3129 -0.3542
   60MOL   C50739565   4.604   5.418   5.280 -0.1909  0.2754  0.2907
   60MOL   H50839566   4.645   5.804   4.161  1.7124 -0.0925 -0.9943
   60MOL   H50939567   4.719   5.704   4.276 -2.2054 -0.1625  0.0070
   60MOL   H51039568   4.589   5.952   4.361  1.0228  0.6380  1.5509
   60MOL   H51139569   4.639   5.904   4.594  2.9824  1.4578  1.7002
   60MOL   H51239570   4.776   5.930   4.495 -1.1215  0.3755 -1.2558
   60MOL   H51339571   4.848   5.778   4.642 -1.5239 -2.1704  1.2713
   60MOL   H51439572   4.831   5.689   4.493 -0.3429  1.4086 -2.4216
   60MOL   H51539573   4.600   5.700   4.665  1.1540  1.2999  0.1011
   60MOL   H51639574   4.656   5.561   4.569 -0.0902  0.3046 -0.2746
   60MOL   H51739575   4.833   5.522   4.730 -0.5745 -0.0405  0.2422
   60MOL   H51839576   4.780   5.643   4.839 -1.5646  1.4153 -0.4966
   60MOL   H51939577   4.562   5.526   4.863 -1.6021 -1.3192 -0.6173
   60MOL   H52039578   4.628   5.390   4.784 -1.7662  2.8921 -3.0845
   60MOL   H52139579   4.702   5.541   5.036 -1.6573  1.7395 -2.3053
   60MOL   H52239580   4.816   5.416   4.983 -0.8132 -0.7864  0.2007
   60MOL   H52339581   4.620   5.252   4.979 -4.4308  0.6145  0.4058
   60MOL   H52439582   4.523   5.370   5.047  0.3896  0.4396 -0.7124
   60MOL   H52539583   4.766   5.293   5.214 -0.4611  1.5164 -0.0841
   60MOL   H52639584   4.605   5.211   5.221 -1.0286  0.3719 -1.2209
   60MOL   H52739585   4.604   5.373   5.379  1.5135 -1.3179 -0.3983
   60MOL   H52839586   4.496   5.427   5.271 -0.1378 -0.4970 -1.2719
   60MOL   H52939587   4.657   5.514   5.276 -1.9111  1.3548  2.3636
   60MOL   C53039588   4.489   5.760   4.412  0.2468  0.4673  0.9033
   60MOL   C53139589   4.381   5.751   4.291  0.3375  0.4864  0.8673
   60MOL   C53239590   4.322   5.884   4.262 -0.2049 -0.4863  0.2273
   60MOL   C53339591   4.255   5.899   4.125  0.7810 -0.5558  0.1169
   60MOL   C53439592   4.196   6.042   4.108 -0.0639  0.5671 -0.3508
   60MOL   C53539593   4.108   6.063   3.981  0.0857  0.7938  0.2790
   60MOL   C53639594   3.955   6.058   4.005 -0.2305  0.4891  0.3758
   60MOL   C53739595   3.882   6.027   3.877 -0.8129  0.2834 -0.6052
   60MOL   C53839596   3.733   6.016   3.910  0.3244  0.3552 -0.6024
   60MOL   C53939597   3.660   5.969   3.791 -0.2363  0.2214  0.7178
   60MOL   C54039598   3.521   5.930   3.811  0.1927 -0.3086 -0.0490
   60MOL   H54139599   4.532   5.660   4.421 -1.8950 -0.5074  0.5913
   60MOL   H54239600   4.437   5.777   4.506 -0.1014 -3.4355  1.4851
   60MOL   H54339601   4.424   5.715   4.197  0.5312  2.1966  0.2808
   60MOL   H54439602   4.399   5.961   4.272  1.2477 -1.6150 -1.7027
   60MOL   H54539603   4.257   5.910   4.345  2.1391  1.1983  1.5926
   60MOL   H54639604   4.185   5.817   4.110  0.2450  0.0320 -0.6085
   60MOL   H54739605   4.326   5.874   4.046  0.1363  0.8519 -0.9181
   60MOL   H54839606   4.275   6.117   4.104 -1.1923  1.8329  0.9083
   60MOL   H54939607   4.150   6.081   4.199  0.1976  0.8500 -0.3398
   60MOL   H55039608   4.150   5.991   3.911 -0.6021 -0.6809  1.3479
   60MOL   H55139609   4.136   6.163   3.948  0.9150  0.3694 -0.3056
   60MOL   H55239610   3.916   6.149   4.051 -0.8024  0.9522 -1.0011
   60MOL   H55339611   3.936   5.974   4.071 -0.7397 -0.2086 -0.6389
   60MOL   H55439612   3.914   5.931   3.838 -1.6833 -0.4076  0.3628
   60MOL   H55539613   3.902   6.108   3.806  4.1266  0.3338  0.6751
   60MOL   H55639614   3.698   6.116   3.937  2.3185  0.9726 -0.2095
   60MOL   H55739615   3.713   5.949   3.993  0.1247 -0.2680 -1.1483
   60MOL   H55839616   3.715   5.885   3.751 -0.2200  1.3271 -1.6946
   60MOL   H55939617   3.672   6.046   3.714  0.4204 -1.2281 -0.6572
   60MOL   H56039618   3.476   6.009   3.870  0.6760 -1.9912  2.6357
   60MOL   H56139619   3.481   5.934   3.709  1.9425 -0.9424 -0.7769
   60MOL   H56239620   3.499   5.830   3.848 -1.0050 -0.2347 -0.5235
   60MOL   C56339621   4.273   5.644   4.321 -0.1922  0.4100  0.5455
   60MOL   C56439622   4.312   5.494   4.338 -0.5832 -0.7292  0.5722
   60MOL   C56539623   4.409   5.447   4.228  0.7830  0.6774 -0.3264
   60MOL   C56639624   4.363   5.438   4.088 -0.1864 -0.0378 -0.0105
   60MOL   C56739625   4.470   5.430   3.978 -0.6013  0.2914  0.3540
   60MOL   C56839626   4.539   5.567   3.938 -0.1855  0.1069  0.1370
   60MOL   C56939627   4.452   5.663   3.848 -0.6505  0.2721  0.2947
   60MOL   C57039628   4.516   5.794   3.809  0.0349 -0.2819 -0.7318
   60MOL   C57139629   4.420   5.883   3.726 -0.0858 -0.0727 -0.9770
   60MOL   C57239630   4.483   6.021   3.713 -0.2076 -0.0210  0.5297
   60MOL   C57339631   4.469   6.110   3.832 -0.1885 -0.7339 -0.3308
   60MOL   H57439632   4.203   5.649   4.237  0.8556 -0.3055 -0.3935
   60MOL   H57539633   4.220   5.680   4.409 -0.2818 -1.2142  1.1719
   60MOL   H57639634   4.371   5.486   4.430  0.3196 -0.8617 -0.0159
   60MOL   H57739635   4.432   5.344   4.258 -1.0450  0.2664 -0.2516
   60MOL   H57839636   4.506   5.494   4.242  1.4397 -0.3926 -1.2201
   60MOL   H57939637   4.287   5.514   4.067  0.8675  1.1611  0.4417
   60MOL   H58039638   4.299   5.351   4.073 -0.9642  0.4022  0.7065
   60MOL   H58139639   4.446   5.384   3.882 -0.2385  0.6395  0.0934
   60MOL   H58239640   4.542   5.354   4.006 -2.9496 -1.5964  1.4281
   60MOL   H58339641   4.569   5.624   4.026 -3.7646  0.5020  1.1747
   60MOL   H58439642   4.630   5.540   3.883 -0.0512  0.0452  0.3846
   60MOL   H58539643   4.420   5.605   3.762 -2.4935 -0.3175  1.3404
   60MOL   H58639644   4.358   5.679   3.902 -0.7932  0.2265  0.0586
   60MOL   H58739645   4.612   5.769   3.762  1.2675 -0.7882  1.9553
   60MOL   H58839646   4.546   5.844   3.901 -1.2780 -0.9810  0.0868
   60MOL   H58939647   4.317   5.887   3.763 -0.2930 -3.0296 -1.1046
   60MOL   H59039648   4.412   5.849   3.623  0.7530 -1.0186 -0.7427
   60MOL   H59139649   4.461   6.072   3.619  1.0299 -0.1016  0.1961
   60MOL   H59239650   4.590   6.012   3.699  0.0520  3.2917  0.0280
   60MOL   H59339651   4.362   6.127   3.849 -0.3310 -1.0113 -0.9603
   60MOL   H59439652   4.512   6.085   3.929  0.0611 -1.7475 -0.7034
   60MOL   H59539653   4.493   6.215   3.814  0.4839 -0.9992 -0.9812
   60MOL   C59639654   4.195   5.402   4.362 -0.1580 -0.9514  0.0198
   60MOL   C59739655   4.099   5.421   4.481 -0.7232 -0.1041 -0.4416
   60MOL   C59839656   4.177   5.433   4.614 -0.6179 -0.2963  0.0918
   60MOL   C59939657   4.258   5.310   4.662  0.6601  0.0799  0.0637
   60MOL   C60039658   4.326   5.323   4.807 -0.3002  0.3198  0.4199
   60MOL   C60139659   4.240   5.353   4.935  0.8175  0.2761  0.1513
   60MOL   C60239660   4.235   5.494   4.978 -0.0526  0.1493  0.3552
   60MOL   C60339661   4.182   5.499   5.121  0.2127 -1.1024  0.1519
   60MOL   C60439662   4.151   5.641   5.180  0.5395 -0.0746  1.1077
   60MOL   C60539663   4.089   5.635   5.320 -0.0694 -0.2962  0.1782
   60MOL   C60639664   4.174   5.569   5.431  0.1462 -0.4110 -0.0353
   60MOL   H60739665   4.132   5.397   4.274  0.5073  1.8017 -0.6471
   60MOL   H60839666   4.234   5.302   4.381 -2.4131 -1.9168 -0.2597
   60MOL   H60939667   4.041   5.513   4.470 -0.2372  0.2326 -0.2026
   60MOL   H61039668   4.105   5.463   4.690 -1.9266  2.0879 -1.9880
   60MOL   H61139669   4.254   5.510   4.605 -1.3066  0.3468 -0.3243
   60MOL   H61239670   4.336   5.289   4.589 -1.7452  0.7082 -2.7471
   60MOL   H61339671   4.193   5.222   4.663 -1.0419  1.3220  0.4304
   60MOL   H61439672   4.400   5.403   4.811  1.7997 -1.6506  1.8602
   60MOL   H61539673   4.385   5.235   4.830 -0.9557 -0.4846 -0.9413
   60MOL   H61639674   4.137   5.319   4.926  1.3816 -0.9730 -1.7557
   60MOL   H61739675   4.276   5.295   5.020  1.3717  0.3794 -0.0092
   60MOL   H61839676   4.184   5.558   4.907  0.4937 -0.5824 -0.7089
   60MOL   H61939677   4.336   5.534   4.970 -0.7781  2.3715  1.7779
   60MOL   H62039678   4.264   5.451   5.174  1.2713 -2.3190 -2.4798
   60MOL   H62139679   4.092   5.439   5.131 -1.5760  1.5489  0.4636
   60MOL   H62239680   4.242   5.701   5.172 -0.9952  2.7046  3.4072
   60MOL   H62339681   4.083   5.694   5.113 -0.4591 -1.8408  0.6881
   60MOL   H62439682   3.991   5.587   5.312  0.6230 -1.9565  1.4452
   60MOL   H62539683   4.069   5.739   5.347 -0.1470 -0.1170 -0.5569
   60MOL   H62639684   4.146   5.464   5.430 -1.3806 -0.0530  1.4169
   60MOL   H62739685   4.281   5.584   5.424  0.5828 -2.0741  2.3896
   60MOL   H62839686   4.131   5.605   5.525 -0.8891 -0.0528 -0.6328
   60MOL   C62939687   3.985   5.315   4.489 -0.5312 -0.3210  0.2095
   60MOL   C63039688   3.877   5.329   4.375 -0.0997  0.5776  0.3714
   60MOL   C63139689   3.809   5.188   4.339  0.1638 -0.4079 -0.1422
   60MOL   C63239690   3.677   5.204   4.259 -0.0792 -0.2652 -0.3049
   60MOL   C63339691   3.624   5.066   4.208  0.3724 -0.2468  0.1792
   60MOL   C63439692   3.516   5.077   4.093 -0.4166  0.5129  0.3418
   60MOL   C63539693   3.447   4.942   4.065  0.5955 -0.0826  0.9485
   60MOL   C63639694   3.349   4.952   3.950  0.7896 -0.0763 -0.8057
   60MOL   C63739695   3.256   4.825   3.947 -0.0148  0.5114 -0.1625
   60MOL   C63839696   3.168   4.813   3.818 -0.1870  0.5783 -0.2133
   60MOL   C63939697   3.107   4.943   3.780 -0.7742 -0.0244  0.0465
   60MOL   H64039698   4.022   5.213   4.496 -0.5162 -0.3094  0.2915
   60MOL   H64139699   3.936   5.332   4.584  3.3975 -3.2780  2.9172
   60MOL   H64239700   3.798   5.398   4.404 -0.0678  1.2084 -0.9838
   60MOL   H64339701   3.884   5.127   4.288  4.8130  2.6531  2.6695
   60MOL   H64439702   3.790   5.134   4.431 -0.6584  0.1546  0.0157
   60MOL   H64539703   3.702   5.272   4.178 -3.2070 -0.0375 -1.1388
   60MOL   H64639704   3.603   5.256   4.320  1.6829  2.2932 -0.2876
   60MOL   H64739705   3.571   5.023   4.293  2.2076  2.2010  2.6448
   60MOL   H64839706   3.703   4.995   4.185  0.5045  0.3402 -1.2602
   60MOL   H64939707   3.570   5.112   4.005  0.4772 -3.0803 -0.6278
   60MOL   H65039708   3.440   5.149   4.124 -0.5789  0.0698  0.9634
   60MOL   H65139709   3.394   4.918   4.157 -0.5303  0.8997  0.5699
   60MOL   H65239710   3.527   4.870   4.055  0.9973  0.1334  2.5404
   60MOL   H65339711   3.394   4.955   3.851  0.3493 -3.5920 -1.1616
   60MOL   H65439712   3.290   5.044   3.957  0.0219 -0.3580 -3.1656
   60MOL   H65539713   3.193   4.837   4.035 -0.1943  1.6122 -0.4289
   60MOL   H65639714   3.314   4.734   3.962  1.9835  1.4672 -1.8815
   60MOL   H65739715   3.095   4.737   3.846  0.7698 -0.1562  0.2998
   60MOL   H65839716   3.228   4.776   3.736  1.5385  1.3289  0.6782
   60MOL   H65939717   3.062   4.980   3.873 -1.0936  1.3855 -0.6578
   60MOL   H66039718   3.022   4.938   3.713 -1.0087  2.1977  0.1427
   60MOL   H66139719   3.191   5.003   3.744  1.2308 -0.8072  3.2149
   60MOL   H66239720   3.916   5.371   4.282 -1.8578  1.4425 -0.0126
   61MOL     C139721   6.432   7.197   2.029 -0.4481 -0.3665 -0.2741
   61MOL     C239722   6.408   7.312   1.929 -0.7300  0.3845  0.1166
   61MOL     C339723   6.280   7.282   1.843  0.1254 -0.4920 -0.5104
   61MOL     C439724   6.247   7.389   1.735 -0.1989 -0.2587  0.1176
   61MOL     C539725   6.121   7.352   1.662  0.8503 -0.3522 -0.1342
   61MOL     C639726   6.073   7.460   1.570  0.7786  0.7362 -0.4710
   61MOL     C739727   5.948   7.401   1.503  0.2648 -0.8063 -0.0613
   61MOL     C839728   5.871   7.501   1.411  0.4032  0.2235  0.1152
   61MOL     C939729   5.765   7.426   1.318  0.2633 -0.5358 -0.3011
   61MOL    C1039730   5.698   7.536   1.224 -0.0685  0.0157 -0.2598
   61MOL    C1139731   5.790   7.645   1.150  0.1904  0.1017 -0.4379
   61MOL    H1239732   6.386   7.205   2.128 -0.9796  1.0268 -0.6326
   61MOL    H1339733   6.539   7.205   2.043 -0.1758  0.8749 -2.8797
   61MOL    H1439734   6.489   7.307   1.855 -0.8737 -2.2232  0.1143
   61MOL    H1539735   6.200   7.278   1.917 -0.2596  3.7201 -0.5519
   61MOL    H1639736   6.287   7.180   1.805 -2.7648 -0.4714 -1.2496
   61MOL    H1739737   6.332   7.402   1.667  0.0672 -1.4934  0.2139
   61MOL    H1839738   6.241   7.490   1.777  2.0628  0.0989 -0.3044
   61MOL    H1939739   6.131   7.256   1.610 -2.2188  0.1943 -1.8421
   61MOL    H2039740   6.047   7.325   1.737  0.2080  1.0439 -0.2398
   61MOL    H2139741   6.149   7.488   1.496  2.1522 -1.1437  0.1897
   61MOL    H2239742   6.040   7.552   1.618  0.2989 -0.3776  1.3432
   61MOL    H2339743   5.970   7.304   1.458 -0.6829 -1.1344  0.1860
   61MOL    H2439744   5.869   7.363   1.568 -2.2311  0.8566 -2.0670
   61MOL    H2539745   5.943   7.570   1.369  0.8479  1.2193  2.4068
   61MOL    H2639746   5.815   7.554   1.488 -1.0503 -3.3089  1.6021
   61MOL    H2739747   5.682   7.381   1.372  0.4151 -0.1642  0.2493
   61MOL    H2839748   5.802   7.339   1.264  0.4105 -0.2711 -0.6288
   61MOL    H2939749   5.638   7.598   1.291  0.3993 -0.0270  0.2049
   61MOL    H3039750   5.633   7.491   1.149 -0.9829  0.6669  0.1246
   61MOL    H3139751   5.844   7.595   1.070  0.1830  0.2768 -0.5528
   61MOL    H3239752   5.723   0.020   1.115  0.9519  1.7943  1.7532
   61MOL    H3339753   5.860   7.682   1.225 -0.0446 -0.1320 -0.1033
   61MOL    H3439754   6.405   7.097   1.992  0.7234  0.1758 -2.6856
   61MOL    C3539755   6.402   7.447   2.004 -0.5522 -1.0943  0.5676
   61MOL    C3639756   6.534   7.493   2.074  0.4526  0.2693  0.5454
   61MOL    C3739757   6.638   7.575   1.982  0.1844 -0.3462  0.0093
   61MOL    C3839758   6.716   7.498   1.874 -0.3392 -0.0232  0.9352
   61MOL    C3939759   6.823   7.592   1.816 -0.2320  0.4961  0.4382
   61MOL    C4039760   6.925   7.513   1.733 -0.4563  0.6324 -0.2877
   61MOL    C4139761   6.861   7.461   1.602 -0.4187 -0.0897 -0.1933
   61MOL    C4239762   6.958   7.370   1.524 -0.1432 -0.3609 -0.2621
   61MOL    C4339763   7.003   7.246   1.599 -0.2010 -0.1829 -0.4663
   61MOL    C4439764   7.110   7.165   1.526  0.0770 -0.0555 -0.3927
   61MOL    C4539765   7.252   7.218   1.501  0.5158 -0.1481 -0.5596
   61MOL    H4639766   6.319   7.437   2.073  1.3745  1.2707  3.3915
   61MOL    H4739767   6.377   7.525   1.932 -2.8520 -1.6257  0.7706
   61MOL    H4839768   6.584   7.403   2.111 -0.4503 -0.6425 -0.3960
   61MOL    H4939769   6.600   7.670   1.944  1.7924  0.5623  0.6240
   61MOL    H5039770   6.710   7.607   2.057  1.2170 -0.6649 -0.8345
   61MOL    H5139771   6.644   7.475   1.795 -1.0881  0.5572  1.4397
   61MOL    H5239772   6.755   7.406   1.916 -1.6776 -0.2304  1.7496
   61MOL    H5339773   6.869   7.645   1.899  0.3090  2.2897 -0.9773
   61MOL    H5439774   6.777   7.663   1.748  1.9168  0.1153 -1.4896
   61MOL    H5539775   6.968   7.430   1.789  3.1795  2.0362 -0.8291
   61MOL    H5639776   7.002   7.589   1.714  1.3499 -1.3880 -1.1991
   61MOL    H5739777   6.761   7.422   1.623  0.0025 -1.6568 -1.0257
   61MOL    H5839778   6.839   7.544   1.535  2.5986  0.0368 -1.0973
   61MOL    H5939779   7.044   7.431   1.496 -1.1759  0.6212 -1.3470
   61MOL    H6039780   6.906   7.339   1.434  2.8521 -1.0464 -1.8261
   61MOL    H6139781   6.914   7.183   1.602 -1.4233  1.4996 -0.4540
   61MOL    H6239782   7.055   7.267   1.692  2.2726  1.3712 -2.1526
   61MOL    H6339783   7.119   7.073   1.583  2.3042 -0.8992 -2.0833
   61MOL    H6439784   7.074   7.140   1.427 -2.2606  3.5362 -0.5647
   61MOL    H6539785   7.299   7.138   1.444 -1.3173 -2.0849  0.5611
   61MOL    H6639786   7.267   7.316   1.457  1.2484  0.5880  1.2858
   61MOL    H6739787   7.307   7.212   1.595 -0.0969 -1.3107 -0.2606
   61MOL    C6839788   6.495   7.580   2.200 -0.3665 -0.0472  0.3424
   61MOL    C6939789   6.607   7.605   2.305 -0.8026  0.0390  0.2241
   61MOL    C7039790   6.561   7.703   2.407 -0.6071  0.6477 -0.3235
   61MOL    C7139791   6.551   0.149   2.365  0.4149  0.4687 -0.0004
   61MOL    C7239792   6.680   0.231   2.349 -0.7182  0.2291 -0.2903
   61MOL    C7339793   6.652   0.379   2.343 -0.6052  0.2080 -0.1239
   61MOL    C7439794   6.779   0.456   2.356  0.2393  0.0660 -0.3325
   61MOL    C7539795   6.770   0.586   2.434 -0.7704 -0.4110  0.0004
   61MOL    C7639796   6.907   0.655   2.438  0.3039  0.3023 -0.0531
   61MOL    C7739797   6.876   0.792   2.489 -0.3584  0.8915  0.6273
   61MOL    C7839798   7.009   0.869   2.521  0.0852  0.2164 -0.7802
   61MOL    H7939799   6.405   7.536   2.242 -1.6646  1.0144 -1.2212
   61MOL    H8039800   6.472   7.671   2.144 -2.0939 -1.0761 -0.6837
   61MOL    H8139801   6.699   7.648   2.266 -0.2669  1.5713  3.0441
   61MOL    H8239802   6.636   0.001   2.486  0.2500  0.0584 -1.1191
   61MOL    H8339803   6.468   7.669   2.453 -0.6403  2.3611  0.9091
   61MOL    H8439804   6.491   0.174   2.277 -1.2139  1.5569  1.3960
   61MOL    H8539805   6.493   0.200   2.442  1.8019  0.7027  0.9056
   61MOL    H8639806   6.724   0.197   2.256 -3.0010 -2.5713 -0.4373
   61MOL    H8739807   6.749   0.207   2.430 -0.0003 -1.6661 -1.4246
   61MOL    H8839808   6.590   0.398   2.256  0.8285 -0.6141 -1.3372
   61MOL    H8939809   6.587   0.414   2.423 -0.3087  1.7803 -0.5440
   61MOL    H9039810   6.828   0.472   2.260 -2.6486 -3.2819 -2.4820
   61MOL    H9139811   6.857   0.401   2.408  0.2976 -0.1848 -0.6791
   61MOL    H9239812   6.706   0.663   2.390 -0.0690 -0.9812 -2.0522
   61MOL    H9339813   6.748   0.563   2.538 -0.5869  1.4840  0.4728
   61MOL    H9439814   6.968   0.595   2.506 -0.0654  2.9235  2.7021
   61MOL    H9539815   6.945   0.661   2.336 -0.5645 -1.6527 -0.5032
   61MOL    H9639816   6.823   0.858   2.421 -1.8025 -0.9953 -0.1081
   61MOL    H9739817   6.810   0.777   2.575  0.0225 -2.3878  0.4372
   61MOL    H9839818   7.071   0.811   2.589  1.1477  5.0485  2.6315
   61MOL    H9939819   6.994   0.968   2.564  0.4006 -0.4662  0.9234
   61MOL   H10039820   7.072   0.891   2.435  0.6958  2.6557  0.2308
   61MOL   C10139821   6.654   7.473   2.379  0.1307 -0.2377  0.0717
   61MOL   C10239822   6.808   7.457   2.367  0.0520  0.1821 -0.2617
   61MOL   C10339823   6.865   7.325   2.416 -0.5629  0.0369  0.0504
   61MOL   C10439824   6.824   7.205   2.331  0.1253 -0.1686 -0.2801
   61MOL   C10539825   6.906   7.201   2.204  0.2585  0.0492  0.2296
   61MOL   C10639826   6.904   7.065   2.142 -0.1014  0.7171 -0.6051
   61MOL   C10739827   7.004   7.032   2.035 -0.4513 -0.5287  0.3250
   61MOL   C10839828   7.148   7.051   2.065  0.1689  0.3751 -1.2017
   61MOL   C10939829   7.231   7.016   1.943 -0.1153 -0.1440 -0.2164
   61MOL   C11039830   7.380   7.052   1.952 -0.4825 -0.2737 -0.2024
   61MOL   C11139831   7.470   6.973   2.052 -0.4258  0.2211 -0.4358
   61MOL   H11239832   6.622   7.464   2.483 -1.4218 -1.3966 -0.4914
   61MOL   H11339833   6.598   7.390   2.335  1.4609 -1.4644  0.6439
   61MOL   H11439834   6.832   7.451   2.261  2.4745 -2.0294  0.3706
   61MOL   H11539835   6.973   7.343   2.413 -0.5577  0.0918  0.5583
   61MOL   H11639836   6.844   7.322   2.522 -0.6795  0.1839  0.0320
   61MOL   H11739837   6.855   7.114   2.381 -0.5984 -0.9255 -1.1797
   61MOL   H11839838   6.717   7.196   2.311 -0.2353 -0.9365  1.9433
   61MOL   H11939839   6.874   7.273   2.128 -2.0927  0.4460  1.5238
   61MOL   H12039840   7.010   7.223   2.228  0.1553 -0.7929  1.4929
   61MOL   H12139841   6.925   6.992   2.221  0.5055  1.4413 -0.0842
   61MOL   H12239842   6.808   7.042   2.097  1.2654 -1.2323 -2.5858
   61MOL   H12339843   6.977   7.083   1.942  1.9052  1.2857  0.5821
   61MOL   H12439844   6.989   6.927   2.009 -0.1343 -0.4289 -0.2852
   61MOL   H12539845   7.170   7.157   2.076 -2.5448  0.7714  0.7675
   61MOL   H12639846   7.184   6.997   2.153 -1.3508  0.3729 -0.5724
   61MOL   H12739847   7.228   6.908   1.932 -1.3451 -0.1845  0.3189
   61MOL   H12839848   7.191   7.060   1.852  0.2130  2.0412  0.6650
   61MOL   H12939849   7.391   7.160   1.966  0.2978 -0.3151 -0.4782
   61MOL   H13039850   7.415   7.027   1.852 -0.3900  1.8147 -0.7149
   61MOL   H13139851   7.578   6.975   2.037 -0.2467  0.8868  0.9192
   61MOL   H13239852   7.456   6.992   2.158  0.9922  1.8323 -0.5203
   61MOL   H13339853   7.441   6.868   2.044  0.2841 -0.0065 -0.1260
   61MOL   C13439854   6.887   7.573   2.430  0.0956 -0.0154 -0.0307
   61MOL   C13539855   7.023   7.608   2.364  0.0773 -0.5782  0.3157
   61MOL   C13639856   7.125   7.678   2.458 -0.3398  0.3817  1.0248
   61MOL   C13739857   7.179   7.585   2.572 -0.1010  0.4753  0.5328
   61MOL   C13839858   7.245   7.676   2.677 -0.0790 -0.0564 -0.7322
   61MOL   C13939859   7.322   7.598   2.781 -0.0868  0.1664 -0.2221
   61MOL   C14039860   7.435   7.684   2.849 -0.1167 -0.8500 -0.4464
   61MOL   C14139861   7.513   7.600   2.946  0.5071  0.0403  0.3316
   61MOL   C14239862   7.621   7.682   3.030 -0.4275 -0.0247  0.1876
   61MOL   C14339863   7.696   7.602   3.142  1.1048 -0.0192  0.3810
   61MOL   C14439864   0.048   7.466   3.099 -0.1006  0.3725  0.1277
   61MOL   H14539865   6.843   7.670   2.451 -0.4812  0.2637 -2.4227
   61MOL   H14639866   6.904   7.547   2.535  1.6060  0.2362 -0.1981
   61MOL   H14739867   7.070   7.516   2.327  1.2683  0.3870 -0.6000
   61MOL   H14839868   7.076   0.061   2.503  3.0750  2.8197  0.2332
   61MOL   H14939869   7.209   0.025   2.411 -1.1785 -1.7877 -2.9694
   61MOL   H15039870   7.106   7.513   2.608  1.2982 -1.5789 -0.6869
   61MOL   H15139871   7.244   7.513   2.522 -1.2511  0.1947 -0.5859
   61MOL   H15239872   7.312   0.040   2.624  0.7320 -1.2055 -1.1776
   61MOL   H15339873   7.171   0.040   2.721  0.1592 -0.2802  0.0145
   61MOL   H15439874   7.264   7.554   2.861  0.7094  0.1557  0.3590
   61MOL   H15539875   7.377   7.509   2.749  0.5697  0.3663  0.3349
   61MOL   H15639876   7.511   0.007   2.776 -0.3118  0.6655 -0.1116
   61MOL   H15739877   7.390   0.071   2.890  3.0082  0.2597  0.6638
   61MOL   H15839878   7.443   7.546   3.010 -0.8776  0.2246 -0.9939
   61MOL   H15939879   7.561   7.520   2.890  0.2602  1.1804 -1.5219
   61MOL   H16039880   7.700   0.013   2.963  0.7329 -0.3745  1.3799
   61MOL   H16139881   7.569   0.063   3.077  0.5256  0.8485 -0.2908
   61MOL   H16239882   0.070   7.667   3.183  1.7070  0.8770 -2.0850
   61MOL   H16339883   7.629   7.591   3.228  0.0118  2.9866 -0.0371
   61MOL   H16439884   0.113   7.443   3.183  1.0039 -2.4914 -1.4585
   61MOL   H16539885   0.109   7.476   3.010  0.0666 -2.4889 -0.1284
   61MOL   H16639886   7.672   7.393   3.082 -0.7444  1.1184 -0.0796
   61MOL   C16739887   7.007   7.696   2.229  0.0677  0.4469  0.2926
   61MOL   C16839888   7.117   0.013   2.131 -0.1154 -0.2828 -0.0365
   61MOL   C16939889   7.092   0.128   2.032  0.1926 -0.4108  0.0311
   61MOL   C17039890   7.086   0.264   2.081 -0.0234 -0.2887  0.7706
   61MOL   C17139891   7.209   0.320   2.159 -0.0079  0.1649 -0.1356
   61MOL   C17239892   7.186   0.468   2.192  0.2488 -0.0492 -0.4687
   61MOL   C17339893   7.319   0.540   2.220  0.1925 -0.0649  0.8901
   61MOL   C17439894   7.297   0.660   2.320  0.4781  0.3292  0.6003
   61MOL   C17539895   7.428   0.733   2.325  1.1542 -0.2276 -0.1091
   61MOL   C17639896   7.441   0.863   2.407 -0.0884  1.1952 -0.1686
   61MOL   C17739897   7.441   0.840   2.565 -0.2593 -0.3185 -0.3900
   61MOL   H17839898   6.919   7.658   2.176  0.2034  0.7770 -0.1684
   61MOL   H17939899   6.971   0.090   2.262 -0.1989  1.6317 -3.3235
   61MOL   H18039900   7.201   0.051   2.190 -1.2648  1.0348  0.7871
   61MOL   H18139901   6.991   0.112   1.996 -0.5924 -0.0635  2.0337
   61MOL   H18239902   7.166   0.132   1.952 -1.0783  1.2758 -1.0737
   61MOL   H18339903   7.084   0.322   1.989  0.1488 -1.7870 -0.1954
   61MOL   H18439904   6.998   0.280   2.143 -0.3567 -2.3443  0.8712
   61MOL   H18539905   7.300   0.285   2.110 -0.5001  0.0655 -0.9827
   61MOL   H18639906   7.213   0.260   2.250  0.3625 -1.4443 -1.2029
   61MOL   H18739907   7.139   0.511   2.104 -0.7191 -1.0121 -0.4259
   61MOL   H18839908   7.119   0.474   2.277 -1.6344 -0.9607 -1.8552
   61MOL   H18939909   7.354   0.572   2.121 -1.1031 -0.0447  0.4309
   61MOL   H19039910   7.396   0.466   2.243  2.0213  1.1089 -1.2630
   61MOL   H19139911   7.216   0.723   2.282 -0.5962 -1.2251  0.2445
   61MOL   H19239912   7.274   0.623   2.420 -2.5534 -2.0475 -0.8986
   61MOL   H19339913   7.460   0.757   2.223 -1.5929  3.7178 -0.1522
   61MOL   H19439914   7.503   0.664   2.365 -0.6302 -2.1305  0.0172
   61MOL   H19539915   7.362   0.936   2.390 -1.5348 -0.8167 -2.4725
   61MOL   H19639916   7.527   0.925   2.379 -0.0173  1.4454  0.5985
   61MOL   H19739917   7.363   0.779   2.608 -1.1247  1.4351  0.5720
   61MOL   H19839918   7.442   0.932   2.623  1.3077  0.1827 -1.1721
   61MOL   H19939919   7.532   0.794   2.602 -0.2467  0.5770  0.7236
   61MOL   C20039920   7.157   7.580   2.049 -0.0127 -0.1239 -0.1927
   61MOL   C20139921   7.311   7.566   2.019 -0.1913  0.1949 -0.0360
   61MOL   C20239922   7.323   7.472   1.894 -0.5144  0.5216 -0.2252
   61MOL   C20339923   7.465   7.462   1.827  0.1031 -0.2516  0.2777
   61MOL   C20439924   7.501   7.591   1.758 -0.0787  0.5212 -0.1953
   61MOL   C20539925   7.587   7.578   1.627 -0.9202 -0.7453 -0.1376
   61MOL   C20639926   7.505   7.568   1.502 -0.8391 -0.3136 -1.0395
   61MOL   C20739927   7.596   7.570   1.375 -0.0424 -0.1300 -0.2097
   61MOL   C20839928   7.509   7.570   1.256  0.0026  0.1825  0.5867
   61MOL   C20939929   7.582   7.541   1.125 -1.4030 -0.4452  0.2736
   61MOL   C21039930   7.475   7.539   1.016  0.1697 -0.5244  0.4843
   61MOL   H21139931   7.115   7.494   2.102 -0.8488  0.8390  0.7080
   61MOL   H21239932   7.097   7.582   1.958 -1.0999 -0.9083  0.4964
   61MOL   H21339933   7.342   7.667   1.994  2.0971 -0.6005 -0.4668
   61MOL   H21439934   7.252   7.509   1.820 -1.6049 -0.1866  0.4425
   61MOL   H21539935   7.282   7.373   1.913  0.2643 -0.1810 -2.0443
   61MOL   H21639936   7.450   7.390   1.747 -1.1031 -0.5758  0.7775
   61MOL   H21739937   7.547   7.427   1.890 -1.0863 -1.8728  0.9729
   61MOL   H21839938   7.549   7.654   1.832  0.7625  0.3144 -0.5602
   61MOL   H21939939   7.413   7.651   1.733 -0.3139  1.0859  1.8871
   61MOL   H22039940   7.632   7.677   1.629  0.0757 -1.1903  0.0079
   61MOL   H22139941   7.670   7.508   1.635 -0.2014 -0.3144 -3.2872
   61MOL   H22239942   7.438   7.653   1.489  1.7936  1.7673 -1.5716
   61MOL   H22339943   7.454   7.472   1.497 -0.7142 -0.5694  1.5726
   61MOL   H22439944   7.669   7.489   1.381 -0.4051 -0.5087 -0.9580
   61MOL   H22539945   7.656   7.662   1.379 -0.3949  0.1059 -0.4012
   61MOL   H22639946   7.463   7.669   1.260  0.3028  0.2914  1.5531
   61MOL   H22739947   7.427   7.499   1.259 -0.9198  1.1810 -0.8662
   61MOL   H22839948   7.660   7.613   1.100  0.1899 -1.0187  3.3561
   61MOL   H22939949   7.649   7.455   1.125  1.4365  1.7011 -0.3209
   61MOL   H23039950   7.390   7.476   1.044  0.5090 -1.2210 -0.0525
   61MOL   H23139951   7.513   7.515   0.918  0.8389  2.1895  0.0251
   61MOL   H23239952   7.432   7.639   1.010 -0.9717 -0.9753  0.9978
   61MOL   C23339953   7.383   7.521   2.146 -0.7603 -0.5892 -0.7521
   61MOL   C23439954   7.524   7.579   2.158  0.3636  0.0612  0.5269
   61MOL   C23539955   7.627   7.488   2.225 -0.0763 -0.0348  0.2177
   61MOL   C23639956   7.649   7.346   2.176  0.0711  0.2911  0.0183
   61MOL   C23739957   0.074   7.290   2.233  0.4625 -0.1582 -0.7933
   61MOL   C23839958   0.111   7.142   2.207  0.0045 -0.0210  0.4289
   61MOL   C23939959   0.255   7.096   2.257  0.1006  0.5427 -0.2243
   61MOL   C24039960   0.261   6.944   2.280 -0.3625 -0.3221 -0.5845
   61MOL   C24139961   0.224   6.852   2.157 -0.2179 -0.0328  0.3064
   61MOL   C24239962   0.315   6.875   2.036 -0.2792  0.1718  0.1094
   61MOL   C24339963   0.272   6.789   1.917  0.2628  0.3903 -0.3233
   61MOL   H24439964   7.382   7.412   2.156 -1.1560 -0.4181  1.1349
   61MOL   H24539965   7.320   7.544   2.231 -0.3416  0.4500 -0.7185
   61MOL   H24639966   7.561   7.600   2.058  1.7379 -1.5172  0.6731
   61MOL   H24739967   0.020   7.534   2.204 -0.0911  0.3751  1.0268
   61MOL   H24839968   7.592   7.477   2.328  3.3614 -0.8692  1.3574
   61MOL   H24939969   7.654   7.340   2.068 -0.1228  0.8660 -0.0250
   61MOL   H25039970   7.572   7.272   2.198  0.0171  0.4524  0.3930
   61MOL   H25139971   0.067   7.312   2.340 -0.0994  0.9856 -1.0513
   61MOL   H25239972   0.164   7.347   2.210 -1.7241  2.5124 -3.1490
   61MOL   H25339973   0.102   7.116   2.101 -3.5909  1.5811  0.2507
   61MOL   H25439974   0.047   7.073   2.261  1.6741 -1.8818  0.0696
   61MOL   H25539975   0.325   7.140   2.186  0.0554  1.4248  0.2834
   61MOL   H25639976   0.276   7.149   2.349  0.9885  0.0379 -0.1266
   61MOL   H25739977   0.361   6.919   2.315 -0.4550 -0.2239 -0.2595
   61MOL   H25839978   0.202   6.920   2.368  0.6518  0.4821  0.3199
   61MOL   H25939979   0.213   6.747   2.183 -1.1909 -0.1339 -0.5218
   61MOL   H26039980   0.130   6.893   2.122  1.1581  2.1465 -0.9677
   61MOL   H26139981   0.411   6.841   2.074 -0.2570 -0.4037 -0.4512
   61MOL   H26239982   0.339   6.979   2.012 -0.0551  0.7697  2.7688
   61MOL   H26339983   0.340   6.814   1.835  0.7192  1.4491  0.3574
   61MOL   H26439984   0.169   6.810   1.886  1.3072  2.8295 -2.4119
   61MOL   H26539985   0.279   6.682   1.937  0.0693  0.3647 -0.3955
   61MOL   C26639986   7.514   0.021   2.224  0.0848 -0.2056  0.5581
   61MOL   C26739987   7.639   0.108   2.198 -0.9681  0.3784  0.0126
   61MOL   C26839988   0.001   0.156   2.327 -0.0341 -0.2127  0.2319
   61MOL   C26939989   7.648   0.289   2.392 -0.5120  0.3225  0.4258
   61MOL   C27039990   0.013   0.328   2.521  0.0397  0.2388 -0.2812
   61MOL   C27139991   7.685   0.465   2.582  0.0634  0.0469  0.1922
   61MOL   C27239992   7.532   0.494   2.616 -0.3352 -0.4472 -0.5314
   61MOL   C27339993   7.478   0.391   2.713  0.0086 -0.1953  0.2312
   61MOL   C27439994   7.351   0.428   2.794  0.4645 -0.2256 -0.1760
   61MOL   C27539995   7.227   0.468   2.714  0.0133 -0.5024  0.7466
   61MOL   C27639996   7.197   0.361   2.599 -0.2333 -0.1778 -0.1029
   61MOL   H27739997   7.491   0.019   2.330 -1.1019  4.4614  0.4797
   61MOL   H27839998   7.433   0.079   2.181  0.5589 -0.4743 -0.7450
   61MOL   H27939999   0.006   0.041   2.149 -3.0079 -1.2816 -0.7525
   61MOL   H28040000   0.001   0.073   2.398  1.7368 -1.1439 -0.8122
   61MOL   H28140001   0.108   0.179   2.324 -0.5832  2.7153  1.2913
   61MOL   H28240002   7.540   0.275   2.397 -0.2403 -2.1630 -0.3118
   61MOL   H28340003   7.667   0.373   2.324  1.4976 -0.2837  0.2056
   61MOL   H28440004   0.116   0.343   2.487  0.0943  1.7811  0.5478
   61MOL   H28540005   0.001   0.251   2.597 -3.3031  1.1383  0.1625
   61MOL   H28640006   0.021   0.547   2.521  0.5194 -0.5010 -0.2633
   61MOL   H28740007   0.037   0.477   2.675 -2.6268  1.3470  1.6714
   61MOL   H28840008   7.527   0.591   2.665 -1.5028 -0.1334 -1.2404
   61MOL   H28940009   7.478   0.505   2.522 -1.3930  1.3586  0.2624
   61MOL   H29040010   7.557   0.361   2.782  0.1621  0.3877  0.3088
   61MOL   H29140011   7.453   0.301   2.657  1.7442 -0.9879  0.7043
   61MOL   H29240012   7.324   0.335   2.844  0.9915 -1.6442 -2.4428
   61MOL   H29340013   7.372   0.506   2.866 -2.3099  0.7628 -0.3657
   61MOL   H29440014   7.246   0.566   2.671  2.8488 -2.4428 -2.7535
   61MOL   H29540015   7.140   0.478   2.778  0.3606  1.1390  0.9904
   61MOL   H29640016   7.177   0.263   2.641 -0.0226  0.2637  1.0389
   61MOL   H29740017   7.277   0.339   2.529  0.9009 -1.4695  1.5635
   61MOL   H29840018   7.106   0.387   2.544  0.2275  2.8898  0.4931
   61MOL   C29940019   7.626   0.222   2.097  0.1163  0.8499 -0.1263
   61MOL   C30040020   0.055   0.286   2.042  0.4632  0.1640  0.4143
   61MOL   C30140021   0.022   0.437   2.018 -0.2241 -0.3019  0.1064
   61MOL   C30240022   0.140   0.530   1.984 -0.4218 -0.4536  0.8610
   61MOL   C30340023   0.215   0.584   2.104 -0.3630  0.1760 -0.1679
   61MOL   C30440024   0.354   0.661   2.090 -0.7714 -0.4047  0.2609
   61MOL   C30540025   0.474   0.574   2.042  0.0900  0.2336 -0.5923
   61MOL   C30640026   0.614   0.645   2.055  0.0212  0.0172 -0.1185
   61MOL   C30740027   0.734   0.551   2.023 -0.6703  0.5148 -0.4614
   61MOL   C30840028   0.877   0.602   2.058 -0.3596  0.0656 -0.6352
   61MOL   C30940029   0.890   0.656   2.201 -0.3234  0.4787  0.3279
   61MOL   H31040030   7.555   0.287   2.149  0.1035 -0.5664  1.7150
   61MOL   H31140031   7.566   0.184   2.014 -0.0618  0.0224  0.3710
   61MOL   H31240032   0.125   0.300   2.125  0.4943 -0.8606  0.5677
   61MOL   H31340033   7.653   0.450   1.937 -1.7746  0.3807  1.5776
   61MOL   H31440034   7.676   0.471   2.109  0.1810  0.5233  0.0155
   61MOL   H31540035   0.208   0.458   1.939 -0.6236  0.5959 -1.1389
   61MOL   H31640036   0.125   0.608   1.910  0.5667 -2.7244 -1.8308
   61MOL   H31740037   0.144   0.649   2.154 -0.0100  1.7679 -1.7168
   61MOL   H31840038   0.220   0.493   2.164 -1.5961  0.7259  0.7917
   61MOL   H31940039   0.376   0.718   2.180  0.0558 -3.5940  2.1444
   61MOL   H32040040   0.340   0.734   2.010  0.8347 -0.2457  0.0951
   61MOL   H32140041   0.475   0.475   2.087  2.0425  0.8984  0.8826
   61MOL   H32240042   0.455   0.566   1.935  1.0192  0.3178 -0.7607
   61MOL   H32340043   0.635   0.672   2.159  5.1243  0.9778 -1.2758
   61MOL   H32440044   0.611   0.736   1.995  0.6454 -0.3412 -0.7050
   61MOL   H32540045   0.733   0.518   1.919  0.5114  0.5246 -0.4886
   61MOL   H32640046   0.718   0.458   2.076  1.5632  0.0193 -0.6235
   61MOL   H32740047   0.907   0.685   1.995 -1.7622 -0.0384 -1.4736
   61MOL   H32840048   0.948   0.524   2.030 -0.5951 -0.1617 -0.5988
   61MOL   H32940049   0.991   0.694   2.211 -0.8247  1.9310  0.0704
   61MOL   H33040050   0.835   0.750   2.196 -1.3815  0.0321  3.0251
   61MOL   H33140051   0.845   0.597   2.281 -1.0545 -2.3636 -2.0517
   61MOL   C33240052   0.116   0.211   1.921  0.6924  0.9102 -0.3186
   61MOL   C33340053   0.268   0.176   1.940 -0.2691 -0.0677 -0.5164
   61MOL   C33440054   0.329   0.156   1.799 -0.2302  0.3936 -0.3751
   61MOL   C33540055   0.262   0.046   1.726  0.8455  0.1603 -0.1330
   61MOL   C33640056   0.343   0.012   1.607  0.3689 -0.4099  0.0118
   61MOL   C33740057   0.273   7.595   1.540 -0.1913 -0.3705  0.4484
   61MOL   C33840058   0.363   7.529   1.433  0.5630 -0.0663 -0.3525
   61MOL   C33940059   0.303   7.402   1.379  0.1721 -0.2151  0.2371
   61MOL   C34040060   0.382   7.367   1.253 -0.2307 -0.4787  0.3963
   61MOL   C34140061   0.362   7.226   1.200 -0.1301  0.0822 -0.5331
   61MOL   C34240062   0.416   7.125   1.301 -0.0998  0.5960 -0.2107
   61MOL   H34340063   0.071   0.111   1.923  0.9815  0.7753 -0.6862
   61MOL   H34440064   0.095   0.259   1.826 -0.1109  1.0945 -0.0533
   61MOL   H34540065   0.314   0.267   1.979  0.1995 -0.6798  0.3700
   61MOL   H34640066   0.434   0.125   1.807 -0.0220  0.8878 -1.1665
   61MOL   H34740067   0.333   0.252   1.747  1.8592  0.5956  0.0994
   61MOL   H34840068   0.264   7.656   1.782 -2.3983  0.5218  0.6743
   61MOL   H34940069   0.158   0.063   1.700  0.6671  0.2320  0.6237
   61MOL   H35040070   0.369   0.092   1.538 -0.3792 -1.5106 -1.5889
   61MOL   H35140071   0.436   7.670   1.640  0.7685 -2.2567 -3.4026
   61MOL   H35240072   0.182   7.625   1.488  0.1350  2.0344  1.2286
   61MOL   H35340073   0.250   7.517   1.612  0.1791 -1.0653 -0.1702
   61MOL   H35440074   0.458   7.505   1.480  1.7755  3.0244 -1.1052
   61MOL   H35540075   0.383   7.606   1.358 -1.0034  0.9561  0.2542
   61MOL   H35640076   0.315   7.329   1.459 -1.7396 -1.3137 -0.4384
   61MOL   H35740077   0.196   7.403   1.357  0.4730  1.5945 -1.2761
   61MOL   H35840078   0.488   7.393   1.253 -0.4353  0.3852  0.5330
   61MOL   H35940079   0.348   7.433   1.172 -0.7817 -1.4194 -0.1501
   61MOL   H36040080   0.423   7.209   1.111  0.0895 -2.5712  0.0667
   61MOL   H36140081   0.265   7.199   1.158  0.8394 -0.0740 -2.7293
   61MOL   H36240082   0.350   7.089   1.379  0.3751  0.2157  0.0182
   61MOL   H36340083   0.449   7.035   1.248 -1.2927  0.7968 -1.3083
   61MOL   H36440084   0.511   7.155   1.346  0.2494 -1.4682  0.4935
   61MOL   C36540085   0.284   0.053   2.031 -0.1105 -0.5049  0.4453
   61MOL   C36640086   0.421   0.007   2.072 -0.6867 -0.1919  0.4329
   61MOL   C36740087   0.495   0.112   2.155 -0.5406  0.3812 -0.2144
   61MOL   C36840088   0.428   0.156   2.291  0.2444 -0.5609 -0.6150
   61MOL   C36940089   0.511   0.269   2.359 -0.0254  0.6734 -0.1750
   61MOL   C37040090   0.467   0.286   2.504  0.2160 -0.7194 -0.1944
   61MOL   C37140091   0.535   0.416   2.565 -0.5931 -0.0112  0.3783
   61MOL   C37240092   0.440   0.537   2.536 -1.0011 -0.6744  0.2627
   61MOL   C37340093   0.496   0.678   2.566 -0.1453  0.5923  0.6306
   61MOL   C37440094   0.624   0.707   2.490  0.3730 -0.2983 -0.7967
   61MOL   C37540095   0.691   0.841   2.527 -0.3007  0.0885  0.1358
   61MOL   H37640096   0.217   0.068   2.116  2.4255 -1.1318  2.5923
   61MOL   H37740097   0.246   7.669   1.977 -1.8099  0.4426  0.0625
   61MOL   H37840098   0.482   7.691   1.983 -1.4900  2.0243 -0.6569
   61MOL   H37940099   0.500   0.197   2.087 -0.1469 -0.2241 -0.9527
   61MOL   H38040100   0.599   0.081   2.161 -0.6055  0.2303  0.1319
   61MOL   H38140101   0.423   0.071   2.359 -1.0891  0.5299  0.6721
   61MOL   H38240102   0.328   0.196   2.276 -0.0639 -0.7731  0.7627
   61MOL   H38340103   0.494   0.358   2.298  0.1769  2.1556  1.8951
   61MOL   H38440104   0.614   0.237   2.349 -0.2501  0.1110 -0.7684
   61MOL   H38540105   0.509   0.196   2.550  0.3878  0.8079  2.7455
   61MOL   H38640106   0.360   0.285   2.521  0.0160 -0.0318 -1.4040
   61MOL   H38740107   0.547   0.411   2.673  3.0949  1.1349  0.0817
   61MOL   H38840108   0.630   0.433   2.516 -1.1186  0.5881 -0.4482
   61MOL   H38940109   0.341   0.517   2.576  0.0839 -1.4900  2.6079
   61MOL   H39040110   0.412   0.536   2.431 -0.4880 -0.5390  0.1216
   61MOL   H39140111   0.414   0.747   2.544 -0.7582 -0.3261  0.0413
   61MOL   H39240112   0.513   0.695   2.673  0.7985  2.0747  0.2588
   61MOL   H39340113   0.696   0.628   2.512  1.6538  0.9370 -0.4644
   61MOL   H39440114   0.613   0.700   2.382  0.2046 -2.5045 -0.6609
   61MOL   H39540115   0.788   0.842   2.479  0.4846  0.2822  1.6936
   61MOL   H39640116   0.695   0.855   2.635  1.2454 -1.0792  0.2371
   61MOL   H39740117   0.627   0.926   2.502 -0.6682  0.1676  1.3165
   61MOL   C39840118   0.408   7.580   2.153 -0.1267 -0.1860  0.5605
   61MOL   C39940119   0.535   7.493   2.155 -0.0876  0.5545 -0.4150
   61MOL   C40040120   0.572   7.431   2.015  0.0813  0.1102  0.4032
   61MOL   C40140121   0.457   7.360   1.941  0.7516  0.4415  0.3122
   61MOL   C40240122   0.507   7.250   1.849 -0.3200 -0.1306 -0.3570
   61MOL   C40340123   0.404   7.173   1.763 -0.5666 -0.2287 -0.0090
   61MOL   C40440124   0.473   7.091   1.657  0.4107 -0.2377  0.0651
   61MOL   C40540125   0.574   6.984   1.716 -0.6516 -0.4307 -0.1541
   61MOL   C40640126   0.618   6.885   1.613  0.2238  0.3703  0.4545
   61MOL   C40740127   0.679   6.761   1.674  0.3855 -0.0748  0.1357
   61MOL   C40840128   0.573   6.661   1.719 -0.3622  0.8013  0.0189
   61MOL   H40940129   0.319   7.526   2.120 -0.5719 -0.0606  1.5595
   61MOL   H41040130   0.371   7.600   2.253  0.0385  3.9725 -0.1044
   61MOL   H41140131   0.619   7.557   2.181  1.3347 -2.0073  1.6099
   61MOL   H41240132   0.657   7.363   2.024 -0.6972 -0.8921  0.2506
   61MOL   H41340133   0.600   7.510   1.946 -0.6049  0.2185  0.2476
   61MOL   H41440134   0.396   7.311   2.017  3.9951 -0.9375  2.1292
   61MOL   H41540135   0.397   7.432   1.886  0.8270 -0.8807 -1.5306
   61MOL   H41640136   0.577   7.294   1.778  0.8780  0.2870  1.0699
   61MOL   H41740137   0.565   7.177   1.906  1.2610  0.8767 -0.6557
   61MOL   H41840138   0.351   7.256   1.715 -3.1635 -1.3866  0.7291
   61MOL   H41940139   0.324   7.115   1.810 -1.9612 -0.4153 -2.5329
   61MOL   H42040140   0.392   7.035   1.610  1.0717  0.8376 -2.4357
   61MOL   H42140141   0.522   7.162   1.591  2.5572 -0.1320  1.7145
   61MOL   H42240142   0.516   6.927   1.789  0.8051  0.5880  1.8710
   61MOL   H42340143   0.660   7.020   1.773 -0.6731 -0.5894 -0.0187
   61MOL   H42440144   0.538   6.855   1.546  0.3881 -1.4731  1.0503
   61MOL   H42540145   0.695   6.933   1.553  0.7426 -3.5838 -2.2345
   61MOL   H42640146   0.757   6.776   1.748  0.7007 -2.0910  0.2484
   61MOL   H42740147   0.723   6.719   1.583  0.0369  0.1702 -0.1482
   61MOL   H42840148   0.621   6.563   1.719 -0.4111  0.7576  2.5291
   61MOL   H42940149   0.488   6.651   1.651 -0.5170  0.8084  0.2131
   61MOL   H43040150   0.538   6.675   1.821  0.4825  2.2787  0.1212
   61MOL   C43140151   0.516   7.380   2.259 -0.1801 -0.1501  0.0631
   61MOL   C43240152   0.653   7.333   2.318 -0.2517  0.0387  0.2948
   61MOL   C43340153   0.656   7.178   2.337 -0.7821  0.1750 -0.6335
   61MOL   C43440154   0.719   7.095   2.226 -0.1171  0.5252  0.7561
   61MOL   C43540155   0.714   6.942   2.253  0.0791 -0.7054  0.0128
   61MOL   C43640156   0.784   6.849   2.149  0.0215  0.6548  0.5112
   61MOL   C43740157   0.735   6.701   2.137  0.3313 -0.2045 -0.1809
   61MOL   C43840158   0.822   6.613   2.051 -0.0328  0.0445 -0.2060
   61MOL   C43940159   0.768   6.474   1.998  0.9711 -0.4411  0.0785
   61MOL   C44040160   0.841   6.411   1.880  0.5717  0.1759  0.1919
   61MOL   C44140161   0.977   6.344   1.921  0.2003 -0.1898 -0.4047
   61MOL   H44240162   0.467   7.295   2.213 -2.4294  0.8257  0.5994
   61MOL   H44340163   0.441   7.408   2.333 -1.6360 -0.8186 -1.1501
   61MOL   H44440164   0.732   7.363   2.249  1.1165 -1.3620  1.2288
   61MOL   H44540165   0.697   7.156   2.436  1.1684  1.8991 -1.0083
   61MOL   H44640166   0.553   7.143   2.340 -0.5130 -0.6858 -1.3031
   61MOL   H44740167   0.824   7.122   2.221  0.6233 -2.3679  0.2354
   61MOL   H44840168   0.676   7.123   2.130 -0.0286 -0.1845  0.5113
   61MOL   H44940169   0.610   6.908   2.248  0.4799 -2.3377  1.8009
   61MOL   H45040170   0.743   6.907   2.353  1.0131  0.4671  0.1487
   61MOL   H45140171   0.892   6.859   2.143  0.1840 -1.0399  0.4201
   61MOL   H45240172   0.750   6.883   2.051  1.0514 -1.0537 -0.4446
   61MOL   H45340173   0.632   6.700   2.101  0.7754 -0.0836 -1.4764
   61MOL   H45440174   0.735   6.655   2.237 -1.6799  1.1655  0.4869
   61MOL   H45540175   0.850   6.672   1.964  1.3735 -1.1590 -0.5843
   61MOL   H45640176   0.909   6.597   2.114 -0.8337  0.2072  0.9604
   61MOL   H45740177   0.664   6.499   1.977  1.4581  0.8841 -0.7542
   61MOL   H45840178   0.759   6.405   2.082 -0.2266 -2.1700 -1.4144
   61MOL   H45940179   0.845   6.474   1.792  1.2850  0.4149  0.3933
   61MOL   H46040180   0.771   6.334   1.844 -0.8174  1.0203  1.0410
   61MOL   H46140181   0.966   6.300   2.021 -1.2981  2.5202  0.6751
   61MOL   H46240182   1.007   6.274   1.843 -0.5380 -0.7456 -0.1941
   61MOL   H46340183   1.054   6.419   1.937 -0.4188 -0.0287  2.0266
   61MOL   C46440184   0.678   7.419   2.454  0.3766 -0.4429  0.2851
   61MOL   C46540185   0.832   7.425   2.499 -0.3982 -0.5472  0.0066
   61MOL   C46640186   0.907   7.543   2.433 -0.0080  0.7172 -0.3904
   61MOL   C46740187   1.063   7.545   2.444  0.5127  0.1935 -0.2083
   61MOL   C46840188   1.134   7.654   2.373  0.3777 -0.6454  0.2182
   61MOL   C46940189   1.164   7.631   2.223  0.3266 -0.2536  0.5297
   61MOL   C47040190   1.276   0.017   2.149  0.5967 -0.2843 -0.1174
   61MOL   C47140191   1.231   0.165   2.147 -0.1000  0.2942 -1.0048
   61MOL   C47240192   1.335   0.255   2.076 -0.0409 -0.6638  0.2927
   61MOL   C47340193   1.314   0.402   2.090  0.1878 -0.3608  0.3695
   61MOL   C47440194   1.451   0.481   2.071 -0.1797  0.1113 -0.2020
   61MOL   H47540195   0.611   7.380   2.530 -0.4726  1.9817  0.8130
   61MOL   H47640196   0.638   7.519   2.442 -0.8875 -0.8300  1.2170
   61MOL   H47740197   0.891   7.342   2.461  4.0735  2.9051 -0.9848
   61MOL   H47840198   0.866   7.634   2.475 -0.0203 -0.2097  1.6556
   61MOL   H47940199   0.864   7.540   2.333 -1.8817  1.0113  0.4009
   61MOL   H48040200   1.099   7.552   2.546  0.9690  2.1860 -0.4847
   61MOL   H48140201   1.094   7.449   2.401  0.8451  0.3673 -0.3538
   61MOL   H48240202   1.230   7.668   2.423  0.4085  1.1598 -0.3039
   61MOL   H48340203   1.081   0.044   2.389 -0.8567 -0.9654 -1.7707
   61MOL   H48440204   1.196   7.528   2.210  2.3056  0.5217 -0.9921
   61MOL   H48540205   1.072   7.644   2.167  0.2052 -1.1910  0.5072
   61MOL   H48640206   1.362   0.020   2.216  1.6190  2.6256 -1.4752
   61MOL   H48740207   1.316   7.682   2.055 -0.1689 -1.2042 -0.0736
   61MOL   H48840208   1.138   0.168   2.090 -0.0734 -1.7377 -1.1829
   61MOL   H48940209   1.214   0.211   2.244 -2.4806  0.8463 -1.6461
   61MOL   H49040210   1.431   0.223   2.115 -0.0947  0.0409  1.0211
   61MOL   H49140211   1.337   0.230   1.970 -2.4309 -0.3874  0.1497
   61MOL   H49240212   1.234   0.445   2.030  0.5400 -0.5539 -0.2529
   61MOL   H49340213   1.278   0.427   2.190 -1.5860  0.4982 -0.4601
   61MOL   H49440214   1.439   0.578   2.121 -0.4720  1.3131 -2.5241
   61MOL   H49540215   1.470   0.506   1.967 -1.3852  0.1114 -0.4278
   61MOL   H49640216   1.532   0.432   2.125 -0.2214  1.0397  0.7177
   61MOL   C49740217   0.842   7.433   2.653  0.1734 -0.1720 -0.0283
   61MOL   C49840218   0.838   7.293   2.720  0.3945 -0.0934 -0.6074
   61MOL   C49940219   0.807   7.319   2.870 -0.5333  0.6943 -0.0379
   61MOL   C50040220   0.665   7.361   2.895 -0.0036  0.1935 -0.1549
   61MOL   C50140221   0.631   7.396   3.042 -0.8489  0.2984 -0.5223
   61MOL   C50240222   0.478   7.411   3.068  0.1776 -0.3686  0.2858
   61MOL   C50340223   0.446   7.465   3.206 -0.1951 -0.2892 -0.0676
   61MOL   C50440224   0.459   7.617   3.219  0.7795 -0.3230 -0.0664
   61MOL   C50540225   0.446   7.663   3.366  0.2710  0.1223 -0.4957
   61MOL   C50640226   0.450   0.109   3.388 -0.5727 -0.0122 -0.2637
   61MOL   C50740227   0.321   0.195   3.356  0.5849 -0.1757  0.0254
   61MOL   H50840228   0.941   7.473   2.674  0.3186 -0.1760 -0.6818
   61MOL   H50940229   0.785   7.509   2.705  1.1574 -1.3654  2.9037
   61MOL   H51040230   0.764   7.228   2.674  2.0835 -1.1607 -1.9007
   61MOL   H51140231   0.876   7.393   2.911  1.4690 -0.9126 -0.4313
   61MOL   H51240232   0.847   7.235   2.927 -2.7548 -2.2159 -2.6094
   61MOL   H51340233   0.601   7.280   2.860  0.2359 -0.3280  0.6078
   61MOL   H51440234   0.644   7.448   2.832  0.8484  0.9560  0.6014
   61MOL   H51540235   0.657   7.302   3.092  0.9733 -0.8089 -3.4212
   61MOL   H51640236   0.692   7.474   3.088 -0.5212 -0.2164 -0.0781
   61MOL   H51740237   0.429   7.473   2.992  0.3113  0.5138  0.9043
   61MOL   H51840238   0.440   7.309   3.061  0.9408 -0.5238 -1.7670
   61MOL   H51940239   0.342   7.440   3.224 -0.6610  0.1505 -1.9841
   61MOL   H52040240   0.512   7.405   3.268 -1.5233 -0.6754  0.9860
   61MOL   H52140241   0.377   7.663   3.164  0.7518 -0.2646  0.0245
   61MOL   H52240242   0.546   7.660   3.171  1.0312  0.3890  1.0314
   61MOL   H52340243   0.526   7.624   3.430 -2.0744  0.3115  2.7097
   61MOL   H52440244   0.358   7.616   3.411  0.7024  0.4705  0.7250
   61MOL   H52540245   0.542   0.152   3.347 -0.1900 -1.5737 -1.1131
   61MOL   H52640246   0.461   0.126   3.495  1.1446 -1.4271 -0.1797
   61MOL   H52740247   0.250   0.173   3.436  0.4163  1.5468  0.3542
   61MOL   H52840248   0.280   0.171   3.258  1.6441  2.6684 -1.1552
   61MOL   H52940249   0.338   0.302   3.357  2.5274 -0.4683  2.0718
   61MOL   C53040250   0.971   7.213   2.698  0.2639  0.4937 -0.2990
   61MOL   C53140251   0.975   7.066   2.745  0.2279 -0.5174  0.0684
   61MOL   C53240252   1.120   7.006   2.736  0.6750  0.2493 -0.3714
   61MOL   C53340253   1.206   7.054   2.848 -0.2896  0.1228  0.4661
   61MOL   C53440254   1.344   6.981   2.827  0.1807 -0.3225 -0.5014
   61MOL   C53540255   1.455   7.040   2.910  0.0591 -0.0215  0.6108
   61MOL   C53640256   1.572   6.944   2.923 -0.2718  0.0526  0.0915
   61MOL   C53740257   1.687   6.994   3.012  0.7165 -0.2176 -0.2399
   61MOL   C53840258   1.814   6.909   2.993  0.0970  0.1002 -0.3260
   61MOL   C53940259   1.867   6.867   3.129 -0.2881  0.5273 -0.3497
   61MOL   C54040260   1.993   6.771   3.124 -0.0435  0.4722  0.4746
   61MOL   H54140261   0.993   7.218   2.591 -0.1966 -0.8317 -0.4681
   61MOL   H54240262   1.042   7.276   2.752  0.6638  0.4312 -0.7451
   61MOL   H54340263   0.949   7.066   2.851  0.4872  0.6401  0.1353
   61MOL   H54440264   1.169   7.043   2.645 -0.7943  1.5808 -0.6598
   61MOL   H54540265   1.120   6.897   2.730  3.0189  0.0827  2.1256
   61MOL   H54640266   1.160   7.017   2.940  0.7505  0.4221  1.0988
   61MOL   H54740267   1.223   7.160   2.863  1.1153  0.4013 -2.6043
   61MOL   H54840268   1.397   6.986   2.732 -1.3379  0.3918 -1.3438
   61MOL   H54940269   1.330   6.875   2.849  3.6082 -0.6841  0.1961
   61MOL   H55040270   1.405   7.065   3.004 -1.2231 -3.4535  0.9094
   61MOL   H55140271   1.489   7.133   2.864  1.5366 -1.3157 -0.9298
   61MOL   H55240272   1.610   6.927   2.822  1.7841  0.9916  0.6841
   61MOL   H55340273   1.542   6.844   2.953  0.7626 -0.3376 -0.1475
   61MOL   H55440274   1.651   6.991   3.115 -0.7242  0.0870 -0.7238
   61MOL   H55540275   1.713   7.097   2.990  0.6874 -0.3817 -1.0748
   61MOL   H55640276   1.889   6.971   2.943  1.7273 -1.8426 -0.3425
   61MOL   H55740277   1.806   6.834   2.914 -0.1764 -0.3644  0.1439
   61MOL   H55840278   1.788   6.806   3.174 -1.9568 -0.2027 -3.9937
   61MOL   H55940279   1.890   6.950   3.195 -0.1525  0.9179 -0.8848
   61MOL   H56040280   1.995   6.706   3.036 -1.8597  1.3483 -0.2261
   61MOL   H56140281   2.078   6.838   3.114 -1.0369  1.9356  1.6841
   61MOL   H56240282   2.007   6.705   3.210 -2.5025 -2.8915 -1.5705
   61MOL   C56340283   0.885   6.977   2.650  0.3578 -0.3237  0.3575
   61MOL   C56440284   0.841   6.844   2.707 -0.1890 -0.5307  0.1746
   61MOL   C56540285   0.848   6.735   2.604  0.1337 -0.1806 -0.2723
   61MOL   C56640286   0.833   6.589   2.646  0.1759 -0.3215  0.1736
   61MOL   C56740287   0.956   6.532   2.716 -0.5919  0.3512 -0.1457
   61MOL   C56840288   0.929   6.397   2.787  0.2444  0.2574  0.1487
   61MOL   C56940289   1.056   6.341   2.834  0.6019 -0.3388  0.4325
   61MOL   C57040290   1.052   6.195   2.866 -0.1291  0.1823  0.0199
   61MOL   C57140291   1.191   6.144   2.913  0.3981  0.1411 -0.6294
   61MOL   C57240292   1.177   6.007   2.992 -0.0298  0.0766 -0.3403
   61MOL   C57340293   1.309   5.933   2.995  0.2947 -0.2328  1.1631
   61MOL   H57440294   0.949   6.953   2.564 -0.7714  1.7825 -1.1109
   61MOL   H57540295   0.796   7.025   2.610  1.9744  2.7853  0.3203
   61MOL   H57640296   0.915   6.821   2.783  0.9341 -0.0404 -0.7515
   61MOL   H57740297   0.939   6.746   2.545 -1.4447 -1.0113 -2.9777
   61MOL   H57840298   0.769   6.749   2.530  0.2024  1.3334 -0.0734
   61MOL   H57940299   0.822   6.533   2.554  3.5269  0.1591 -0.6112
   61MOL   H58040300   0.745   6.567   2.706  0.0578 -0.8142 -0.1829
   61MOL   H58140301   0.985   6.588   2.805  0.6431  1.0070 -0.9486
   61MOL   H58240302   1.037   6.525   2.644 -0.1341 -1.5318  0.5196
   61MOL   H58340303   0.851   6.399   2.863 -1.3682 -0.5144 -1.4613
   61MOL   H58440304   0.879   6.329   2.717  0.6477 -0.3551  0.4470
   61MOL   H58540305   1.135   6.343   2.759  0.1584 -0.1673 -0.0209
   61MOL   H58640306   1.091   6.390   2.925  0.1971  0.1453  0.3248
   61MOL   H58740307   1.012   6.135   2.784  1.0512  0.7143 -0.9571
   61MOL   H58840308   0.985   6.180   2.951 -0.8839  0.8637 -0.4393
   61MOL   H58940309   1.236   6.223   2.974  1.3142  1.0622 -2.4602
   61MOL   H59040310   1.255   6.136   2.825  1.4621 -0.2561  0.1762
   61MOL   H59140311   1.113   5.940   2.933 -0.2066 -0.4118  0.3910
   61MOL   H59240312   1.149   6.022   3.097  1.5979 -1.2467  0.2984
   61MOL   H59340313   1.302   5.825   3.013 -3.1765 -0.7183 -2.4617
   61MOL   H59440314   1.362   5.940   2.900  0.8480  1.7288  1.6040
   61MOL   H59540315   1.380   5.963   3.073  1.9560 -1.4957  0.1896
   61MOL   C59640316   0.700   6.844   2.781  0.1260  0.1273  0.2818
   61MOL   C59740317   0.697   6.913   2.922  0.2108  0.1726  0.1812
   61MOL   C59840318   0.798   6.868   3.030 -0.4793 -0.4257  0.8841
   61MOL   C59940319   0.805   6.715   3.052  0.0261 -0.0843 -0.4478
   61MOL   C60040320   0.921   6.661   3.143 -0.8457  0.0654  0.2208
   61MOL   C60140321   0.901   6.511   3.168 -0.2463  0.9652  0.1463
   61MOL   C60240322   1.028   6.453   3.232 -1.4006  0.7359  0.3776
   61MOL   C60340323   1.020   6.301   3.240  0.0077 -0.5730  0.4579
   61MOL   C60440324   1.113   6.247   3.347 -0.6065 -0.8184  0.1101
   61MOL   C60540325   1.105   6.098   3.375 -0.0966 -0.1242 -0.2670
   61MOL   C60640326   1.238   6.058   3.450 -0.0156  0.6158  0.4514
   61MOL   H60740327   0.619   6.880   2.717  1.2412  3.5930  0.7500
   61MOL   H60840328   0.664   6.741   2.788 -1.8405  0.5787 -2.3568
   61MOL   H60940329   0.722   7.019   2.910  0.6839  0.1786  1.1360
   61MOL   H61040330   0.776   6.925   3.121  0.6404  0.3044  0.7113
   61MOL   H61140331   0.896   6.902   2.996  0.1972 -1.4544  1.7981
   61MOL   H61240332   0.807   6.671   2.953 -0.2720 -0.6518 -0.2086
   61MOL   H61340333   0.710   6.680   3.095  0.8925 -0.1822  1.4605
   61MOL   H61440334   0.923   6.707   3.242 -0.3548 -0.0765  0.2745
   61MOL   H61540335   1.019   6.691   3.107 -1.2464  1.5111  0.3029
   61MOL   H61640336   0.810   6.498   3.226 -1.3029  0.5699 -1.5976
   61MOL   H61740337   0.880   6.457   3.076 -1.9970  0.8659  0.5998
   61MOL   H61840338   1.040   6.494   3.332  0.6121  1.0102  0.0562
   61MOL   H61940339   1.117   6.482   3.177 -1.4532  1.2547  0.5659
   61MOL   H62040340   1.044   6.251   3.146 -0.0639  0.3482 -0.0639
   61MOL   H62140341   0.917   6.278   3.267 -0.7293  1.5056 -0.4501
   61MOL   H62240342   1.213   6.281   3.321 -1.0041 -0.0799 -0.4692
   61MOL   H62340343   1.098   6.301   3.441 -0.7136  0.7221 -0.7864
   61MOL   H62440344   1.094   6.042   3.283 -0.2715  0.0835 -0.3737
   61MOL   H62540345   1.019   6.079   3.439 -0.4803 -1.0923 -1.0715
   61MOL   H62640346   1.246   5.951   3.471 -0.3846  0.4188 -0.3843
   61MOL   H62740347   1.326   6.082   3.390 -0.4927  2.3171  0.3915
   61MOL   H62840348   1.243   6.114   3.543 -0.4545 -0.0025  0.8482
   61MOL   C62940349   0.545   6.907   2.966 -0.8150  0.3758 -0.4937
   61MOL   C63040350   0.506   7.018   3.055  0.8500  0.6913  0.3537
   61MOL   C63140351   0.372   6.981   3.119  0.8301 -0.3252  0.4283
   61MOL   C63240352   0.298   7.079   3.214 -0.2428 -0.7411 -0.1562
   61MOL   C63340353   0.152   7.040   3.239 -0.3695  0.4904  0.3219
   61MOL   C63440354   0.074   7.124   3.343  0.8031 -0.0471  0.2921
   61MOL   C63540355   7.622   7.100   3.325 -0.3374  0.1750  0.5200
   61MOL   C63640356   7.541   7.192   3.419 -0.3282 -0.0984  0.9174
   61MOL   C63740357   7.384   7.180   3.383 -0.1440 -0.1882  0.4358
   61MOL   C63840358   7.304   7.268   3.478 -0.1803 -0.7865  0.0756
   61MOL   C63940359   7.154   7.235   3.456  0.2857  0.2906 -0.1876
   61MOL   H64040360   0.485   6.909   2.875  1.7390 -0.5976 -2.2608
   61MOL   H64140361   0.527   6.813   3.019 -0.1724  0.5578  0.0632
   61MOL   H64240362   0.583   7.038   3.129  0.9004  1.8275  0.0061
   61MOL   H64340363   0.297   6.959   3.043  0.6937  0.4179  0.3401
   61MOL   H64440364   0.386   6.883   3.163  2.3021 -2.7827 -5.0598
   61MOL   H64540365   0.298   7.182   3.176  1.1265  0.1978  2.2573
   61MOL   H64640366   0.364   7.089   3.300 -2.2978  0.7148  1.2829
   61MOL   H64740367   0.128   6.942   3.280 -0.1887  0.4273  0.2769
   61MOL   H64840368   0.092   7.047   3.148 -2.0082 -0.4031  1.2988
   61MOL   H64940369   0.090   7.227   3.313  2.7428  0.1777  1.9551
   61MOL   H65040370   0.105   7.113   3.447  1.3655 -0.3813  0.0921
   61MOL   H65140371   7.592   6.995   3.329  0.4900 -0.1173 -0.6806
   61MOL   H65240372   7.596   7.133   3.224  0.4742  1.3821  0.6940
   61MOL   H65340373   7.552   7.300   3.410  1.0546 -0.3263 -0.3410
   61MOL   H65440374   7.560   7.177   3.526  0.2631  1.3161  1.0240
   61MOL   H65540375   7.353   7.077   3.401 -0.4829 -0.2605 -0.5403
   61MOL   H65640376   7.357   7.223   3.287 -0.7107 -0.0103  0.6716
   61MOL   H65740377   7.319   7.374   3.458 -0.3208 -1.1770 -2.1555
   61MOL   H65840378   7.338   7.245   3.579 -0.0411  1.5904  0.6005
   61MOL   H65940379   7.139   7.210   3.351  1.3544  0.1260 -0.3069
   61MOL   H66040380   7.088   7.317   3.483  1.2302  0.0740  2.9714
   61MOL   H66140381   7.118   7.150   3.515  2.1181 -1.8506 -2.0420
   61MOL   H66240382   0.514   7.113   3.002 -1.3990  0.8631  0.2865
   62MOL     C140383   3.309   1.540   5.708 -0.1791 -0.1486  0.2457
   62MOL     C240384   3.336   1.407   5.647 -0.0875  0.0804 -0.3215
   62MOL     C340385   3.207   1.322   5.675  0.4421 -0.3764 -0.3913
   62MOL     C440386   3.196   1.278   5.825 -0.4682 -0.1622  0.5430
   62MOL     C540387   3.090   1.168   5.854  0.0427  0.1694  0.4946
   62MOL     C640388   3.154   1.031   5.807  0.3627  0.1175  0.1703
   62MOL     C740389   3.085   0.904   5.869 -0.4431 -0.0684  0.1510
   62MOL     C840390   3.166   0.768   5.860 -0.0332 -0.2537  0.7729
   62MOL     C940391   3.240   0.731   5.991 -0.1930  0.2805  0.2332
   62MOL    C1040392   3.315   0.598   5.970 -0.0710 -0.2749 -1.0327
   62MOL    C1140393   3.381   0.547   6.097 -0.0545  0.6109  0.5486
   62MOL    H1240394   3.214   1.581   5.674  0.4434  2.1006  1.1439
   62MOL    H1340395   3.391   1.611   5.697  0.2693 -0.8742 -1.2449
   62MOL    H1440396   3.425   1.361   5.690  0.2695  1.1550  0.0825
   62MOL    H1540397   3.213   1.230   5.618  0.7659 -0.8306  0.3614
   62MOL    H1640398   3.112   1.371   5.653  0.3804  0.3524  1.3720
   62MOL    H1740399   3.165   1.358   5.891 -0.7589 -0.9948  1.4340
   62MOL    H1840400   3.292   1.236   5.858 -0.1814  1.3283  1.6378
   62MOL    H1940401   3.067   1.164   5.961 -1.2670 -2.9986  0.1563
   62MOL    H2040402   2.990   1.182   5.813 -0.9908 -3.0075  1.7104
   62MOL    H2140403   3.256   1.022   5.845  0.5774 -1.1603 -0.6657
   62MOL    H2240404   3.155   1.018   5.699  3.0859  0.6414  0.0865
   62MOL    H2340405   3.065   0.914   5.975 -2.5982 -2.4453  0.0071
   62MOL    H2440406   2.989   0.897   5.817 -0.1015 -1.6137 -0.3032
   62MOL    H2540407   3.252   0.771   5.794 -0.9222  2.1686 -0.3400
   62MOL    H2640408   3.097   0.694   5.820 -1.6028  2.2127 -1.2210
   62MOL    H2740409   3.163   0.737   6.067 -1.1031 -1.6433 -0.5044
   62MOL    H2840410   3.316   0.809   6.001  1.3025 -1.0766 -0.3154
   62MOL    H2940411   3.396   0.622   5.900 -0.6122  1.6044 -1.0278
   62MOL    H3040412   3.253   0.521   5.925 -1.4131  0.7786 -0.9890
   62MOL    H3140413   3.457   0.472   6.080  1.3175  2.0381  0.2778
   62MOL    H3240414   3.420   0.628   6.158 -0.3446  0.3433  1.0990
   62MOL    H3340415   3.305   0.500   6.159 -0.2392  2.0722  1.4562
   62MOL    H3440416   3.306   1.523   5.816 -0.1817 -1.1343  0.0919
   62MOL    C3540417   3.358   1.426   5.489 -0.1679  0.1683 -0.1755
   62MOL    C3640418   3.498   1.416   5.421  0.2864  0.1764 -0.7378
   62MOL    C3740419   3.499   1.400   5.274  0.1360 -0.6667 -0.5888
   62MOL    C3840420   3.467   1.268   5.212 -0.1614 -0.2183  0.0970
   62MOL    C3940421   3.474   1.264   5.057 -0.6556 -0.2521 -0.4265
   62MOL    C4040422   3.435   1.131   5.000  0.2119 -0.2356  0.5674
   62MOL    C4140423   3.447   1.129   4.842  0.0728 -0.1464 -1.0033
   62MOL    C4240424   3.591   1.131   4.783  0.1466  0.0009  0.8521
   62MOL    C4340425   3.599   1.090   4.634 -0.0839  0.0124 -0.1060
   62MOL    C4440426   3.737   1.081   4.579  0.2906  0.1783  1.1353
   62MOL    C4540427   3.727   1.013   4.440 -0.6827 -0.2591  0.1161
   62MOL    H4640428   3.317   1.524   5.469  0.9778  0.8423  0.6805
   62MOL    H4740429   3.299   1.343   5.450 -0.0327  0.4710 -1.0254
   62MOL    H4840430   3.532   1.318   5.453  2.0235  1.3723  1.2168
   62MOL    H4940431   3.417   1.459   5.233 -1.2091 -1.7517  0.4815
   62MOL    H5040432   3.584   1.446   5.224 -0.3617 -0.4875 -1.2774
   62MOL    H5140433   3.365   1.241   5.240 -0.1683  2.4489  2.8381
   62MOL    H5240434   3.537   1.193   5.247  1.5498  1.6430  0.6962
   62MOL    H5340435   3.575   1.279   5.019  0.1982 -0.7142  1.6058
   62MOL    H5440436   3.409   1.343   5.020  1.0139  2.2453  1.7964
   62MOL    H5540437   3.327   1.127   5.013  0.1811  0.1854  0.4250
   62MOL    H5640438   3.464   1.044   5.059 -1.2183 -0.2486  1.2729
   62MOL    H5740439   3.389   1.042   4.810  2.0886 -1.6797 -0.6051
   62MOL    H5840440   3.384   1.210   4.803 -0.9890 -0.2004  0.5659
   62MOL    H5940441   3.649   1.062   4.844 -0.9241 -0.7219  1.0721
   62MOL    H6040442   3.640   1.228   4.790 -0.5388  0.5657 -1.7000
   62MOL    H6140443   3.544   1.166   4.580 -1.1976 -0.4135  0.4213
   62MOL    H6240444   3.536   1.004   4.617 -2.0888  1.8859 -2.4795
   62MOL    H6340445   3.784   1.179   4.573 -2.6811  1.5573 -0.4678
   62MOL    H6440446   3.793   1.014   4.645  0.6732 -0.8111 -0.1721
   62MOL    H6540447   3.677   1.080   4.370  1.8931  0.7460 -0.8091
   62MOL    H6640448   3.822   0.973   4.406  0.4834  1.4280  1.2695
   62MOL    H6740449   3.666   0.923   4.444 -0.1018 -0.5917  2.1708
   62MOL    C6840450   3.597   1.526   5.459  0.2764 -0.1898 -0.1924
   62MOL    C6940451   3.740   1.486   5.453 -0.0290 -0.0629 -0.1280
   62MOL    C7040452   3.826   1.613   5.446  0.6299 -0.5022 -0.4468
   62MOL    C7140453   3.801   1.719   5.563  0.0841  0.3564  0.0180
   62MOL    C7240454   3.895   1.838   5.558 -0.2983 -0.1894 -0.0324
   62MOL    C7340455   3.877   1.936   5.678  0.0314 -0.5144 -0.0513
   62MOL    C7440456   3.989   2.035   5.702  0.0381 -0.7799 -0.0525
   62MOL    C7540457   3.988   2.146   5.592 -0.0624  0.6264  0.2395
   62MOL    C7640458   4.110   2.236   5.605 -0.3400 -0.3804 -0.0369
   62MOL    C7740459   4.103   2.355   5.509  0.0528  0.1888  0.3909
   62MOL    C7840460   4.247   2.419   5.502  0.6874 -0.3396  0.1283
   62MOL    H7940461   3.569   1.573   5.553  1.9123  4.3350 -1.8329
   62MOL    H8040462   3.589   1.600   5.379  0.9367  0.6190  0.4828
   62MOL    H8140463   3.764   1.435   5.359 -1.1365  0.8328 -0.8952
   62MOL    H8240464   3.814   1.661   5.349 -0.1578 -0.5046 -0.3477
   62MOL    H8340465   3.930   1.580   5.452  0.5667 -0.8744 -1.3491
   62MOL    H8440466   3.698   1.753   5.572 -0.9745 -2.9567  1.2754
   62MOL    H8540467   3.817   1.658   5.653 -0.5017  2.1211  1.3453
   62MOL    H8640468   3.857   1.889   5.469 -0.0261 -0.3745 -0.2551
   62MOL    H8740469   4.000   1.815   5.544 -0.4678  0.6440 -3.0300
   62MOL    H8840470   3.782   1.988   5.685  1.1893  1.5373  0.6917
   62MOL    H8940471   3.884   1.875   5.768  0.3337  0.7864  0.8107
   62MOL    H9040472   4.083   1.979   5.697  1.1935  1.2916 -2.5050
   62MOL    H9140473   3.984   2.084   5.799 -0.2590  0.4501 -0.6768
   62MOL    H9240474   3.986   2.094   5.496  0.0284 -1.2844  1.2428
   62MOL    H9340475   3.894   2.200   5.593 -0.6324 -0.3373  1.9036
   62MOL    H9440476   4.107   2.276   5.707 -2.5154  1.0051 -0.6110
   62MOL    H9540477   4.202   2.179   5.592 -0.1801 -0.7331  2.4137
   62MOL    H9640478   4.067   2.317   5.413 -0.6223 -1.8895  1.4240
   62MOL    H9740479   4.025   2.423   5.544 -0.6844 -1.2823  1.6928
   62MOL    H9840480   4.252   2.510   5.442 -1.4053  0.2253  0.7601
   62MOL    H9940481   4.320   2.350   5.460  2.9365  1.9410  0.1702
   62MOL   H10040482   4.282   2.440   5.604 -0.6255  3.7738 -0.1888
   62MOL   C10140483   3.773   1.389   5.575 -0.6569 -0.0861 -0.6287
   62MOL   C10240484   3.908   1.325   5.577  0.4486 -0.2959  0.5470
   62MOL   C10340485   3.908   1.180   5.541  0.0039  0.0949  0.2960
   62MOL   C10440486   3.843   1.155   5.407 -0.0630 -0.1434 -0.5213
   62MOL   C10540487   3.850   1.010   5.365  0.0176  0.5795  0.0815
   62MOL   C10640488   3.778   0.979   5.235 -0.3113 -0.6239 -0.3392
   62MOL   C10740489   3.791   0.835   5.198 -0.1887  0.1955  0.4363
   62MOL   C10840490   3.754   0.804   5.054  0.4547 -0.1700 -0.6303
   62MOL   C10940491   3.762   0.655   5.024 -0.1021 -0.0063  0.2408
   62MOL   C11040492   3.689   0.601   4.900 -0.8303  0.0082 -0.1830
   62MOL   C11140493   3.695   0.450   4.892  0.6380  0.8723 -0.4028
   62MOL   H11240494   3.761   1.433   5.675  0.7537 -2.1228  0.4556
   62MOL   H11340495   3.700   1.308   5.577  0.6362 -1.2422  1.6094
   62MOL   H11440496   3.967   1.365   5.494 -0.7191 -0.0504 -0.1808
   62MOL   H11540497   4.010   1.140   5.547 -0.1551 -0.6859 -1.8318
   62MOL   H11640498   3.859   1.136   5.628  1.3430 -0.2898  0.8768
   62MOL   H11740499   3.739   1.189   5.413  0.1989  0.4722  0.5462
   62MOL   H11840500   3.898   1.207   5.329 -0.5645 -0.5192 -1.1351
   62MOL   H11940501   3.956   0.986   5.360  0.1821  1.3995 -0.5080
   62MOL   H12040502   3.810   0.957   5.451  1.1860 -1.6520 -0.7033
   62MOL   H12140503   3.676   1.014   5.222  0.2207  0.7163 -1.0420
   62MOL   H12240504   3.829   1.049   5.168 -0.4469  0.6275  0.8291
   62MOL   H12340505   3.725   0.770   5.255 -0.5850 -1.0060 -1.3694
   62MOL   H12440506   3.893   0.806   5.222 -0.1244  1.3150  1.5640
   62MOL   H12540507   3.653   0.840   5.037  0.0364 -0.6871  0.7358
   62MOL   H12640508   3.821   0.860   4.988 -1.3991 -0.2287 -2.6083
   62MOL   H12740509   3.864   0.619   5.034 -0.5060 -1.9790 -2.1574
   62MOL   H12840510   3.714   0.607   5.109 -0.2494  1.2235  0.8719
   62MOL   H12940511   3.721   0.644   4.805 -3.1288  1.6662 -0.2565
   62MOL   H13040512   3.582   0.624   4.904 -0.4434  2.5468 -2.7406
   62MOL   H13140513   3.671   0.420   4.790 -0.5561 -1.6202  0.5668
   62MOL   H13240514   3.798   0.421   4.913  0.8414  2.8869  1.5113
   62MOL   H13340515   3.643   0.392   4.968  2.0386  0.8759  0.5798
   62MOL   C13440516   3.991   1.356   5.700  0.1421 -0.0398  0.7450
   62MOL   C13540517   4.149   1.367   5.667  0.1877 -0.4413 -0.4283
   62MOL   C13640518   4.212   1.386   5.808  0.0956  0.8235  0.0914
   62MOL   C13740519   4.176   1.510   5.889 -0.2579  0.2609 -0.3647
   62MOL   C13840520   4.271   1.554   5.994  0.9029  0.2312  0.0031
   62MOL   C13940521   4.219   1.676   6.074 -0.4808  0.0296  0.2312
   62MOL   C14040522   4.202   1.805   6.001 -0.4083  0.0185  0.3366
   62MOL   C14140523   4.164   1.935   6.077 -0.1838 -0.0782 -0.1640
   62MOL   C14240524   4.014   1.926   6.120  0.2374 -0.0317  1.1187
   62MOL   C14340525   3.967   2.049   6.191  0.1696 -0.1807 -0.3287
   62MOL   C14440526   3.984   2.044   6.344 -1.1977 -0.0299 -0.4819
   62MOL   H14540527   3.970   1.455   5.743  1.9624  1.5303 -1.8246
   62MOL   H14640528   3.972   1.285   5.781  1.1089  1.0484  1.9502
   62MOL   H14740529   4.186   1.267   5.644  0.8394 -0.4344  0.5300
   62MOL   H14840530   4.319   1.386   5.786 -0.3897  0.9012 -2.4441
   62MOL   H14940531   4.183   1.299   5.867 -0.7956  0.7332 -0.4641
   62MOL   H15040532   4.154   1.598   5.829  0.4927  1.1915  0.7135
   62MOL   H15140533   4.082   1.495   5.942 -0.1614  2.6862  0.5440
   62MOL   H15240534   4.283   1.469   6.060  1.6381 -0.1311 -0.5943
   62MOL   H15340535   4.369   1.577   5.952  0.9636  0.0179  0.0307
   62MOL   H15440536   4.125   1.651   6.123  0.2767  1.0342  2.2668
   62MOL   H15540537   4.275   1.692   6.166  2.2132 -0.5738 -1.2640
   62MOL   H15640538   4.298   1.825   5.953 -1.0559 -0.5049 -1.2235
   62MOL   H15740539   4.125   1.783   5.927 -3.3132 -0.3344  3.3435
   62MOL   H15840540   4.238   1.956   6.154 -1.4567 -0.3628  1.1551
   62MOL   H15940541   4.194   2.014   6.007 -1.0726  1.0858  0.7494
   62MOL   H16040542   3.950   1.895   6.037  1.3616  0.4462  0.0512
   62MOL   H16140543   4.003   1.846   6.192 -1.6319 -0.1406  0.7389
   62MOL   H16240544   4.023   2.136   6.153  0.8562 -0.2578  0.4931
   62MOL   H16340545   3.861   2.058   6.169  0.1390 -4.7440 -2.5505
   62MOL   H16440546   3.923   1.969   6.396 -1.6449  0.5256 -0.2089
   62MOL   H16540547   3.954   2.142   6.381 -1.3534 -1.1031  2.4503
   62MOL   H16640548   4.087   2.023   6.374 -0.9098  1.1738 -0.6132
   62MOL   C16740549   4.210   1.466   5.563 -0.0752 -0.0829  0.1163
   62MOL   C16840550   4.318   1.405   5.465 -0.1181  0.0075  0.7023
   62MOL   C16940551   4.445   1.339   5.521 -0.0792  0.6040  0.0076
   62MOL   C17040552   4.543   1.435   5.586  0.2106  0.6277 -0.2782
   62MOL   C17140553   4.644   1.362   5.678  0.2397  0.0986 -0.1199
   62MOL   C17240554   4.742   1.460   5.742  0.6390 -0.7160 -0.5720
   62MOL   C17340555   4.863   1.394   5.818 -0.0462 -0.3763  0.6992
   62MOL   C17440556   4.938   1.489   5.920 -0.5929  0.3984  0.4450
   62MOL   C17540557   5.054   1.437   6.008  0.3508 -0.3232 -0.0166
   62MOL   C17640558   5.112   1.539   6.108  0.0389 -0.3264 -0.0940
   62MOL   C17740559   5.263   1.520   6.098 -0.0461  0.3960 -0.0871
   62MOL   H17840560   4.127   1.513   5.510 -0.4186 -0.3005  0.4513
   62MOL   H17940561   4.257   1.553   5.609 -1.5635  1.4851 -1.2613
   62MOL   H18040562   4.260   1.323   5.423 -1.0019 -0.0412  1.9903
   62MOL   H18140563   4.493   1.280   5.444  0.9453  0.5651  0.6710
   62MOL   H18240564   4.415   1.264   5.594 -4.1901  0.0126 -2.1622
   62MOL   H18340565   4.593   1.487   5.505 -0.7263  0.5318 -0.9231
   62MOL   H18440566   4.486   1.504   5.648 -0.4487 -1.1117  1.0938
   62MOL   H18540567   4.698   1.285   5.624  1.0924 -0.2387  1.2007
   62MOL   H18640568   4.595   1.298   5.751  1.2615 -1.4513 -0.7808
   62MOL   H18740569   4.779   1.528   5.665 -2.4725  3.0797  1.1178
   62MOL   H18840570   4.682   1.522   5.810  2.1529 -0.8553  0.9167
   62MOL   H18940571   4.917   1.349   5.735 -0.4315  0.6584 -0.1250
   62MOL   H19040572   4.834   1.312   5.884 -1.9256  0.0936  0.4914
   62MOL   H19140573   4.962   1.574   5.857  1.4334  0.1560  0.8622
   62MOL   H19240574   4.872   1.538   5.992  0.9578  1.1194  1.4111
   62MOL   H19340575   5.133   1.408   5.938 -0.6204 -0.3356 -1.1205
   62MOL   H19440576   5.010   1.356   6.066 -1.9860  0.8142 -0.1446
   62MOL   H19540577   5.079   1.518   6.210  1.2030 -2.6796 -0.1613
   62MOL   H19640578   5.082   1.641   6.083 -0.3132  0.4171  3.1538
   62MOL   H19740579   5.305   1.564   6.008  0.6874  1.4063  0.7413
   62MOL   H19840580   5.299   1.417   6.110 -0.6345  0.2764  0.7278
   62MOL   H19940581   5.312   1.572   6.181 -0.7928 -0.5598  0.9802
   62MOL   C20040582   4.349   1.507   5.346  0.1785  0.5308 -0.9288
   62MOL   C20140583   4.404   1.457   5.203  0.8367  0.3169  0.3635
   62MOL   C20240584   4.474   1.571   5.127  0.0271 -1.0697 -1.1307
   62MOL   C20340585   4.393   1.701   5.088 -0.0359 -0.2679  0.0631
   62MOL   C20440586   4.471   1.823   5.050  0.1515  0.4453 -0.2972
   62MOL   C20540587   4.533   1.804   4.912 -0.1482 -0.4517  0.2674
   62MOL   C20640588   4.636   1.909   4.871  0.4469  0.2645 -0.3566
   62MOL   C20740589   4.717   1.857   4.752  0.0334  0.2148 -0.0975
   62MOL   C20840590   4.842   1.940   4.718  0.6034 -0.3864  0.3275
   62MOL   C20940591   4.901   1.886   4.584  1.2969 -0.3464 -0.3323
   62MOL   C21040592   5.048   1.929   4.564  0.3943  0.4396  0.1613
   62MOL   H21140593   4.258   1.565   5.331 -0.8149  0.1445  2.9265
   62MOL   H21240594   4.422   1.584   5.370  2.3673 -0.5685 -3.8000
   62MOL   H21340595   4.480   1.381   5.218  0.5431  0.1581  1.0543
   62MOL   H21440596   4.517   1.542   5.032 -0.3748  0.3111 -1.7452
   62MOL   H21540597   4.561   1.606   5.183 -1.2138 -0.9362  0.7882
   62MOL   H21640598   4.319   1.720   5.166  0.2380  2.2569 -0.2725
   62MOL   H21740599   4.322   1.683   5.007  0.1948  1.7249 -0.5906
   62MOL   H21840600   4.549   1.833   5.126  1.5954  0.9984 -1.8399
   62MOL   H21940601   4.424   1.921   5.046  1.5360  1.3962  4.0011
   62MOL   H22040602   4.582   1.707   4.913  1.4505  0.2040 -3.4205
   62MOL   H22140603   4.459   1.789   4.833 -0.0930  2.9082 -0.4979
   62MOL   H22240604   4.700   1.915   4.958  1.6225 -0.3856 -1.1652
   62MOL   H22340605   4.591   2.007   4.859  1.6272  0.9614  0.9227
   62MOL   H22440606   4.656   1.850   4.662  2.2687 -1.7318 -1.5464
   62MOL   H22540607   4.756   1.757   4.774 -0.5747 -0.0261 -0.0937
   62MOL   H22640608   4.911   1.925   4.800  0.6464 -1.6353  0.0751
   62MOL   H22740609   4.810   2.044   4.725 -0.0968 -0.5799  0.0804
   62MOL   H22840610   4.901   1.777   4.579 -3.1153 -0.4661  0.0237
   62MOL   H22940611   4.846   1.907   4.492 -0.9095 -2.0537  0.5622
   62MOL   H23040612   5.055   2.036   4.546  0.3375  0.2401 -1.0775
   62MOL   H23140613   5.094   1.888   4.474 -1.8301 -0.1853 -0.7382
   62MOL   H23240614   5.110   1.894   4.646  0.2391  3.9132  1.8511
   62MOL   C23340615   4.292   1.411   5.108  0.0344 -0.1934 -0.0809
   62MOL   C23440616   4.229   1.274   5.129  0.5277 -0.2274  0.3736
   62MOL   C23540617   4.321   1.149   5.096  0.5463  0.6986  0.5687
   62MOL   C23640618   4.269   1.010   5.121 -0.0887 -0.1291 -0.3066
   62MOL   C23740619   4.376   0.902   5.135 -0.5025 -0.4697 -0.1753
   62MOL   C23840620   4.407   0.839   4.997 -0.5149  0.6292  0.0548
   62MOL   C23940621   4.553   0.794   4.989 -0.1771  0.5313 -0.2797
   62MOL   C24040622   4.589   0.723   4.861  0.0350  0.6485 -0.3688
   62MOL   C24140623   4.713   0.631   4.875  0.2559 -0.2118 -0.4168
   62MOL   C24240624   4.752   0.571   4.734 -0.5708 -0.3682  0.6164
   62MOL   C24340625   4.869   0.474   4.733  0.1116  0.3604  0.1339
   62MOL   H24440626   4.314   1.420   5.002 -0.5161  0.0733 -0.1731
   62MOL   H24540627   4.224   1.495   5.124 -0.0066 -0.2410 -0.0038
   62MOL   H24640628   4.223   1.243   5.234 -0.9744 -1.2958 -0.0052
   62MOL   H24740629   4.358   1.158   4.993  0.3891 -0.2192  0.4247
   62MOL   H24840630   4.404   1.161   5.165  1.0407  0.3457  0.0455
   62MOL   H24940631   4.207   0.969   5.042 -1.6243  1.5909 -0.0291
   62MOL   H25040632   4.206   1.014   5.210 -1.7137 -0.0446 -1.4482
   62MOL   H25140633   4.348   0.820   5.202 -0.1078  0.0404  0.6226
   62MOL   H25240634   4.463   0.957   5.173  0.2788 -0.2753 -2.1640
   62MOL   H25340635   4.373   0.905   4.917  2.3401 -0.1818 -1.9501
   62MOL   H25440636   4.342   0.751   4.990 -1.4201  1.3347 -0.4859
   62MOL   H25540637   4.618   0.878   5.015  0.7054 -0.3987  0.5612
   62MOL   H25640638   4.572   0.736   5.080  0.4379 -0.1769 -0.8596
   62MOL   H25740639   4.515   0.656   4.818  0.7980  0.4173 -1.3228
   62MOL   H25840640   4.606   0.802   4.788  0.9623  0.1073 -0.7566
   62MOL   H25940641   4.786   0.701   4.915 -0.7251 -0.1914  1.3841
   62MOL   H26040642   4.694   0.548   4.943 -2.1276 -0.3433 -1.2095
   62MOL   H26140643   4.770   0.646   4.657 -0.0972 -0.1096  0.9770
   62MOL   H26240644   4.669   0.516   4.689 -1.4220  1.2042  0.2110
   62MOL   H26340645   4.831   0.387   4.788  2.1872 -0.1813  0.7562
   62MOL   H26440646   4.956   0.521   4.778  1.3576 -0.4698 -1.3798
   62MOL   H26540647   4.895   0.441   4.633 -1.1350  1.9237 -0.7274
   62MOL   C26640648   4.081   1.267   5.079  0.1001 -0.4420 -1.0780
   62MOL   C26740649   4.053   1.325   4.942 -0.4923 -0.3308  0.3118
   62MOL   C26840650   3.903   1.356   4.920  0.1045 -0.6026  0.2011
   62MOL   C26940651   3.866   1.498   4.976 -0.4109  0.2812 -0.2969
   62MOL   C27040652   3.739   1.558   4.913 -0.0620  0.1600  0.2460
   62MOL   C27140653   3.704   1.699   4.962  0.1614  0.6620  0.8564
   62MOL   C27240654   3.595   1.772   4.895 -0.0516  0.0780 -0.2694
   62MOL   C27340655   3.451   1.719   4.912 -0.0858 -0.5215 -0.6044
   62MOL   C27440656   3.388   1.744   5.047 -0.2328 -0.0411  0.0037
   62MOL   C27540657   3.244   1.692   5.077  0.0640  0.6128  0.6573
   62MOL   C27640658   3.200   1.703   5.224 -0.7127  0.0340 -0.0501
   62MOL   H27740659   4.020   1.328   5.146 -0.1275 -1.5436 -0.2622
   62MOL   H27840660   4.054   1.162   5.073  2.2109 -1.0845  0.1905
   62MOL   H27940661   4.107   1.419   4.933 -1.7836  0.4306  0.3556
   62MOL   H28040662   3.861   1.347   4.819  1.2440 -2.4405 -0.1359
   62MOL   H28140663   3.843   1.282   4.972 -1.9090  1.4314  0.8461
   62MOL   H28240664   3.937   1.572   4.939  1.1776 -0.5991  0.9109
   62MOL   H28340665   3.867   1.515   5.083  0.1112  1.7045 -0.5222
   62MOL   H28440666   3.667   1.483   4.944  0.0104  1.1915  3.0104
   62MOL   H28540667   3.734   1.557   4.804  0.3820  0.2484  0.2240
   62MOL   H28640668   3.802   1.747   4.952  0.4611  0.5364  2.9224
   62MOL   H28740669   3.691   1.691   5.070 -0.6670 -0.8108  0.6612
   62MOL   H28840670   3.592   1.875   4.930  0.5560 -0.1186  0.3833
   62MOL   H28940671   3.618   1.780   4.789 -0.6341  2.8431 -0.2274
   62MOL   H29040672   3.446   1.610   4.904  1.3042 -0.7699  1.6252
   62MOL   H29140673   3.391   1.769   4.836  1.1903  0.1808 -1.1502
   62MOL   H29240674   3.450   1.697   5.124  0.0560 -0.2499 -0.3576
   62MOL   H29340675   3.405   1.851   5.062 -1.1089 -0.0626  1.2186
   62MOL   H29440676   3.252   1.585   5.057 -1.3808  0.3548  1.3974
   62MOL   H29540677   3.176   1.738   5.005  0.9923  0.4606 -0.3241
   62MOL   H29640678   3.126   1.623   5.228  0.5258 -1.0955  0.9735
   62MOL   H29740679   3.155   1.800   5.240 -1.7550 -0.6346  1.2473
   62MOL   H29840680   3.284   1.676   5.289 -1.5068  1.7517  1.7191
   62MOL   C29940681   4.091   1.228   4.828  0.1200 -0.0533  0.2013
   62MOL   C30040682   4.111   1.295   4.689  0.7776 -0.1475 -0.3651
   62MOL   C30140683   4.093   1.194   4.576  0.8216 -0.6855 -0.3625
   62MOL   C30240684   4.048   1.256   4.444  0.0093 -0.0604  0.0819
   62MOL   C30340685   4.051   1.156   4.330 -0.5507  0.8479  0.6009
   62MOL   C30440686   3.978   1.201   4.210  0.2185 -0.3322  0.8513
   62MOL   C30540687   3.960   1.098   4.097  0.4028 -0.5816  0.1823
   62MOL   C30640688   3.899   1.143   3.964  0.0193 -0.7254  0.0926
   62MOL   C30740689   3.866   1.029   3.872  0.1378  0.2352 -0.0796
   62MOL   C30840690   3.804   1.069   3.735  0.1651 -0.5008 -0.1385
   62MOL   C30940691   3.723   0.964   3.661 -0.7000  0.5277  0.1226
   62MOL   H31040692   4.015   1.151   4.823  1.8020 -1.7731  0.3935
   62MOL   H31140693   4.184   1.177   4.854  0.5768  1.6765  2.0466
   62MOL   H31240694   4.032   1.370   4.679  1.2619  0.3840 -0.2567
   62MOL   H31340695   4.181   1.134   4.553  3.0900  2.1376  0.6970
   62MOL   H31440696   4.021   1.118   4.606  0.7052 -0.1062  0.8447
   62MOL   H31540697   3.953   1.311   4.452  0.6895  1.0635  0.5994
   62MOL   H31640698   4.116   1.334   4.409 -0.9717  0.9751  0.4097
   62MOL   H31740699   4.150   1.127   4.296  0.0877  0.2893  2.8641
   62MOL   H31840700   4.026   1.056   4.367  2.0048 -0.4262 -1.0080
   62MOL   H31940701   4.028   1.291   4.174 -1.4771  1.1814  2.1316
   62MOL   H32040702   3.882   1.242   4.242 -0.6461 -0.5284 -1.3801
   62MOL   H32140703   4.055   1.048   4.078 -0.0457 -1.9277  1.4335
   62MOL   H32240704   3.901   1.019   4.143 -0.3183 -0.2462 -0.1652
   62MOL   H32340705   3.965   1.212   3.911  1.4122 -2.6707 -0.7212
   62MOL   H32440706   3.805   1.192   3.992  0.7285  2.0157 -2.0170
   62MOL   H32540707   3.796   0.959   3.917  0.8548 -1.2755 -1.2791
   62MOL   H32640708   3.947   0.962   3.843 -1.6640 -1.8347 -0.4468
   62MOL   H32740709   3.870   1.122   3.667 -0.3726  0.3747  0.0141
   62MOL   H32840710   3.742   1.153   3.767  0.4833 -1.5890  3.6669
   62MOL   H32940711   3.782   0.878   3.631  0.7912  1.2935  0.7548
   62MOL   H33040712   3.641   0.923   3.720 -0.8571 -0.5099 -0.8220
   62MOL   H33140713   3.695   1.005   3.564  0.1350  0.1179 -0.2972
   62MOL   C33240714   4.251   1.370   4.688 -0.0302  0.6657  0.5119
   62MOL   C33340715   4.243   1.511   4.623  0.2341 -0.1181 -0.0879
   62MOL   C33440716   4.363   1.533   4.532  0.3553  0.2419 -0.6355
   62MOL   C33540717   4.497   1.551   4.606  0.3318 -0.2171  0.0426
   62MOL   C33640718   4.615   1.528   4.512  0.0378  0.0790 -0.6744
   62MOL   C33740719   4.624   1.645   4.417  0.0549  0.4112 -0.3583
   62MOL   C33840720   4.753   1.654   4.328  0.4951 -0.2167 -0.6951
   62MOL   C33940721   4.753   1.553   4.206  0.5982  0.2516  0.4198
   62MOL   C34040722   4.863   1.576   4.097  0.0242 -0.3690 -1.0838
   62MOL   C34140723   4.830   1.497   3.973  0.1449 -0.1292  0.2158
   62MOL   C34240724   4.933   1.484   3.861  0.0242  0.3771  0.2264
   62MOL   H34340725   4.274   1.387   4.794 -1.1958  2.5201  0.4994
   62MOL   H34440726   4.321   1.300   4.643  0.3887  0.4843  1.4299
   62MOL   H34540727   4.159   1.510   4.553  0.9035 -0.6136 -0.8963
   62MOL   H34640728   4.346   1.621   4.470 -2.8673  0.5045  0.5114
   62MOL   H34740729   4.367   1.448   4.464  3.4027  0.4213 -0.7108
   62MOL   H34840730   4.502   1.649   4.653 -0.9040 -0.4052  0.5841
   62MOL   H34940731   4.495   1.485   4.693  0.6112  0.1668  0.3396
   62MOL   H35040732   4.709   1.520   4.566  0.6114 -1.6712 -1.8996
   62MOL   H35140733   4.599   1.441   4.448 -0.7073 -0.2258 -0.0787
   62MOL   H35240734   4.622   1.722   4.494  1.7847 -1.4485  1.6161
   62MOL   H35340735   4.540   1.661   4.350  1.2528  1.9660 -1.5440
   62MOL   H35440736   4.843   1.656   4.389 -1.1041 -1.9481  1.8166
   62MOL   H35540737   4.763   1.754   4.286 -0.0772  0.2965  0.3779
   62MOL   H35640738   4.747   1.448   4.236 -1.5843 -0.3548 -2.0159
   62MOL   H35740739   4.655   1.566   4.161  0.2733 -1.0008  0.7269
   62MOL   H35840740   4.963   1.563   4.138 -0.7471  1.3449  1.4587
   62MOL   H35940741   4.861   1.684   4.083  0.1338  0.2452  3.0108
   62MOL   H36040742   4.741   1.551   3.938  0.6717 -0.8145 -2.2499
   62MOL   H36140743   4.805   1.396   4.005 -0.2396  0.2804  1.2204
   62MOL   H36240744   4.930   1.582   3.813  1.5587 -1.0693 -2.9790
   62MOL   H36340745   5.035   1.468   3.893 -0.7543  0.2740  2.7702
   62MOL   H36440746   4.907   1.410   3.785 -2.3202 -0.3735  1.6940
   62MOL   C36540747   4.214   1.629   4.716  0.3283  0.2172 -0.7074
   62MOL   C36640748   4.185   1.768   4.649 -0.2201  0.4045 -0.0659
   62MOL   C36740749   4.079   1.753   4.540 -0.0641 -0.0568 -0.1492
   62MOL   C36840750   3.942   1.698   4.597 -0.4060  0.1296 -0.2988
   62MOL   C36940751   3.836   1.673   4.482 -0.1031  0.1049  0.0614
   62MOL   C37040752   3.732   1.565   4.517  0.1047 -0.4591 -0.1781
   62MOL   C37140753   3.629   1.540   4.402 -0.9074  0.4944 -0.6969
   62MOL   C37240754   3.539   1.417   4.426  0.0781 -0.0612 -0.7438
   62MOL   C37340755   3.437   1.393   4.316 -0.2728  0.3779  0.4637
   62MOL   C37440756   3.366   1.259   4.329  0.2020 -0.4443  0.7503
   62MOL   C37540757   3.250   1.264   4.427 -0.5496  0.6005  0.3890
   62MOL   H37640758   4.134   1.605   4.786  0.2295 -0.9971 -1.2244
   62MOL   H37740759   4.297   1.632   4.787 -1.6501 -0.2768  1.6849
   62MOL   H37840760   4.275   1.794   4.592  0.4419 -1.4227  0.1057
   62MOL   H37940761   4.119   1.688   4.463  1.5578  1.9285 -1.0278
   62MOL   H38040762   4.065   1.851   4.493 -1.9624  0.6816  1.8850
   62MOL   H38140763   3.893   1.753   4.677 -0.1260  0.5435 -0.4096
   62MOL   H38240764   3.961   1.613   4.662 -1.6840  0.6009  0.6936
   62MOL   H38340765   3.882   1.625   4.396  1.1731  0.7059  0.4109
   62MOL   H38440766   3.781   1.763   4.453 -1.0177 -0.0566  1.2438
   62MOL   H38540767   3.680   1.601   4.606  1.2412  0.8235 -0.0284
   62MOL   H38640768   3.770   1.469   4.553  1.7857 -1.0741 -3.3894
   62MOL   H38740769   3.565   1.629   4.400  0.0899  1.1949 -1.7510
   62MOL   H38840770   3.686   1.535   4.310 -1.5294  1.2130 -1.1286
   62MOL   H38940771   3.485   1.431   4.520  1.1943  1.2828 -0.2817
   62MOL   H39040772   3.604   1.330   4.431  0.9612  0.6436  0.6426
   62MOL   H39140773   3.360   1.470   4.311  0.0623  0.6152 -1.2384
   62MOL   H39240774   3.479   1.409   4.217 -2.5296 -0.0166 -0.5885
   62MOL   H39340775   3.330   1.234   4.230  0.7821  1.1315  0.1218
   62MOL   H39440776   3.432   1.176   4.353 -1.1775 -1.6876  0.2508
   62MOL   H39540777   3.207   1.164   4.423  0.2334  0.3073 -1.2187
   62MOL   H39640778   3.187   1.344   4.387  1.5676  1.2704 -1.7147
   62MOL   H39740779   3.280   1.284   4.529  1.4794  1.3828 -0.3333
   62MOL   C39840780   4.146   1.872   4.755  0.0797 -0.5606 -0.4001
   62MOL   C39940781   4.121   2.023   4.710  0.4629 -0.0790 -0.2865
   62MOL   C40040782   4.226   2.093   4.623  0.9497 -0.0725  0.0268
   62MOL   C40140783   4.361   2.115   4.678 -0.1187 -0.1356  0.1646
   62MOL   C40240784   4.474   2.159   4.579  0.6233 -0.3020  0.2272
   62MOL   C40340785   4.523   2.052   4.478  0.5370 -0.7286 -0.3640
   62MOL   C40440786   4.638   2.112   4.393  0.0527 -0.0394  0.4477
   62MOL   C40540787   4.594   2.231   4.295 -0.5580  0.9523  0.6210
   62MOL   C40640788   4.490   2.186   4.186  0.1515  0.6725 -0.8281
   62MOL   C40740789   4.540   2.096   4.072 -0.2255  0.0718  0.0478
   62MOL   C40840790   4.644   2.166   3.979 -0.4616  0.4898 -1.1380
   62MOL   H40940791   4.226   1.870   4.828  0.7993 -1.6251 -1.1908
   62MOL   H41040792   4.055   1.842   4.807 -0.0492 -1.4268 -1.1073
   62MOL   H41140793   4.028   2.012   4.654  0.4718 -0.1672 -0.2826
   62MOL   H41240794   4.190   2.186   4.580 -0.8048 -0.7594 -0.0556
   62MOL   H41340795   4.251   2.029   4.539 -0.3968  0.8623 -1.1037
   62MOL   H41440796   4.360   2.190   4.756  1.8036 -2.0616  2.0859
   62MOL   H41540797   4.398   2.036   4.744  0.7409  1.5583  1.7333
   62MOL   H41640798   4.447   2.246   4.518  0.2313 -0.7784 -0.2807
   62MOL   H41740799   4.564   2.182   4.635 -0.5907  1.5759  1.4671
   62MOL   H41840800   4.438   2.025   4.415  0.6808 -2.1798  0.0522
   62MOL   H41940801   4.550   1.967   4.540  0.2330 -1.4374 -1.2014
   62MOL   H42040802   4.725   2.145   4.449 -0.8723  0.4592  1.6007
   62MOL   H42140803   4.690   2.031   4.341  0.8307  0.5953  0.2276
   62MOL   H42240804   4.682   2.272   4.246 -1.2246  1.3475 -0.2546
   62MOL   H42340805   4.551   2.317   4.345 -2.5908 -0.4882  1.4212
   62MOL   H42440806   4.416   2.121   4.234  0.3846  0.6308 -0.5269
   62MOL   H42540807   4.433   2.273   4.153 -1.4644 -0.0841 -0.0882
   62MOL   H42640808   4.462   2.072   4.000  1.6455 -0.3605 -1.8879
   62MOL   H42740809   4.568   2.001   4.117  1.0330  0.4583  0.1151
   62MOL   H42840810   4.608   2.267   3.957 -1.5002  0.0325 -1.5675
   62MOL   H42940811   4.660   2.105   3.890  1.4866 -1.7934  0.7110
   62MOL   H43040812   4.737   2.182   4.033 -1.2032 -0.7386  0.5265
   62MOL   C43140813   4.104   2.124   4.829 -0.4425 -0.8716  0.1688
   62MOL   C43240814   3.978   2.122   4.930  0.2308  0.5187  1.0501
   62MOL   C43340815   3.992   2.019   5.044  0.3511  0.0737 -0.2943
   62MOL   C43440816   4.098   2.050   5.151 -0.1580  0.0942 -0.3162
   62MOL   C43540817   4.126   1.947   5.262  0.7361  0.3535  0.2906
   62MOL   C43640818   4.244   1.995   5.346 -0.7576 -0.2578  0.3258
   62MOL   C43740819   4.303   1.900   5.454  1.1038 -0.1015  0.0245
   62MOL   C43840820   4.420   1.964   5.535 -0.4111  0.0102  0.1639
   62MOL   C43940821   4.477   1.861   5.629 -0.1323 -0.3089  0.2450
   62MOL   C44040822   4.570   1.926   5.732 -0.6725  0.2824 -0.5799
   62MOL   C44140823   4.659   1.822   5.812  0.1090  0.7888  0.2859
   62MOL   H44240824   4.109   2.226   4.792 -1.4980 -0.4186  1.2208
   62MOL   H44340825   4.191   2.132   4.896 -0.1801 -0.5377 -0.2103
   62MOL   H44440826   3.974   2.226   4.965 -0.1348  0.6521  0.6131
   62MOL   H44540827   3.898   2.015   5.098 -0.5827 -0.3015 -1.9214
   62MOL   H44640828   4.005   1.917   5.006  1.4688 -1.2130  3.3342
   62MOL   H44740829   4.052   2.138   5.197 -0.0862  0.3919 -0.8051
   62MOL   H44840830   4.193   2.082   5.108  0.3081 -1.7362 -0.7046
   62MOL   H44940831   4.127   1.846   5.221  1.6460  0.0960  0.9244
   62MOL   H45040832   4.032   1.937   5.316  1.6089  1.4864  2.0376
   62MOL   H45140833   4.219   2.093   5.387  1.9079  0.7841 -0.4912
   62MOL   H45240834   4.322   2.018   5.275 -1.8254  5.2529  0.7087
   62MOL   H45340835   4.350   1.812   5.410  1.4606 -0.0281  0.2552
   62MOL   H45440836   4.213   1.872   5.508  2.1595 -0.1920  1.7894
   62MOL   H45540837   4.490   1.992   5.457  0.0834  0.2961  0.7034
   62MOL   H45640838   4.396   2.049   5.599 -2.4567 -1.8098  1.8953
   62MOL   H45740839   4.546   1.794   5.578  1.0021  0.8300  0.2534
   62MOL   H45840840   4.401   1.801   5.680 -1.2994  1.2269  0.3732
   62MOL   H45940841   4.504   1.973   5.804 -1.5237 -0.8689 -0.5922
   62MOL   H46040842   4.643   1.989   5.681 -0.6646 -0.8721 -2.0286
   62MOL   H46140843   4.716   1.757   5.747 -0.6242  0.8566 -0.4248
   62MOL   H46240844   4.722   1.865   5.891 -1.7323  0.5101  1.9623
   62MOL   H46340845   4.594   1.750   5.862 -0.0066 -0.2299 -1.3234
   62MOL   C46440846   3.845   2.095   4.852  0.8972 -0.1088 -0.4939
   62MOL   C46540847   3.800   2.214   4.763  0.4137  0.0504 -0.2858
   62MOL   C46640848   3.677   2.172   4.682 -0.6071  0.1250  0.0234
   62MOL   C46740849   3.712   2.114   4.550  0.1773  0.1580 -0.1906
   62MOL   C46840850   3.586   2.079   4.461  0.1946 -0.3209 -0.3229
   62MOL   C46940851   3.518   1.950   4.511  0.3019  0.2134 -0.8291
   62MOL   C47040852   3.383   1.909   4.435  0.3749 -0.1908  0.3906
   62MOL   C47140853   3.300   1.812   4.508 -0.0594  0.1142 -0.6411
   62MOL   C47240854   3.153   1.797   4.450 -0.3056  0.0414 -0.2843
   62MOL   C47340855   3.067   1.726   4.555  0.6125  0.5386  0.4282
   62MOL   C47440856   3.115   1.588   4.607  0.6186  0.0281  0.4304
   62MOL   H47540857   3.767   2.073   4.925  0.0633 -0.2173 -1.4055
   62MOL   H47640858   3.856   1.999   4.802 -2.6619 -0.6004 -0.4888
   62MOL   H47740859   3.883   2.234   4.695 -0.2687 -1.6306 -1.6568
   62MOL   H47840860   3.600   2.247   4.673 -0.3407  0.6279  1.7965
   62MOL   H47940861   3.620   2.092   4.730 -1.1199 -0.0208 -0.8247
   62MOL   H48040862   3.758   2.195   4.493  1.1785 -0.2135  0.0820
   62MOL   H48140863   3.768   2.021   4.556 -1.0408 -0.5110  1.2743
   62MOL   H48240864   3.622   2.051   4.361  0.3626  0.3399 -0.4462
   62MOL   H48340865   3.524   2.167   4.444 -2.6504 -2.1063  0.5663
   62MOL   H48440866   3.588   1.867   4.505 -2.1239 -2.1141  1.3521
   62MOL   H48540867   3.491   1.960   4.616  0.5679  0.8838 -0.8244
   62MOL   H48640868   3.325   2.001   4.427 -1.7473 -1.4820  0.7720
   62MOL   H48740869   3.405   1.878   4.332 -0.8250 -2.2467  0.7448
   62MOL   H48840870   3.343   1.711   4.504  0.4059  0.3572 -1.9837
   62MOL   H48940871   3.297   1.829   4.616  0.0983 -1.6822 -0.3375
   62MOL   H49040872   3.122   1.901   4.437  0.2766  0.3883  0.9525
   62MOL   H49140873   3.165   1.746   4.355  1.4750 -0.6872  0.3217
   62MOL   H49240874   3.045   1.790   4.642 -1.3585  2.2449 -1.2554
   62MOL   H49340875   2.969   1.712   4.510  0.0295 -2.3156  2.4189
   62MOL   H49440876   3.038   1.548   4.673  1.7160  0.0271  1.7249
   62MOL   H49540877   3.212   1.598   4.656  0.9710 -0.9934 -0.0226
   62MOL   H49640878   3.134   1.531   4.516 -0.4096  0.1661  0.1202
   62MOL   C49740879   3.770   2.340   4.851  0.2054 -0.7816  0.1503
   62MOL   C49840880   3.858   2.467   4.811  0.4185 -0.4000  0.1853
   62MOL   C49940881   3.857   2.569   4.926 -0.2471  0.2850  1.0748
   62MOL   C50040882   3.962   2.524   5.040 -0.4484  0.5212  0.2936
   62MOL   C50140883   4.108   2.522   5.005  0.0533  0.3480 -0.0055
   62MOL   C50240884   4.199   2.472   5.113 -0.2225 -0.2105  0.6453
   62MOL   C50340885   4.324   2.405   5.063 -0.1698  0.7572 -0.0039
   62MOL   C50440886   4.406   2.334   5.178  0.0827  0.0808 -0.4221
   62MOL   C50540887   4.515   2.242   5.118 -0.1278 -0.8387  0.2161
   62MOL   C50640888   4.631   2.327   5.062  1.0900  0.0728  0.3203
   62MOL   C50740889   4.741   2.241   4.996 -0.8572 -0.2353 -0.1242
   62MOL   H50840890   3.664   2.360   4.866 -0.0489 -0.8637 -1.4220
   62MOL   H50940891   3.796   2.322   4.955  1.2218  2.5669  0.5309
   62MOL   H51040892   3.951   2.412   4.795 -0.5844 -2.9023  2.5174
   62MOL   H51140893   3.755   2.575   4.965 -0.6443  0.2474  0.0396
   62MOL   H51240894   3.886   2.667   4.890  0.5874 -0.9196 -1.6189
   62MOL   H51340895   3.929   2.430   5.082  1.1759 -0.0037  0.4090
   62MOL   H51440896   3.947   2.601   5.116 -2.4074 -0.7808  1.2406
   62MOL   H51540897   4.127   2.464   4.914 -0.6822 -0.6660  0.4726
   62MOL   H51640898   4.147   2.621   4.981  0.2348  0.1393 -0.6009
   62MOL   H51740899   4.225   2.555   5.178 -1.1456  0.8451 -0.2999
   62MOL   H51840900   4.145   2.402   5.177 -0.1036 -1.1985 -0.3253
   62MOL   H51940901   4.297   2.323   4.997 -1.8475  1.4496 -0.2214
   62MOL   H52040902   4.377   2.477   5.000  1.0988 -0.9881 -0.9586
   62MOL   H52140903   4.340   2.266   5.232  1.3134 -0.4061  0.5001
   62MOL   H52240904   4.439   2.406   5.252  0.6572 -0.4096 -0.2023
   62MOL   H52340905   4.475   2.177   5.040 -0.8104 -0.6325  0.3948
   62MOL   H52440906   4.546   2.178   5.201  3.0467  0.7965  0.3428
   62MOL   H52540907   4.664   2.398   5.138  2.7532 -1.3087  0.9060
   62MOL   H52640908   4.585   2.379   4.978  0.0034 -2.3858 -0.6665
   62MOL   H52740909   4.831   2.304   4.993 -1.5697  1.0087  2.7267
   62MOL   H52840910   4.702   2.204   4.901 -2.5019  1.1111  0.0061
   62MOL   H52940911   4.769   2.152   5.052  1.6948  0.4802 -0.1718
   62MOL   C53040912   3.823   2.533   4.679 -0.0261 -0.2674 -0.3711
   62MOL   C53140913   3.955   2.598   4.625 -0.4649 -0.0819 -0.1516
   62MOL   C53240914   3.921   2.719   4.539 -0.0283  0.0407  0.3330
   62MOL   C53340915   3.871   2.848   4.603  0.2400 -0.0252 -0.6386
   62MOL   C53440916   3.889   2.974   4.534  0.4545 -0.4312 -0.4851
   62MOL   C53540917   3.802   2.982   4.407  0.5353 -0.1123  1.2554
   62MOL   C53640918   3.813   3.126   4.353  0.0568  0.3137 -0.2908
   62MOL   C53740919   3.739   3.148   4.224 -0.3627 -0.0711  0.0400
   62MOL   C53840920   3.737   3.293   4.179 -0.1855 -0.0565  0.5033
   62MOL   C53940921   3.634   3.320   4.065 -0.6587  0.2733  0.2660
   62MOL   C54040922   3.647   3.446   3.988 -0.0143  0.6906  0.3472
   62MOL   H54140923   3.786   2.458   4.610 -2.5364  2.5844 -2.2444
   62MOL   H54240924   3.734   2.589   4.706 -0.7227 -1.8524  0.6947
   62MOL   H54340925   4.019   2.626   4.708  1.0875 -3.4584 -0.1268
   62MOL   H54440926   3.842   2.682   4.473 -1.8548  1.5873  1.5898
   62MOL   H54540927   4.000   2.741   4.467 -0.5855  0.1338 -0.2604
   62MOL   H54640928   3.920   2.866   4.699  0.2870  3.4922 -1.2573
   62MOL   H54740929   3.765   2.842   4.627 -0.0437  2.5210 -1.1973
   62MOL   H54840930   3.988   2.999   4.499  0.7991 -1.3037 -0.1468
   62MOL   H54940931   3.857   3.052   4.604  0.2418  1.1809 -2.3461
   62MOL   H55040932   3.699   2.954   4.428  0.9458 -0.8145  2.4297
   62MOL   H55140933   3.842   2.916   4.329  0.5172  0.4759  0.7457
   62MOL   H55240934   3.919   3.149   4.341  0.2881 -0.0114  1.0631
   62MOL   H55340935   3.780   3.193   4.432  0.4042 -1.2009  1.1703
   62MOL   H55440936   3.639   3.105   4.219 -0.1243 -0.3989 -4.8147
   62MOL   H55540937   3.790   3.092   4.145 -0.1551  0.4342 -0.1854
   62MOL   H55640938   3.840   3.319   4.156  0.2947 -1.5596  0.8743
   62MOL   H55740939   3.714   3.365   4.258 -1.3896  1.4159 -1.1553
   62MOL   H55840940   3.535   3.307   4.108  0.5909 -0.0407  3.1347
   62MOL   H55940941   3.661   3.242   3.993  1.6926  0.4614  0.9012
   62MOL   H56040942   3.558   3.452   3.925  0.0907 -0.2184  0.1000
   62MOL   H56140943   3.652   3.527   4.060 -1.8281 -1.0346  2.4730
   62MOL   H56240944   3.737   3.453   3.927  0.3580  0.9042  0.9187
   62MOL   C56340945   4.044   2.495   4.545  0.1003  0.2792 -0.6376
   62MOL   C56440946   4.189   2.550   4.517  0.0506  0.1986  0.0959
   62MOL   C56540947   4.246   2.484   4.389  0.8078 -0.3235 -0.7149
   62MOL   C56640948   4.178   2.548   4.269  0.2620  0.1175 -0.0102
   62MOL   C56740949   4.241   2.502   4.132  0.9216  0.2496 -0.2810
   62MOL   C56840950   4.161   2.546   4.009 -0.0681  0.1419 -1.0060
   62MOL   C56940951   4.245   2.559   3.880 -0.2128 -0.2736 -0.2105
   62MOL   C57040952   4.306   2.695   3.856 -0.2118  0.2491 -0.4629
   62MOL   C57140953   4.367   2.695   3.720  0.6003  0.6105 -0.0668
   62MOL   C57240954   4.412   2.834   3.681 -0.2083 -0.6446  0.1482
   62MOL   C57340955   4.475   2.825   3.535  0.0272  0.9835 -0.3709
   62MOL   H57440956   3.983   2.484   4.456 -0.9551  1.3833 -0.0695
   62MOL   H57540957   4.049   2.393   4.583 -0.8695  0.7472  0.8281
   62MOL   H57640958   4.188   2.657   4.498 -0.4265  0.2776  0.5602
   62MOL   H57740959   4.241   2.375   4.389 -2.8607 -0.2149  0.0854
   62MOL   H57840960   4.353   2.498   4.375  1.1119 -2.0302 -0.2358
   62MOL   H57940961   4.187   2.656   4.266 -1.5880  0.3070  0.4497
   62MOL   H58040962   4.070   2.530   4.272  0.0306  1.2564 -1.2556
   62MOL   H58140963   4.249   2.393   4.137 -2.0880  0.0586  2.3081
   62MOL   H58240964   4.339   2.549   4.125  0.3765  1.8900  2.2381
   62MOL   H58340965   4.080   2.472   4.003  0.6276 -0.8655  1.3859
   62MOL   H58440966   4.130   2.646   4.038  1.1616  0.7733 -1.8377
   62MOL   H58540967   4.324   2.485   3.883 -0.2777 -0.3229  0.4185
   62MOL   H58640968   4.175   2.539   3.799 -3.0322  0.2992  1.9704
   62MOL   H58740969   4.368   2.729   3.939 -0.2602 -2.0862  0.5456
   62MOL   H58840970   4.219   2.759   3.845 -0.5544 -0.3503 -1.2576
   62MOL   H58940971   4.305   2.655   3.640 -0.2553  1.5963  0.0964
   62MOL   H59040972   4.451   2.626   3.725 -0.8954 -1.1865  0.8247
   62MOL   H59140973   4.494   2.869   3.744  0.2220 -0.4035 -0.5449
   62MOL   H59240974   4.334   2.910   3.678  1.4331  1.0284 -2.2161
   62MOL   H59340975   4.419   2.776   3.455  1.2166 -3.0795  1.1357
   62MOL   H59440976   4.481   2.927   3.497 -0.7306  0.5534 -1.6941
   62MOL   H59540977   4.578   2.789   3.539  0.2456  1.7722  1.4483
   62MOL   C59640978   4.279   2.522   4.640  0.6270 -0.4498  0.1259
   62MOL   C59740979   4.417   2.604   4.641 -0.3456  0.2512  0.4762
   62MOL   C59840980   4.533   2.514   4.686 -0.6918  0.4888 -0.0263
   62MOL   C59940981   4.671   2.560   4.649  0.3888 -0.0078  0.4955
   62MOL   C60040982   4.776   2.462   4.688 -0.2659 -0.5931  0.3738
   62MOL   C60140983   4.915   2.486   4.616  0.5317 -0.3447  0.3161
   62MOL   C60240984   5.019   2.391   4.661 -0.6387  0.2430 -0.9214
   62MOL   C60340985   5.162   2.428   4.631  0.1422  0.2018  0.2405
   62MOL   C60440986   5.263   2.340   4.700 -0.3014  0.2343  0.2132
   62MOL   C60540987   5.252   2.189   4.654  0.3362  0.4899  0.1877
   62MOL   C60640988   5.362   2.107   4.711 -0.4056  0.7692  0.2725
   62MOL   H60740989   4.235   2.542   4.738  0.8879 -0.2853  0.2094
   62MOL   H60840990   4.300   2.416   4.628 -1.3380 -0.5596 -2.8021
   62MOL   H60940991   4.441   2.632   4.538  1.4055 -1.5925  0.3371
   62MOL   H61040992   4.521   2.421   4.630  1.6105  0.2355 -0.1498
   62MOL   H61140993   4.523   2.487   4.791 -0.0113 -0.8309 -0.2987
   62MOL   H61240994   4.693   2.655   4.696 -2.5970  0.6465  0.6809
   62MOL   H61340995   4.675   2.583   4.543  1.9791 -1.1794  0.2785
   62MOL   H61440996   4.745   2.362   4.659 -0.5788 -0.7124  1.0995
   62MOL   H61540997   4.797   2.449   4.795  0.2690 -2.2129  0.0803
   62MOL   H61640998   4.893   2.495   4.510 -2.2522  1.5734  1.0064
   62MOL   H61740999   4.945   2.586   4.644  0.0246  0.2894 -1.3701
   62MOL   H61841000   4.990   2.294   4.620  0.9547  0.1923 -1.9737
   62MOL   H61941001   5.013   2.383   4.769 -3.3172 -0.0547 -1.0585
   62MOL   H62041002   5.184   2.531   4.658  2.0668 -0.7647  2.5508
   62MOL   H62141003   5.168   2.416   4.523 -1.8264 -0.0657  0.1328
   62MOL   H62241004   5.357   2.370   4.654 -0.2577 -1.2452 -0.6916
   62MOL   H62341005   5.277   2.354   4.807  2.7514  0.3339 -0.1663
   62MOL   H62441006   5.251   2.174   4.546 -1.0888 -0.4207  0.3176
   62MOL   H62541007   5.164   2.140   4.694 -0.3370 -0.0642 -1.9273
   62MOL   H62641008   5.363   2.005   4.673  1.8415  0.4316  1.1865
   62MOL   H62741009   5.456   2.143   4.671 -0.9390  0.3367 -1.4224
   62MOL   H62841010   5.359   2.113   4.820 -0.1844  1.7571  0.2235
   62MOL   C62941011   4.408   2.730   4.740 -0.0688  0.3302  0.1263
   62MOL   C63041012   4.319   2.845   4.677 -0.8732 -0.6349 -0.9463
   62MOL   C63141013   4.283   2.962   4.776 -0.4483 -0.6130 -0.2337
   62MOL   C63241014   4.179   3.057   4.730  0.0057  0.3919 -0.0323
   62MOL   C63341015   4.168   3.172   4.833  0.6104  0.0597 -0.2871
   62MOL   C63441016   4.047   3.261   4.802  0.2548  0.7000 -0.3373
   62MOL   C63541017   4.055   3.324   4.664  0.0566 -0.1779 -0.4546
   62MOL   C63641018   3.965   3.442   4.667 -0.1415  0.8561  0.1086
   62MOL   C63741019   3.980   3.533   4.545  0.2014 -0.2730 -0.2259
   62MOL   C63841020   3.934   3.484   4.405 -0.0153 -0.1395  0.2877
   62MOL   C63941021   3.933   3.599   4.303  0.0626 -0.3851  0.8008
   62MOL   H64041022   4.367   2.708   4.839  3.5427 -0.6464  1.4561
   62MOL   H64141023   4.506   2.776   4.750  0.6943 -1.2909  0.2055
   62MOL   H64241024   4.358   2.882   4.582 -2.3962 -1.1150 -1.7759
   62MOL   H64341025   4.252   2.920   4.872 -0.4208  1.2580  0.6141
   62MOL   H64441026   4.368   3.021   4.810 -1.2959  0.3708  0.1882
   62MOL   H64541027   4.083   3.005   4.729 -0.1371  0.5335  2.4459
   62MOL   H64641028   4.210   3.091   4.631 -0.3205  0.9850  0.0694
   62MOL   H64741029   4.255   3.237   4.831 -0.0425  0.9144 -1.1357
   62MOL   H64841030   4.158   3.127   4.932 -0.1007  1.5904  0.3550
   62MOL   H64941031   4.044   3.333   4.884 -2.2031 -1.1307  1.2215
   62MOL   H65041032   3.956   3.204   4.815  1.5938 -1.3248  0.4249
   62MOL   H65141033   4.026   3.268   4.576  0.7403  0.1527 -0.8887
   62MOL   H65241034   4.150   3.371   4.640  0.4823 -0.3323  0.8893
   62MOL   H65341035   3.982   3.501   4.757  2.6558 -0.3181  0.3892
   62MOL   H65441036   3.858   3.418   4.665  0.0923 -0.1493 -0.6736
   62MOL   H65541037   4.086   3.559   4.538 -0.2134  1.7637  0.7589
   62MOL   H65641038   3.933   3.622   4.587  2.0373  1.8356 -2.4970
   62MOL   H65741039   3.833   3.445   4.414  0.0014  0.1687  1.9631
   62MOL   H65841040   3.990   3.398   4.367 -1.1177 -1.0729  0.7398
   62MOL   H65941041   3.857   3.667   4.343 -0.7478 -1.5298  1.2446
   62MOL   H66041042   3.906   3.567   4.203 -2.8644  0.8435  1.1347
   62MOL   H66141043   4.032   3.645   4.298 -0.7171  1.2936  0.3447
   62MOL   H66241044   4.228   2.803   4.635 -0.9815 -1.0733 -0.2917
   63MOL     C141045   6.745   7.660   4.799 -0.5986  0.1331 -0.1799
   63MOL     C241046   6.688   7.555   4.713 -0.1443 -0.2872 -0.4457
   63MOL     C341047   6.566   7.605   4.635  0.2525  0.7692  0.7937
   63MOL     C441048   6.468   7.506   4.573  0.3648  0.3961 -0.6056
   63MOL     C541049   6.335   7.563   4.520 -0.0008 -0.1247 -0.9773
   63MOL     C641050   6.222   7.461   4.493 -0.0647 -0.2195  0.0231
   63MOL     C741051   6.099   7.527   4.426 -0.6753 -0.3596 -0.2761
   63MOL     C841052   6.134   7.577   4.288 -0.0072  0.5393 -0.3428
   63MOL     C941053   6.025   7.623   4.190 -0.2352  0.5689 -0.1521
   63MOL    C1041054   5.972   0.065   4.208  0.2310  0.3447 -0.2182
   63MOL    C1141055   6.039   0.173   4.119 -0.8807 -0.3424  1.1035
   63MOL    H1241056   6.783   0.038   4.737 -2.2902  0.6162 -0.6137
   63MOL    H1341057   6.831   7.622   4.852 -0.6215  1.7147  1.0156
   63MOL    H1441058   6.651   7.474   4.776 -1.1035  0.8751  0.5412
   63MOL    H1541059   6.599   7.669   4.553  1.7993 -0.1446  0.6947
   63MOL    H1641060   6.494   7.658   4.698  0.2389 -1.0052  2.3110
   63MOL    H1741061   6.441   7.427   4.643 -0.6427  1.7817  0.5767
   63MOL    H1841062   6.509   7.443   4.493 -0.1611 -1.0528  0.2420
   63MOL    H1941063   6.301   7.633   4.595 -0.1217 -0.9841 -0.2212
   63MOL    H2041064   6.362   7.618   4.430  0.5176 -0.2236 -0.8810
   63MOL    H2141065   6.188   7.418   4.587 -0.5499 -0.8770 -0.4456
   63MOL    H2241066   6.262   7.371   4.446  1.6698 -0.1526  1.3343
   63MOL    H2341067   6.018   7.455   4.417 -0.0316 -0.9500 -1.5211
   63MOL    H2441068   6.074   7.619   4.479  0.6790 -0.1982  0.1052
   63MOL    H2541069   6.181   7.493   4.239 -1.1784 -1.4980  1.9200
   63MOL    H2641070   6.207   7.658   4.289  0.7108 -0.0853 -1.4744
   63MOL    H2741071   5.942   7.553   4.185 -1.0546  1.3083  2.2457
   63MOL    H2841072   6.071   7.622   4.091  0.5201 -0.7016  0.1954
   63MOL    H2941073   5.990   0.095   4.311  1.4065  2.4029 -1.0032
   63MOL    H3041074   5.863   0.067   4.198  0.2431  0.5309 -0.2951
   63MOL    H3141075   6.009   0.161   4.015  0.3738 -0.6787  0.7682
   63MOL    H3241076   6.011   0.277   4.136 -1.2869 -0.0556 -1.2473
   63MOL    H3341077   6.148   0.179   4.117 -0.9817  1.3557 -0.0460
   63MOL    H3441078   6.677   0.006   4.869 -1.3076 -0.9889 -0.0727
   63MOL    C3541079   6.791   7.490   4.616  0.6018  0.1665 -0.2465
   63MOL    C3641080   6.921   7.439   4.688 -0.6427 -0.2657  0.3596
   63MOL    C3741081   6.909   7.334   4.800 -0.4260 -0.3583  1.0539
   63MOL    C3841082   6.865   7.187   4.754  0.5458 -0.2157  0.2760
   63MOL    C3941083   6.902   7.082   4.867 -0.2670 -0.1481 -0.1144
   63MOL    C4041084   6.870   6.936   4.844  0.0218 -0.0283  0.1427
   63MOL    C4141085   6.921   6.854   4.967  0.2056  0.2368 -0.1507
   63MOL    C4241086   6.853   6.714   4.980 -0.3370 -0.2859  0.5147
   63MOL    C4341087   6.925   6.648   5.099  0.0492 -0.5750  0.3246
   63MOL    C4441088   6.900   6.497   5.099 -0.3554 -0.2898  0.1469
   63MOL    C4541089   7.014   6.426   5.179 -0.6350 -0.3434 -0.3719
   63MOL    H4641090   6.832   7.559   4.543  0.2253  0.7305  0.0710
   63MOL    H4741091   6.747   7.406   4.562 -1.9269  1.2764 -0.0014
   63MOL    H4841092   6.976   7.520   4.736 -1.2547 -0.7586  1.8949
   63MOL    H4941093   7.004   7.335   4.853 -0.7095  2.6589  1.6050
   63MOL    H5041094   6.842   7.368   4.878 -0.2640 -0.4268  1.2235
   63MOL    H5141095   6.916   7.152   4.664  1.9686  0.6428  0.7218
   63MOL    H5241096   6.759   7.179   4.734  0.7223 -1.2597 -0.2815
   63MOL    H5341097   6.879   7.116   4.968  1.4288 -1.4109  0.7378
   63MOL    H5441098   7.011   7.083   4.865 -0.2896  0.4705 -1.0708
   63MOL    H5541099   6.898   6.911   4.741  0.7105  0.6341  0.1636
   63MOL    H5641100   6.762   6.925   4.854 -0.1221  0.4594 -0.8165
   63MOL    H5741101   7.028   6.843   4.949  0.6228  1.1322  1.6408
   63MOL    H5841102   6.915   6.907   5.062  0.1131 -0.0596  0.0118
   63MOL    H5941103   6.875   6.662   4.886 -0.0859 -1.4115  1.1848
   63MOL    H6041104   6.745   6.724   4.981 -0.5280 -2.0188 -0.3895
   63MOL    H6141105   6.893   6.700   5.189 -0.9596 -1.7817  0.6629
   63MOL    H6241106   7.031   6.673   5.112 -0.2718 -0.4038  2.7724
   63MOL    H6341107   6.797   6.473   5.126 -0.0316 -2.2148 -0.2928
   63MOL    H6441108   6.909   6.458   4.998 -0.5622 -3.3314  1.2530
   63MOL    H6541109   7.013   6.442   5.286  1.8335  2.0375 -0.6675
   63MOL    H6641110   6.999   6.318   5.177 -0.6287 -0.3451 -0.2561
   63MOL    H6741111   7.117   6.446   5.150 -0.7300  2.4100  1.0417
   63MOL    C6841112   7.014   7.386   4.573 -0.6010 -0.3632  0.0911
   63MOL    C6941113   7.160   7.349   4.615  0.1174 -0.3816 -0.6307
   63MOL    C7041114   7.233   7.268   4.511  0.0887 -0.0779  0.2487
   63MOL    C7141115   7.177   7.124   4.500  0.5982 -0.3346 -0.8467
   63MOL    C7241116   7.266   7.044   4.387  0.5931 -1.1440 -1.0651
   63MOL    C7341117   7.223   6.897   4.387  0.6125  0.3783  0.5053
   63MOL    C7441118   7.316   6.813   4.288 -0.3643 -0.6804 -0.1051
   63MOL    C7541119   7.370   6.683   4.354 -0.3160 -0.3472  0.6539
   63MOL    C7641120   7.490   6.709   4.454  0.1555 -0.1498 -0.2382
   63MOL    C7741121   7.562   6.579   4.485 -0.3504 -0.2801  0.4986
   63MOL    C7841122   7.661   6.600   4.597 -0.2524  0.2179  0.6441
   63MOL    H7941123   7.014   7.458   4.491 -2.1098  0.2040  0.5815
   63MOL    H8041124   6.970   7.294   4.534  1.3641 -1.0302 -0.6206
   63MOL    H8141125   7.146   7.289   4.705 -1.5828 -0.2518 -0.7876
   63MOL    H8241126   7.339   7.284   4.530 -0.2505  0.9702  1.3203
   63MOL    H8341127   7.223   7.316   4.413 -0.1443 -1.0024 -0.1850
   63MOL    H8441128   7.160   7.079   4.598  0.6403  1.4204 -0.0221
   63MOL    H8541129   7.074   7.124   4.464  1.3143  2.8223 -3.0807
   63MOL    H8641130   7.369   7.054   4.421  0.3274  3.0117 -1.2428
   63MOL    H8741131   7.249   7.092   4.291 -0.0380 -0.5754 -0.6779
   63MOL    H8841132   7.233   6.864   4.491  0.6146  2.2739  1.1270
   63MOL    H8941133   7.120   6.897   4.352  1.4634 -3.3439 -2.3668
   63MOL    H9041134   7.397   6.879   4.256 -0.9077  0.8810  1.6240
   63MOL    H9141135   7.272   6.786   4.192 -0.4136 -0.8164 -0.0435
   63MOL    H9241136   7.280   6.638   4.396 -0.2965 -1.4203 -0.4136
   63MOL    H9341137   7.413   6.623   4.274 -1.1714 -1.4711  1.0281
   63MOL    H9441138   7.558   6.779   4.406  0.2754  1.1575  1.8030
   63MOL    H9541139   7.457   6.761   4.543 -0.2895  0.3851 -0.7095
   63MOL    H9641140   7.495   6.500   4.518  2.2059 -3.3503 -1.3865
   63MOL    H9741141   7.612   6.542   4.395  2.5964 -1.9740  2.7529
   63MOL    H9841142   7.616   6.637   4.688 -1.1482  1.1535 -0.1705
   63MOL    H9941143   0.021   6.681   4.559  0.7553 -1.2960 -0.9892
   63MOL   H10041144   0.020   6.513   4.618 -0.2534  0.3153  1.0525
   63MOL   C10141145   7.247   7.481   4.646  0.2303 -0.4409  0.1213
   63MOL   C10241146   7.355   7.466   4.750  0.5868  0.1997 -0.1084
   63MOL   C10341147   7.297   7.453   4.890 -0.9437  0.2255 -0.0410
   63MOL   C10441148   7.240   7.581   4.953 -0.5251 -0.4096  0.6846
   63MOL   C10541149   7.119   7.561   5.048 -0.5083  0.4653 -0.2949
   63MOL   C10641150   7.144   7.471   5.173  0.2604 -0.9513  0.1598
   63MOL   C10741151   7.021   7.468   5.267  0.4884 -0.1726 -0.0921
   63MOL   C10841152   6.895   7.408   5.206 -0.1529 -0.1354 -0.3516
   63MOL   C10941153   6.780   7.393   5.304  0.5767 -0.5801 -0.2855
   63MOL   C11041154   6.680   7.508   5.294 -0.2749 -0.0370  0.6398
   63MOL   C11141155   6.559   7.499   5.389  0.0255 -0.0359  0.5311
   63MOL   H11241156   7.285   7.528   4.555  0.6897  1.4623  1.2764
   63MOL   H11341157   7.181   7.561   4.679  0.5172  0.4662 -1.4446
   63MOL   H11441158   7.395   7.369   4.723 -3.6599 -1.7197  0.1153
   63MOL   H11541159   7.219   7.377   4.894 -0.4542 -0.5542 -3.3314
   63MOL   H11641160   7.363   7.410   4.965 -1.1717 -0.7683 -0.3947
   63MOL   H11741161   7.315   7.636   5.011 -0.3726  0.4744 -0.3265
   63MOL   H11841162   7.216   7.651   4.873  1.1227 -0.3676  0.2004
   63MOL   H11941163   7.082   7.651   5.096  1.7796  1.2838  0.0025
   63MOL   H12041164   7.041   7.516   4.987  1.5203 -1.4115 -1.5844
   63MOL   H12141165   7.166   7.366   5.150  1.4902 -0.0509 -3.0209
   63MOL   H12241166   7.216   7.517   5.240  1.1538 -0.6567 -0.9782
   63MOL   H12341167   6.997   7.563   5.315  0.4946  0.0069 -0.4392
   63MOL   H12441168   7.053   7.397   5.342 -1.3445 -0.0167  0.8511
   63MOL   H12541169   6.862   7.460   5.116 -0.6396 -1.0163 -0.6856
   63MOL   H12641170   6.922   7.307   5.175 -1.8495 -0.6269 -0.2767
   63MOL   H12741171   6.731   7.303   5.269  0.1425  0.3447 -2.1436
   63MOL   H12841172   6.816   7.376   5.406  1.3478 -0.9237 -0.6151
   63MOL   H12941173   6.648   7.535   5.193  1.5185  1.6012  0.4811
   63MOL   H13041174   6.733   7.596   5.328 -2.2185  0.8556  1.4302
   63MOL   H13141175   6.587   7.484   5.493 -1.4300  0.4564  1.0056
   63MOL   H13241176   6.506   7.594   5.387 -0.3123 -0.2206  0.6092
   63MOL   H13341177   6.486   7.420   5.368 -0.1746  0.3756 -0.3652
   63MOL   C13441178   7.466   7.567   4.734  0.4074  0.0091 -0.8814
   63MOL   C13541179   7.600   7.525   4.790  0.1574  0.3599  0.0504
   63MOL   C13641180   7.672   7.644   4.859  0.4487  0.4460  0.0324
   63MOL   C13741181   0.039   7.600   4.986  1.0091 -0.6305 -0.4547
   63MOL   C13841182   0.082   0.016   5.078 -0.1810 -0.8288 -0.1186
   63MOL   C13941183   7.669   0.076   5.153  0.2373 -0.2394 -0.6957
   63MOL   C14041184   0.006   0.204   5.232 -0.2181  0.0459  0.3883
   63MOL   C14141185   7.590   0.273   5.304  0.1017 -0.1510 -0.6783
   63MOL   C14241186   7.521   0.387   5.235  0.0316  0.8124  0.1651
   63MOL   C14341187   7.444   0.350   5.100  0.0940  0.4988 -0.9080
   63MOL   C14441188   7.369   0.470   5.043  0.7441  0.2598 -0.9457
   63MOL   H14541189   7.489   7.578   4.627 -0.7694  2.6374 -0.9064
   63MOL   H14641190   7.433   7.666   4.766  2.0163  0.6690 -1.2054
   63MOL   H14741191   7.574   7.449   4.864 -1.8975  0.1426 -0.8605
   63MOL   H14841192   7.588   0.004   4.886  1.6863  1.7338  0.8637
   63MOL   H14941193   0.025   7.703   4.787  2.5424 -3.1430 -1.4275
   63MOL   H15041194   7.675   7.533   5.039 -0.0206  0.7031 -0.0620
   63MOL   H15141195   0.131   7.547   4.961  1.1614  0.9674 -3.6066
   63MOL   H15241196   0.157   7.692   5.152 -0.0135  1.0260  0.4158
   63MOL   H15341197   0.119   0.096   5.014 -0.3883 -0.9579 -0.4012
   63MOL   H15441198   7.598   0.102   5.075 -1.1613 -4.3096 -0.9417
   63MOL   H15541199   7.620   0.009   5.223  0.8413  0.2102  0.1626
   63MOL   H15641200   0.093   0.176   5.291 -0.7721  0.3686  1.3628
   63MOL   H15741201   0.053   0.265   5.154  2.2266 -0.2038  1.5883
   63MOL   H15841202   7.518   0.192   5.312 -2.3819  1.7072 -3.3524
   63MOL   H15941203   7.620   0.303   5.404  1.7159 -1.4621 -0.7285
   63MOL   H16041204   7.440   0.425   5.297 -1.0130 -0.9075 -0.1072
   63MOL   H16141205   7.590   0.466   5.205  0.4226  0.5275  0.3243
   63MOL   H16241206   7.508   0.302   5.026  1.5803 -2.3932  2.1154
   63MOL   H16341207   7.380   0.268   5.131  1.1277 -1.2186 -3.1864
   63MOL   H16441208   7.284   0.491   5.109  1.0026  1.0068 -0.8419
   63MOL   H16541209   7.322   0.437   4.951 -1.1050 -0.2100  0.1429
   63MOL   H16641210   7.428   0.557   5.015  0.5560  1.5484  2.3696
   63MOL   C16741211   7.695   7.456   4.688 -0.6455  0.4059 -0.1245
   63MOL   C16841212   7.659   7.317   4.630 -0.4122 -0.8574 -0.1024
   63MOL   C16941213   7.647   7.210   4.739  0.7054  0.4195 -0.0832
   63MOL   C17041214   7.544   7.103   4.706 -0.1773  0.6308  0.5184
   63MOL   C17141215   7.517   7.004   4.816  0.0473 -0.1863 -0.1221
   63MOL   C17241216   7.398   7.037   4.907 -0.2275  0.1738  0.1738
   63MOL   C17341217   7.398   6.960   5.034 -0.4173 -0.5810 -0.5627
   63MOL   C17441218   7.294   7.019   5.133  0.0711  0.4828  0.2391
   63MOL   C17541219   7.309   6.952   5.273  0.1996 -0.3920  0.3522
   63MOL   C17641220   7.204   6.999   5.376 -0.2125 -0.9310 -0.7054
   63MOL   C17741221   7.060   6.947   5.362  0.1175  0.0619 -0.6380
   63MOL   H17841222   0.004   7.532   4.611 -0.1197  0.8627  0.4052
   63MOL   H17941223   0.087   7.443   4.738 -1.0845  1.5231  1.0220
   63MOL   H18041224   7.564   7.324   4.577 -0.0097  1.4894 -0.5497
   63MOL   H18141225   7.601   7.237   4.835 -0.2450  1.2602 -0.7672
   63MOL   H18241226   0.045   7.178   4.764  0.6274  0.7619  0.7100
   63MOL   H18341227   7.452   7.142   4.663 -0.2758 -0.4416 -0.2722
   63MOL   H18441228   7.578   7.045   4.620 -3.0290  0.5845 -0.6525
   63MOL   H18541229   7.607   6.997   4.877  0.5805 -1.6052 -1.0486
   63MOL   H18641230   7.497   6.903   4.780 -0.7753 -0.3743  0.8359
   63MOL   H18741231   7.418   7.138   4.943  1.9406 -0.2466  0.2143
   63MOL   H18841232   7.301   7.039   4.857 -1.0063 -2.0514  1.5658
   63MOL   H18941233   7.494   6.949   5.084 -0.5103  0.6694 -0.0782
   63MOL   H19041234   7.381   6.855   5.011  1.5012 -0.3534 -3.1901
   63MOL   H19141235   7.314   7.125   5.151 -1.6175  0.7224  0.8668
   63MOL   H19241236   7.191   7.017   5.097  1.2492  0.3955 -3.3250
   63MOL   H19341237   7.411   6.957   5.310  0.5367  1.7811 -0.7975
   63MOL   H19441238   7.289   6.845   5.259 -0.2714 -0.0286 -1.9112
   63MOL   H19541239   7.208   7.108   5.382  0.7795 -1.0636  1.7864
   63MOL   H19641240   7.247   6.975   5.473  2.0367  1.5874 -0.9988
   63MOL   H19741241   7.029   6.968   5.259  1.8668  0.1927 -1.1479
   63MOL   H19841242   6.997   7.002   5.432  3.3847  1.6906  1.1020
   63MOL   H19941243   7.044   6.840   5.376 -1.3756  0.0787 -2.0262
   63MOL   C20041244   0.059   7.276   4.519  0.5005 -0.5124  0.0288
   63MOL   C20141245   0.062   7.343   4.375 -0.2788  0.3819  0.7301
   63MOL   C20241246   7.632   7.308   4.297 -0.2059 -0.6624 -0.0722
   63MOL   C20341247   7.610   7.374   4.161  0.2281  0.5605 -0.3243
   63MOL   C20441248   7.474   7.345   4.102 -0.7880 -0.2104  0.3889
   63MOL   C20541249   7.465   7.204   4.042  0.0267 -0.1291  1.5295
   63MOL   C20641250   7.354   7.204   3.928 -0.0883 -0.1201  0.0102
   63MOL   C20741251   7.312   7.057   3.890  0.4094 -0.3766  0.3460
   63MOL   C20841252   7.210   7.040   3.785  0.0159  1.1041  0.0055
   63MOL   C20941253   7.147   6.899   3.782  0.1256 -0.9757 -0.7028
   63MOL   C21041254   7.020   6.886   3.696 -0.2109  0.2482 -0.2486
   63MOL   H21141255   0.155   7.285   4.571  1.5618  0.1007 -2.0003
   63MOL   H21241256   0.042   7.169   4.513  1.5817 -0.6008 -1.9174
   63MOL   H21341257   0.056   7.451   4.381 -1.4545  0.4248 -0.8737
   63MOL   H21441258   7.543   7.331   4.357 -0.5772 -2.4257  0.0697
   63MOL   H21541259   7.612   7.201   4.294  0.7079 -0.9461  2.6936
   63MOL   H21641260   7.688   7.329   4.099 -0.6306 -0.1407 -0.9007
   63MOL   H21741261   7.616   7.483   4.159 -2.2166  0.6987 -1.5890
   63MOL   H21841262   7.462   7.429   4.034 -1.1320  0.0433  0.7693
   63MOL   H21941263   7.388   7.346   4.168 -2.0714 -1.6364 -1.2423
   63MOL   H22041264   7.564   7.176   4.006 -0.3111  1.0570 -0.4080
   63MOL   H22141265   7.434   7.141   4.125  1.5611 -1.6003  1.0216
   63MOL   H22241266   7.393   7.240   3.833 -0.1711 -1.0030 -0.3611
   63MOL   H22341267   7.266   7.265   3.950 -0.2294  0.1435 -1.2263
   63MOL   H22441268   7.279   7.016   3.985 -0.7900  2.6781  1.3261
   63MOL   H22541269   7.407   7.006   3.876  1.4407  1.6315 -0.2639
   63MOL   H22641270   7.256   7.060   3.688 -0.8779  1.8535 -0.2747
   63MOL   H22741271   7.130   7.114   3.787  1.0570  2.2379  1.8137
   63MOL   H22841272   7.233   6.837   3.755  0.0424 -1.7676  0.7914
   63MOL   H22941273   7.113   6.868   3.881  1.0799  0.5358  0.1152
   63MOL   H23041274   6.938   6.941   3.743  0.0301  0.6730 -0.3267
   63MOL   H23141275   6.992   6.784   3.672 -1.6791  0.7572 -0.7480
   63MOL   H23241276   7.035   6.937   3.601  1.7778  1.4511  0.6759
   63MOL   C23341277   0.192   7.313   4.299 -0.0274  0.7438  0.4452
   63MOL   C23441278   0.207   7.174   4.223 -0.2014 -0.5425  0.1349
   63MOL   C23541279   0.185   7.043   4.308  0.4094 -0.0472  0.1460
   63MOL   C23641280   0.277   7.021   4.433  0.3373  0.1312  0.2773
   63MOL   C23741281   0.237   6.893   4.515  0.5626 -0.1267 -0.8869
   63MOL   C23841282   0.325   6.869   4.639 -0.0817  0.4315  0.7395
   63MOL   C23941283   0.478   6.856   4.625  0.3571  0.5952  0.5690
   63MOL   C24041284   0.544   6.821   4.761  0.0326  0.0834  0.4624
   63MOL   C24141285   0.494   6.914   4.877  0.1636  0.4949  0.3070
   63MOL   C24241286   0.553   6.905   5.018 -0.7161  0.1726 -0.1545
   63MOL   C24341287   0.695   6.939   5.008  0.3350 -0.2804  0.1933
   63MOL   H24441288   0.278   7.325   4.364 -0.4279 -1.4274  1.4430
   63MOL   H24541289   0.204   7.384   4.217 -1.0287 -0.9336 -1.2116
   63MOL   H24641290   0.122   7.166   4.155  1.0490  1.5897 -1.7596
   63MOL   H24741291   0.083   7.038   4.345  0.6595 -0.1000  0.8359
   63MOL   H24841292   0.195   6.949   4.254  0.3782  0.2582 -0.3969
   63MOL   H24941293   0.290   7.113   4.488  1.3171 -1.4727  2.8209
   63MOL   H25041294   0.371   6.998   4.383  0.1480  1.0364 -0.5071
   63MOL   H25141295   0.245   6.802   4.455  0.2518 -1.0284  0.4149
   63MOL   H25241296   0.134   6.906   4.548  0.2863  0.0215 -1.7943
   63MOL   H25341297   0.299   6.772   4.682  1.5133  0.0980  0.9608
   63MOL   H25441298   0.308   6.950   4.710  0.7059  0.4255  0.9289
   63MOL   H25541299   0.505   6.777   4.555 -1.6297  1.5147 -1.3258
   63MOL   H25641300   0.519   6.951   4.593 -1.3249  0.8233 -0.9858
   63MOL   H25741301   0.511   6.719   4.781 -0.1486 -0.0999 -0.7059
   63MOL   H25841302   0.652   6.811   4.750 -0.2707 -1.2637 -1.6887
   63MOL   H25941303   0.525   7.005   4.827  0.2248  0.0829 -0.4070
   63MOL   H26041304   0.387   6.895   4.888  0.5842 -3.8005 -1.8388
   63MOL   H26141305   0.543   6.801   5.047  1.9007 -0.1689 -0.3503
   63MOL   H26241306   0.498   6.974   5.082  0.5388  0.3784  0.6986
   63MOL   H26341307   0.751   6.873   4.940  0.4582  1.9656 -1.9598
   63MOL   H26441308   0.755   6.946   5.099 -0.9486 -0.1931  1.0308
   63MOL   H26541309   0.701   7.035   4.956 -0.4044 -0.1466  0.3623
   63MOL   C26641310   0.340   7.167   4.137 -0.4341 -0.3888 -0.1853
   63MOL   C26741311   0.357   7.040   4.041 -0.0897 -0.3906  0.3193
   63MOL   C26841312   0.462   6.935   4.095  0.2832  0.1740 -0.2138
   63MOL   C26941313   0.441   6.798   4.034 -0.9665  0.7451 -0.4149
   63MOL   C27041314   0.525   6.684   4.105 -0.0208  0.4988  0.0597
   63MOL   C27141315   0.665   6.668   4.050  0.0120 -0.6034 -0.3260
   63MOL   C27241316   0.670   6.641   3.899 -0.0332 -0.3958  0.4826
   63MOL   C27341317   0.796   6.564   3.847  0.0286  0.0497  0.2482
   63MOL   C27441318   0.799   6.549   3.696 -0.6771 -0.8207 -0.0096
   63MOL   C27541319   0.877   6.427   3.653 -0.5876  0.0950  0.0824
   63MOL   C27641320   0.798   6.345   3.550  0.4360 -0.2948 -0.1731
   63MOL   H27741321   0.434   7.154   4.192 -0.7370 -1.7736  0.0266
   63MOL   H27841322   0.369   7.263   4.094 -1.3368 -0.4505 -0.9308
   63MOL   H27941323   0.262   6.987   4.044 -0.2394 -0.1299  0.2256
   63MOL   H28041324   0.561   6.976   4.075  0.5363 -1.0694 -1.5474
   63MOL   H28141325   0.447   6.928   4.203  0.8168 -0.6031 -0.1831
   63MOL   H28241326   0.461   6.792   3.927  1.0204  0.3839 -0.0423
   63MOL   H28341327   0.336   6.769   4.027 -0.4492 -0.9926 -1.0322
   63MOL   H28441328   0.471   6.589   4.104  0.5525  0.1635  0.2639
   63MOL   H28541329   0.544   6.709   4.210 -0.0915 -0.6473  0.3550
   63MOL   H28641330   0.717   6.584   4.097  0.8850  0.9614  1.5824
   63MOL   H28741331   0.729   6.757   4.047 -0.5492 -0.1590  0.5660
   63MOL   H28841332   0.588   6.573   3.875  0.9759 -2.3356  2.3485
   63MOL   H28941333   0.652   6.732   3.841 -1.0709 -1.4446 -0.8770
   63MOL   H29041334   0.792   6.463   3.889  1.1714  0.0911  0.4701
   63MOL   H29141335   0.886   6.617   3.878  0.1410 -0.8229  1.5056
   63MOL   H29241336   0.696   6.537   3.663 -1.5516  2.6943  1.2694
   63MOL   H29341337   0.824   6.645   3.651 -0.7444 -0.9901 -0.4059
   63MOL   H29441338   0.906   6.365   3.738  3.0416 -1.1753 -1.9505
   63MOL   H29541339   0.974   6.452   3.610 -0.3326 -1.8300 -0.5416
   63MOL   H29641340   0.781   6.386   3.451  0.9755 -0.7223 -0.4452
   63MOL   H29741341   0.705   6.321   3.601  0.3672 -1.0152 -0.6232
   63MOL   H29841342   0.860   6.257   3.530  1.1183  0.1121  0.1439
   63MOL   C29941343   0.377   7.093   3.896  0.7985 -0.1088 -0.0546
   63MOL   C30041344   0.263   7.177   3.844 -0.3122 -0.1116  0.2588
   63MOL   C30141345   0.130   7.094   3.819 -0.5770 -0.6206 -0.7885
   63MOL   C30241346   0.147   6.963   3.740  0.5205 -0.0572  0.2614
   63MOL   C30341347   0.016   6.905   3.689 -0.6598  0.1536 -0.6940
   63MOL   C30441348   0.039   6.800   3.582  0.6884  0.1082 -0.4246
   63MOL   C30541349   7.630   6.706   3.542  0.1837 -0.6033  0.0152
   63MOL   C30641350   7.668   6.581   3.466 -0.0121  0.2647 -0.1827
   63MOL   C30741351   0.065   6.613   3.349  0.3159  0.1220 -0.2912
   63MOL   C30841352   0.097   6.491   3.266  0.2935  0.1326  0.2105
   63MOL   C30941353   0.181   6.523   3.139 -0.5123 -0.3976  0.3172
   63MOL   H31041354   0.406   7.018   3.823  0.0644 -1.0969  0.6420
   63MOL   H31141355   0.469   7.150   3.905  0.0688  1.2169 -0.9519
   63MOL   H31241356   0.235   7.253   3.917  0.2238 -0.4407  0.8135
   63MOL   H31341357   0.086   7.075   3.917  0.2490  0.5810 -0.1714
   63MOL   H31441358   0.055   7.149   3.763 -0.0156  0.0385 -0.9037
   63MOL   H31541359   0.213   6.979   3.655  0.6091 -1.5087  0.0405
   63MOL   H31641360   0.190   6.887   3.806  1.9003 -0.4384 -1.0522
   63MOL   H31741361   7.663   6.874   3.777 -0.9443  0.8972 -0.6074
   63MOL   H31841362   7.649   6.978   3.647 -0.0909  1.1243  0.0140
   63MOL   H31941363   0.120   6.738   3.622  1.1818  0.1134 -1.4058
   63MOL   H32041364   0.090   6.847   3.498 -1.1018  3.8905  0.5047
   63MOL   H32141365   7.576   6.677   3.632 -1.8436 -1.4491 -1.4188
   63MOL   H32241366   7.564   6.767   3.480 -2.1298 -0.2766  2.6759
   63MOL   H32341367   7.579   6.533   3.426  0.0095  0.8268 -0.9082
   63MOL   H32441368   0.012   6.510   3.535 -0.9350 -0.4249 -0.2480
   63MOL   H32541369   0.158   6.641   3.399 -0.0644  1.6374 -0.4216
   63MOL   H32641370   0.024   6.693   3.288 -3.0906 -0.6302  0.8907
   63MOL   H32741371   0.005   6.440   3.237  0.6198  1.0510 -2.6383
   63MOL   H32841372   0.152   6.426   3.334  0.7898 -0.0747 -0.3874
   63MOL   H32941373   0.220   6.432   3.092 -0.9167  0.0965 -1.0098
   63MOL   H33041374   0.121   6.561   3.056 -0.0346 -0.1473  0.0834
   63MOL   H33141375   0.260   6.596   3.158 -1.5143  0.2836  1.8828
   63MOL   C33241376   0.305   7.260   3.715  0.4000  0.4886  0.0760
   63MOL   C33341377   0.379   7.392   3.739  0.4916  0.1360 -0.1804
   63MOL   C33441378   0.299   7.521   3.754 -0.4277 -0.0727 -0.3261
   63MOL   C33541379   0.188   7.527   3.645 -0.4214  0.0034 -0.3008
   63MOL   C33641380   0.125   7.668   3.622 -0.0432  0.4761  0.1037
   63MOL   C33741381   0.004   7.673   3.522 -0.7033 -0.1601 -0.2518
   63MOL   C33841382   7.583   7.590   3.567  0.0325  0.3636  0.0765
   63MOL   C33941383   7.489   7.657   3.670  0.5928 -0.0688  0.1758
   63MOL   C34041384   7.361   7.572   3.678  0.4235  0.3139  0.4135
   63MOL   C34141385   7.269   7.616   3.796 -0.4534 -0.4348  0.2021
   63MOL   C34241386   7.142   7.538   3.800 -0.6564  0.0581  0.3976
   63MOL   H34341387   0.375   7.200   3.658 -0.7412  0.5934 -1.4480
   63MOL   H34441388   0.228   7.269   3.639  0.8660  0.9148 -0.3459
   63MOL   H34541389   0.428   7.368   3.834  2.8044 -0.3584 -1.4571
   63MOL   H34641390   0.357   7.614   3.752  0.4712 -0.5818  1.1067
   63MOL   H34741391   0.251   7.528   3.852 -1.4598  1.2095 -0.9122
   63MOL   H34841392   0.224   7.497   3.546 -2.3133  1.0986 -1.3704
   63MOL   H34941393   0.106   7.456   3.655 -1.8572  1.6470 -0.1969
   63MOL   H35041394   0.090   7.692   3.723  1.5231  0.7229  0.5911
   63MOL   H35141395   0.210   0.026   3.594  1.3707 -0.7736  1.5443
   63MOL   H35241396   0.039   7.636   3.426  1.5253 -0.2877  0.5879
   63MOL   H35341397   7.680   0.075   3.507 -1.0730 -0.2305 -0.0855
   63MOL   H35441398   7.618   7.497   3.610 -0.7007  0.7902  1.6027
   63MOL   H35541399   7.535   7.564   3.472 -0.0352 -2.4379  0.8593
   63MOL   H35641400   7.540   7.672   3.765 -1.9908 -0.8756  1.7206
   63MOL   H35741401   7.458   0.047   3.624 -0.6632  0.7902  2.7064
   63MOL   H35841402   7.376   7.465   3.666 -0.6170  0.0425  1.4786
   63MOL   H35941403   7.305   7.599   3.588  1.5770  0.5555 -0.2525
   63MOL   H36041404   7.251   0.020   3.789  0.1761 -0.3576 -0.3913
   63MOL   H36141405   7.319   7.598   3.890 -2.3046 -0.5309  1.1882
   63MOL   H36241406   7.162   7.432   3.812  2.7162  0.4611 -1.2918
   63MOL   H36341407   7.079   7.573   3.882  0.9003  1.9682  0.8157
   63MOL   H36441408   7.080   7.557   3.713  1.7835  0.8789 -1.1988
   63MOL   C36541409   0.496   7.415   3.636 -0.8136  0.3221 -0.0849
   63MOL   C36641410   0.633   7.347   3.667  0.0506  0.3308  0.1919
   63MOL   C36741411   0.720   7.339   3.537 -0.5849 -0.5989  0.4003
   63MOL   C36841412   0.677   7.227   3.441 -0.1457  1.1890 -0.3056
   63MOL   C36941413   0.693   7.083   3.505  0.1510  0.4459 -0.4294
   63MOL   C37041414   0.563   7.007   3.475 -0.2936 -0.6938  0.2995
   63MOL   C37141415   0.557   6.867   3.537  0.5070  0.9659 -1.1247
   63MOL   C37241416   0.424   6.796   3.538 -0.0857  0.2484  0.1223
   63MOL   C37341417   0.425   6.646   3.575 -0.1795 -0.2711  0.0279
   63MOL   C37441418   0.458   6.551   3.452 -0.5838 -0.0281  0.0387
   63MOL   C37541419   0.432   6.399   3.473  0.4270 -0.7843  0.4337
   63MOL   H37641420   0.453   7.392   3.538 -1.4346  0.2634  0.2022
   63MOL   H37741421   0.518   7.522   3.633  1.3563 -0.1234 -1.4140
   63MOL   H37841422   0.618   7.247   3.708 -0.9019  0.3219 -0.1811
   63MOL   H37941423   0.827   7.341   3.556 -0.8061  0.0183  1.6766
   63MOL   H38041424   0.707   7.424   3.469  4.3630 -0.3626 -0.4193
   63MOL   H38141425   0.749   7.229   3.360  1.9604  0.0580  1.4743
   63MOL   H38241426   0.576   7.233   3.399  0.0802 -0.9046 -1.2348
   63MOL   H38341427   0.707   7.068   3.612  0.7165 -1.0996 -0.7100
   63MOL   H38441428   0.779   7.035   3.458 -0.5295 -1.5207  0.2620
   63MOL   H38541429   0.545   6.997   3.368  0.8771 -2.7150  0.2533
   63MOL   H38641430   0.475   7.060   3.512 -0.2937 -0.4880  0.0048
   63MOL   H38741431   0.635   6.810   3.486 -1.1313 -1.0888 -1.4124
   63MOL   H38841432   0.592   6.876   3.639 -0.5219 -0.7987 -0.6047
   63MOL   H38941433   0.376   6.812   3.441 -0.3614 -1.8527 -0.0979
   63MOL   H39041434   0.356   6.839   3.611 -0.9914  0.3514 -0.7754
   63MOL   H39141435   0.477   6.620   3.667 -0.8959  2.2047  1.1586
   63MOL   H39241436   0.320   6.627   3.599 -1.2742  4.6048 -0.4327
   63MOL   H39341437   0.391   6.577   3.369 -1.9268  2.9210  1.9629
   63MOL   H39441438   0.557   6.574   3.412 -1.2914  2.1441 -0.5419
   63MOL   H39541439   0.469   6.334   3.394  1.8613  0.8636 -0.2793
   63MOL   H39641440   0.326   6.376   3.485  0.3033 -1.3356 -1.5356
   63MOL   H39741441   0.490   6.378   3.563 -0.2323  1.0388  1.3241
   63MOL   C39841442   0.715   7.429   3.765 -0.1085  0.9042  0.2942
   63MOL   C39941443   0.828   7.354   3.829 -0.4922  0.0746 -0.1847
   63MOL   C40041444   0.770   7.277   3.953  0.4684 -0.1053  0.1582
   63MOL   C40141445   0.865   7.167   4.010  0.0103 -0.1763 -0.1276
   63MOL   C40241446   0.889   7.050   3.907 -0.0726  0.6619  0.8448
   63MOL   C40341447   0.956   6.926   3.960 -0.2206  0.7904 -0.4438
   63MOL   C40441448   1.107   6.929   3.976  0.2614  0.2270 -0.0655
   63MOL   C40541449   1.152   6.824   4.084  0.5021  0.6219 -0.9005
   63MOL   C40641450   1.300   6.818   4.097  0.0789  0.3697  0.0652
   63MOL   C40741451   1.362   6.722   4.199  0.1739  0.2446  0.3620
   63MOL   C40841452   1.345   6.568   4.160 -0.7764  0.3514 -0.1944
   63MOL   H40941453   0.661   7.477   3.848 -0.3864 -1.8490  1.7734
   63MOL   H41041454   0.752   7.508   3.701 -0.0623 -0.0692 -0.9086
   63MOL   H41141455   0.874   7.284   3.760 -0.3238 -0.3580  0.3700
   63MOL   H41241456   0.673   7.235   3.928  1.3310 -0.9676 -1.8838
   63MOL   H41341457   0.749   7.348   4.033 -0.0354  0.8493 -0.8202
   63MOL   H41441458   0.956   7.204   4.057  1.2529 -1.1663 -1.7121
   63MOL   H41541459   0.807   7.128   4.094 -0.8117 -1.2053 -1.1581
   63MOL   H41641460   0.794   7.015   3.867  1.6613 -1.5601 -1.4906
   63MOL   H41741461   0.942   7.081   3.817 -0.2094 -0.3031  0.4221
   63MOL   H41841462   0.931   6.844   3.893  0.9136 -0.3940  0.5669
   63MOL   H41941463   0.911   6.901   4.055  0.8445 -0.7523 -0.3377
   63MOL   H42041464   1.174   6.903   3.895  0.0789  0.6642 -0.3618
   63MOL   H42141465   1.129   7.031   4.008  0.9261 -0.0397  0.3096
   63MOL   H42241466   1.127   6.723   4.053 -0.1207  0.3801  0.3419
   63MOL   H42341467   1.109   6.848   4.181  3.7185  2.4273  0.1427
   63MOL   H42441468   1.332   6.785   3.998  0.6928 -1.3087  0.7990
   63MOL   H42541469   1.335   6.919   4.115 -1.3286  1.0630 -0.9656
   63MOL   H42641470   1.308   6.737   4.293  0.1374  0.3670  0.3206
   63MOL   H42741471   1.467   6.744   4.214 -0.2228  2.7650 -0.3417
   63MOL   H42841472   1.395   6.506   4.234  0.8774  0.8220 -0.8849
   63MOL   H42941473   1.396   6.551   4.065 -0.9978 -0.0692 -0.2369
   63MOL   H43041474   1.240   6.539   4.148 -0.3793 -0.8681 -0.7789
   63MOL   C43141475   0.937   7.458   3.868 -0.4765  0.3818 -0.3013
   63MOL   C43241476   1.052   7.498   3.767 -0.4852 -0.0194 -0.6547
   63MOL   C43341477   1.147   7.382   3.735  0.4750  0.4197 -0.4562
   63MOL   C43441478   1.232   7.316   3.847 -0.7062  0.2416  0.0486
   63MOL   C43541479   1.348   7.233   3.784 -0.1058  0.2486 -0.9194
   63MOL   C43641480   1.422   7.142   3.888  0.3510  0.3421 -0.6203
   63MOL   C43741481   1.502   7.224   3.985 -0.1076 -0.2875 -0.2529
   63MOL   C43841482   1.612   7.138   4.055  0.1753  0.3024 -0.0935
   63MOL   C43941483   1.710   7.219   4.141 -0.5067 -0.0525  0.0182
   63MOL   C44041484   1.817   7.144   4.214  0.1280  0.6660  0.1149
   63MOL   C44141485   1.891   7.243   4.309  0.1924  0.1191 -0.0803
   63MOL   H44241486   0.998   7.423   3.951 -3.7063  0.2972  2.1050
   63MOL   H44341487   0.886   7.542   3.914 -2.3882  0.0700 -1.7868
   63MOL   H44441488   1.000   7.515   3.672  0.8766 -0.6585 -1.5257
   63MOL   H44541489   1.078   7.303   3.707  1.2867  0.4913 -2.7464
   63MOL   H44641490   1.212   7.410   3.652  0.7978 -0.3055 -0.4492
   63MOL   H44741491   1.169   7.253   3.911  1.1792 -0.5525  1.1638
   63MOL   H44841492   1.288   7.367   3.925 -0.3121 -1.9668  1.2582
   63MOL   H44941493   1.428   7.289   3.736 -0.6120  0.7084 -1.2302
   63MOL   H45041494   1.296   7.173   3.709 -2.5485 -0.2313  1.1244
   63MOL   H45141495   1.485   7.074   3.831 -1.2457 -0.2558 -1.7181
   63MOL   H45241496   1.351   7.080   3.944 -0.8132  2.7770  0.6865
   63MOL   H45341497   1.451   7.289   4.057  1.5473  0.8601 -0.0923
   63MOL   H45441498   1.554   7.296   3.922 -0.3699  0.6797  0.6139
   63MOL   H45541499   1.559   7.066   4.117 -0.5696 -0.2469 -1.3503
   63MOL   H45641500   1.660   7.084   3.974 -0.1309  2.9926 -2.1618
   63MOL   H45741501   1.652   7.289   4.202 -0.8434  2.0169 -2.5855
   63MOL   H45841502   1.767   7.274   4.066 -1.4345 -2.1191 -2.2788
   63MOL   H45941503   1.893   7.098   4.151 -0.5495 -2.9630  1.8126
   63MOL   H46041504   1.783   7.065   4.281  1.1535  0.9248  0.9532
   63MOL   H46141505   1.829   7.291   4.384 -0.1125 -3.5248  2.1495
   63MOL   H46241506   1.974   7.196   4.362 -0.3131  2.1849  2.6430
   63MOL   H46341507   1.923   7.332   4.255 -1.6205  2.3821  2.4862
   63MOL   C46441508   1.124   7.630   3.802 -0.3126 -0.4789 -0.7992
   63MOL   C46541509   1.046   0.062   3.796 -0.3849 -0.1562  0.5123
   63MOL   C46641510   1.132   0.190   3.824 -0.4864 -0.4700 -0.7066
   63MOL   C46741511   1.152   0.204   3.980 -0.8935 -0.1909  0.2758
   63MOL   C46841512   1.215   0.336   4.030  0.4660  0.4253 -0.2041
   63MOL   C46941513   1.130   0.461   4.007 -0.3772 -0.6188 -0.5133
   63MOL   C47041514   1.201   0.595   4.041  0.2209 -0.1056 -0.6018
   63MOL   C47141515   1.097   0.706   4.063  0.5679 -0.4583 -0.7130
   63MOL   C47241516   1.168   0.841   4.059  0.4992 -0.1087  0.0351
   63MOL   C47341517   1.082   0.961   4.099 -0.1940 -0.3533  0.2087
   63MOL   C47441518   0.987   1.002   3.993 -0.1352 -0.2344  0.5179
   63MOL   H47541519   1.205   7.644   3.731  0.7463 -0.0102  0.5028
   63MOL   H47641520   1.176   7.623   3.897  1.8513  2.2431 -1.7157
   63MOL   H47741521   0.971   0.052   3.875  0.6531 -0.4303  1.4819
   63MOL   H47841522   1.082   0.281   3.790  0.8558  0.5474 -0.0095
   63MOL   H47941523   1.226   0.186   3.769 -0.0058 -0.2152  0.0890
   63MOL   H48041524   1.052   0.189   4.020 -0.4704  1.1803  1.8759
   63MOL   H48141525   1.221   0.123   4.004 -0.2599  0.9949  2.5326
   63MOL   H48241526   1.306   0.346   3.971  1.8527 -0.7518  1.6841
   63MOL   H48341527   1.244   0.327   4.134  0.1116  1.0662 -0.0512
   63MOL   H48441528   1.092   0.470   3.905 -1.5654  0.1543 -0.0137
   63MOL   H48541529   1.045   0.449   4.075 -0.2701 -0.7283 -0.3991
   63MOL   H48641530   1.263   0.599   4.130 -1.9634 -1.6785  1.0489
   63MOL   H48741531   1.260   0.636   3.959 -0.9194 -0.4199 -1.5921
   63MOL   H48841532   1.017   0.696   3.989  0.0169  0.9127 -0.3157
   63MOL   H48941533   1.041   0.693   4.155 -0.2021 -0.7676 -1.2192
   63MOL   H49041534   1.259   0.847   4.117  0.7945  0.1111 -0.4467
   63MOL   H49141535   1.213   0.852   3.961  0.7621  1.1412  0.2859
   63MOL   H49241536   1.032   0.939   4.193  1.4650  0.4089  1.2826
   63MOL   H49341537   1.145   1.046   4.125 -1.4337  1.5179 -2.6722
   63MOL   H49441538   0.886   0.983   4.029  0.2564 -0.8735  1.2849
   63MOL   H49541539   1.003   0.952   3.897 -0.0650  0.9148 -0.0839
   63MOL   H49641540   0.983   1.111   3.982  2.6606 -0.0866  0.6501
   63MOL   C49741541   0.957   0.092   3.677 -0.3887  0.3060  0.3599
   63MOL   C49841542   1.017   0.066   3.542 -0.1467 -0.4707 -0.1680
   63MOL   C49941543   1.102   0.182   3.490  0.3438  0.3724 -0.3578
   63MOL   C50041544   1.252   0.149   3.438  0.1675  0.6354  0.2492
   63MOL   C50141545   1.334   0.261   3.395  0.1435  0.2072  0.7108
   63MOL   C50241546   1.264   0.352   3.291  0.2296  0.0205  0.9436
   63MOL   C50341547   1.347   0.451   3.219 -0.6571  0.7363  0.4886
   63MOL   C50441548   1.282   0.517   3.100  0.5022  0.1468 -0.2334
   63MOL   C50541549   1.174   0.624   3.140  0.4220  0.0758  0.3672
   63MOL   C50641550   1.230   0.738   3.219 -0.0754  0.6866  0.2522
   63MOL   C50741551   1.123   0.844   3.258  0.0037  0.1372  0.1221
   63MOL   H50841552   0.881   0.017   3.701  0.6637 -0.5036  1.1944
   63MOL   H50941553   0.914   0.192   3.677  0.7965  0.8235 -0.3978
   63MOL   H51041554   1.080   7.681   3.533 -1.4755 -1.1304 -4.4411
   63MOL   H51141555   1.116   0.260   3.565 -0.9672 -0.2769  0.5835
   63MOL   H51241556   1.048   0.238   3.415 -1.3914  1.3978  1.6058
   63MOL   H51341557   1.255   0.079   3.354  0.1169  0.8550  0.0639
   63MOL   H51441558   1.315   0.107   3.516 -2.0228 -0.6264  1.4211
   63MOL   H51541559   1.353   0.331   3.476  1.7336  0.9252 -0.2383
   63MOL   H51641560   1.436   0.224   3.378  0.2436  0.3244  1.0629
   63MOL   H51741561   1.211   0.298   3.212  2.6080 -1.9001  0.6066
   63MOL   H51841562   1.184   0.409   3.337  1.2089  2.7098 -0.5773
   63MOL   H51941563   1.402   0.518   3.286 -2.1716  0.8030  1.7086
   63MOL   H52041564   1.426   0.399   3.166 -1.2145  1.1506 -0.7587
   63MOL   H52141565   1.244   0.446   3.026 -0.1274 -0.0405  0.2664
   63MOL   H52241566   1.364   0.566   3.048 -0.1274  0.4866 -0.9195
   63MOL   H52341567   1.098   0.579   3.202  0.3610  1.3308  1.2226
   63MOL   H52441568   1.120   0.648   3.048  1.3804  0.3809 -0.1257
   63MOL   H52541569   1.302   0.788   3.155 -1.1762  0.5622 -1.1007
   63MOL   H52641570   1.283   0.703   3.308 -0.2568  1.6962  0.7642
   63MOL   H52741571   1.092   0.915   3.181 -1.2661 -0.3319  0.1946
   63MOL   H52841572   1.168   0.900   3.340 -0.2003  2.1867 -1.1280
   63MOL   H52941573   1.041   0.789   3.304  0.8705  0.7450  2.4469
   63MOL   C53041574   0.901   0.050   3.434  0.6963 -0.3260 -0.4788
   63MOL   C53141575   0.948   7.699   3.296 -0.1429  0.4500 -0.3477
   63MOL   C53241576   0.855   0.039   3.175 -0.0255  0.0325  0.0210
   63MOL   C53341577   0.826   0.193   3.144 -0.1254 -0.4108 -0.2047
   63MOL   C53441578   0.711   0.206   3.042  0.2574 -0.6816 -0.6866
   63MOL   C53541579   0.650   0.347   3.028 -0.0785 -0.2204  0.1002
   63MOL   C53641580   0.755   0.451   2.984 -0.2496 -1.0931 -0.4518
   63MOL   C53741581   0.682   0.577   2.933 -0.4431  0.1287  0.1096
   63MOL   C53841582   0.777   0.698   2.907 -0.9365  0.0606 -0.3789
   63MOL   C53941583   0.812   0.794   3.023  0.2454  0.7644  0.7331
   63MOL   C54041584   0.864   0.933   2.965  1.1249 -0.2408 -1.3918
   63MOL   H54141585   0.828   7.682   3.471  1.2723  0.3307  2.0583
   63MOL   H54241586   0.854   0.148   3.428  1.1233 -0.1807 -1.5243
   63MOL   H54341587   1.043   0.046   3.274 -0.2244  0.9624  0.4438
   63MOL   H54441588   0.765   7.684   3.193 -0.4161  0.4640 -0.5198
   63MOL   H54541589   0.901   0.001   3.084  0.5720  1.5172 -0.3201
   63MOL   H54641590   0.916   0.247   3.113  0.9317 -0.6292  2.2862
   63MOL   H54741591   0.810   0.247   3.237 -1.4681 -1.5219  0.2241
   63MOL   H54841592   0.623   0.155   3.081  1.1128  0.1974  2.5513
   63MOL   H54941593   0.749   0.173   2.945  2.5408  0.7515 -0.3138
   63MOL   H55041594   0.591   0.374   3.116 -0.3603  1.2196 -0.5309
   63MOL   H55141595   0.574   0.335   2.950  0.3394  0.3389 -0.3906
   63MOL   H55241596   0.821   0.412   2.907 -0.4034  0.3248 -1.3123
   63MOL   H55341597   0.810   0.481   3.073 -0.3897  0.9261 -1.0165
   63MOL   H55441598   0.607   0.601   3.008 -0.0079 -2.6133  1.4821
   63MOL   H55541599   0.620   0.558   2.846 -0.7557 -3.8467  1.1098
   63MOL   H55641600   0.718   0.750   2.832 -2.6332  2.0220  2.2310
   63MOL   H55741601   0.868   0.660   2.859 -0.2958  1.5687 -0.3909
   63MOL   H55841602   0.883   0.741   3.087 -1.4301 -1.6777  0.6153
   63MOL   H55941603   0.721   0.809   3.081  0.0720 -1.3542  1.0499
   63MOL   H56041604   0.892   1.003   3.043 -3.9287  2.6015 -1.9129
   63MOL   H56141605   0.965   0.923   2.927  1.7855  0.0633  0.2503
   63MOL   H56241606   0.796   0.977   2.892 -2.2472 -1.7678  0.6925
   63MOL   C56341607   0.969   7.540   3.291 -0.3509 -0.1632  0.4787
   63MOL   C56441608   1.036   7.472   3.166 -0.7934  1.2027 -0.1693
   63MOL   C56541609   1.012   7.320   3.174  0.5822  0.6648 -0.2328
   63MOL   C56641610   1.041   7.256   3.310  0.4180  0.2358  0.0386
   63MOL   C56741611   1.034   7.103   3.294  0.0654 -0.5905 -0.4878
   63MOL   C56841612   1.072   7.046   3.432  0.2544  0.8676 -0.1835
   63MOL   C56941613   1.083   6.890   3.430  0.0489  0.9257 -0.9624
   63MOL   C57041614   1.162   6.826   3.544  0.3365 -0.1850 -0.0610
   63MOL   C57141615   1.188   6.676   3.534  0.1237  0.0761 -0.1249
   63MOL   C57241616   1.241   6.627   3.671  0.8526  0.4421 -0.2350
   63MOL   C57341617   1.391   6.655   3.697  0.0250 -0.0794  0.3349
   63MOL   H57441618   0.870   7.496   3.298 -0.6953  0.8326  2.1086
   63MOL   H57541619   1.027   7.514   3.380  1.0829  0.6864 -0.1917
   63MOL   H57641620   0.980   7.508   3.080 -1.0217  0.8718 -0.1616
   63MOL   H57741621   1.072   7.274   3.096  0.4519  0.2007 -0.0622
   63MOL   H57841622   0.907   7.298   3.150  0.5778 -0.5833  0.8387
   63MOL   H57941623   0.969   7.284   3.388  0.1046 -0.0218 -0.1562
   63MOL   H58041624   1.142   7.288   3.336  0.6259  0.6423 -1.2230
   63MOL   H58141625   1.098   7.064   3.215  1.2574 -0.3973  0.3720
   63MOL   H58241626   0.934   7.065   3.272 -0.0631 -1.0172  0.8156
   63MOL   H58341627   1.166   7.083   3.473  0.2712  1.7044 -0.9413
   63MOL   H58441628   0.993   7.082   3.499  0.5712 -1.4302  1.4853
   63MOL   H58541629   0.981   6.853   3.441 -0.4416  2.1644 -1.2832
   63MOL   H58641630   1.132   6.863   3.337  1.3352  1.4418 -0.4501
   63MOL   H58741631   1.107   6.832   3.638 -1.6235  0.0971 -1.1851
   63MOL   H58841632   1.250   6.889   3.548 -0.1296  0.5420 -0.9351
   63MOL   H58941633   1.258   6.650   3.454  1.5299 -0.2621  1.1975
   63MOL   H59041634   1.092   6.627   3.517 -0.3029  1.0711 -0.6013
   63MOL   H59141635   1.215   6.521   3.669 -0.9225  0.8838 -1.3149
   63MOL   H59241636   1.181   6.672   3.749  2.4493  2.5339 -0.1779
   63MOL   H59341637   1.450   6.657   3.605 -2.2296 -3.2599 -1.3015
   63MOL   H59441638   1.405   6.744   3.759  1.5278 -1.6210  2.2506
   63MOL   H59541639   1.435   6.573   3.752  1.6392  0.2292 -0.4554
   63MOL   C59641640   1.186   7.512   3.153  0.0259 -1.0586 -0.0654
   63MOL   C59741641   1.255   7.499   3.017  0.5639  0.3503  0.3036
   63MOL   C59841642   1.397   7.540   3.029 -0.4444 -0.3433 -0.0164
   63MOL   C59941643   1.507   7.431   3.053 -0.2230 -0.1320  0.3859
   63MOL   C60041644   1.645   7.490   3.009  0.1583 -0.2809  0.6120
   63MOL   C60141645   1.702   7.595   3.106 -0.0539  0.4045  0.6379
   63MOL   C60241646   1.835   7.642   3.056  0.0204  0.1376  0.1919
   63MOL   C60341647   1.952   7.538   3.053 -0.7217  0.2813 -1.0143
   63MOL   C60441648   2.017   7.495   3.186 -0.2754  0.3912 -0.2081
   63MOL   C60541649   2.100   7.597   3.260 -0.5867 -0.4110 -0.5778
   63MOL   C60641650   2.227   7.648   3.182  0.1593  0.1169  0.3716
   63MOL   H60741651   1.180   7.618   3.179 -1.2201 -1.2537  0.4611
   63MOL   H60841652   1.253   7.466   3.226  1.1329  1.8297  0.8294
   63MOL   H60941653   1.260   7.390   3.009  0.4421  0.3891 -0.3704
   63MOL   H61041654   1.404   7.627   3.094  0.9465 -0.3424 -0.1594
   63MOL   H61141655   1.420   7.578   2.930  0.5038 -1.1212 -0.1098
   63MOL   H61241656   1.492   7.343   2.990  0.2355 -0.3056  0.5135
   63MOL   H61341657   1.520   7.407   3.159 -0.2613  3.1260  1.1849
   63MOL   H61441658   1.637   7.538   2.912 -2.3536 -0.2472  0.8095
   63MOL   H61541659   1.705   7.399   2.995  1.6068  0.5947  0.9658
   63MOL   H61641660   1.633   7.680   3.104 -0.3968  0.1229  0.3331
   63MOL   H61741661   1.702   7.560   3.209 -1.1366 -0.7079  0.2733
   63MOL   H61841662   1.858   0.025   3.119 -1.5075  0.4965  0.2886
   63MOL   H61941663   1.815   7.682   2.956  1.8810 -2.7171 -1.3780
   63MOL   H62041664   2.023   7.595   2.993  0.9285 -0.2165  0.4454
   63MOL   H62141665   1.916   7.446   3.008 -0.8896 -0.0491 -0.2050
   63MOL   H62241666   1.941   7.471   3.259  1.0065  0.0845  1.0494
   63MOL   H62341667   2.073   7.404   3.168 -2.0714 -0.7595 -0.0246
   63MOL   H62441668   2.122   7.558   3.359  0.9261  1.3105 -0.2095
   63MOL   H62541669   2.028   7.677   3.280 -1.1279 -0.9061 -0.5474
   63MOL   H62641670   2.273   7.563   3.132 -1.4934 -1.6220  1.7131
   63MOL   H62741671   2.215   0.015   3.100 -1.8923  0.9139  1.3202
   63MOL   H62841672   2.304   7.687   3.248 -0.2610 -0.9722  1.5337
   63MOL   C62941673   1.191   7.565   2.894 -0.3646  0.7375  0.0363
   63MOL   C63041674   1.172   0.012   2.908  0.0017 -0.4536 -0.4118
   63MOL   C63141675   1.095   0.076   2.800  0.5557  0.4223 -0.1541
   63MOL   C63241676   1.065   0.225   2.827  0.0534  0.6085  0.0272
   63MOL   C63341677   1.173   0.317   2.755 -0.2508  0.1870 -0.1499
   63MOL   C63441678   1.139   0.469   2.755 -0.7913  0.1649 -0.2487
   63MOL   C63541679   1.236   0.567   2.680  0.7426 -0.7943 -0.5998
   63MOL   C63641680   1.174   0.704   2.677 -0.2442  0.5339  0.1492
   63MOL   C63741681   1.263   0.804   2.606  0.4475 -0.9345 -0.5175
   63MOL   C63841682   1.222   0.945   2.628  0.5256 -0.0572 -0.2955
   63MOL   C63941683   1.261   1.006   2.769  0.2184  0.2861  0.0755
   63MOL   H64041684   1.249   7.536   2.806 -0.4335  2.0629 -0.4506
   63MOL   H64141685   1.091   7.526   2.875 -0.2916  0.4819  0.1712
   63MOL   H64241686   1.119   0.040   2.999 -0.2293  0.4254 -0.8170
   63MOL   H64341687   1.135   0.066   2.699 -0.3323  0.1776 -0.4840
   63MOL   H64441688   1.004   0.021   2.777  1.2579 -0.5018 -0.7552
   63MOL   H64541689   1.072   0.239   2.935  1.0327 -0.9297  0.1864
   63MOL   H64641690   0.962   0.239   2.796 -1.1100 -2.5271  2.2162
   63MOL   H64741691   1.205   0.283   2.657 -3.1208  0.4911 -1.2460
   63MOL   H64841692   1.263   0.302   2.815  0.1456  1.6343 -0.3561
   63MOL   H64941693   1.123   0.500   2.858 -1.4968 -1.1516  0.0508
   63MOL   H65041694   1.041   0.482   2.710 -2.0296  0.1025  2.3281
   63MOL   H65141695   1.272   0.544   2.579  1.1306  0.8833 -0.8553
   63MOL   H65241696   1.327   0.560   2.740  0.1684  0.9669  0.4981
   63MOL   H65341697   1.170   0.743   2.778 -1.2314 -2.7618  1.4459
   63MOL   H65441698   1.073   0.700   2.637 -0.2833  2.1024  0.0524
   63MOL   H65541699   1.276   0.793   2.499  1.5474 -1.9557 -0.2936
   63MOL   H65641700   1.367   0.799   2.638  0.9151 -0.4960 -1.9139
   63MOL   H65741701   1.113   0.939   2.625  0.5484 -0.2086 -0.8583
   63MOL   H65841702   1.257   1.012   2.549 -1.6179  2.3169  0.6880
   63MOL   H65941703   1.224   1.107   2.784  2.4541  1.1480 -0.0209
   63MOL   H66041704   1.369   1.002   2.782  0.3682 -0.0346 -1.1758
   63MOL   H66141705   1.232   0.939   2.851 -0.1444  0.1761 -0.1398
   63MOL   H66241706   1.269   0.062   2.905 -0.2095 -0.0770 -0.8556
   64MOL     C141707   3.577   5.319   3.789  0.7740  0.0884  0.1331
   64MOL     C241708   3.537   5.338   3.652 -0.0276  0.7733  0.1392
   64MOL     C341709   3.454   5.212   3.601  0.0073 -0.1245  0.1348
   64MOL     C441710   3.534   5.082   3.587 -0.5288  0.5462 -0.2815
   64MOL     C541711   3.474   4.977   3.492  0.2178 -0.2323 -0.5685
   64MOL     C641712   3.539   4.835   3.484  0.4880 -0.1447 -0.2474
   64MOL     C741713   3.519   4.735   3.597 -0.3215  0.0967 -0.0282
   64MOL     C841714   3.569   4.593   3.554 -0.1023  0.3635  0.7131
   64MOL     C941715   3.531   4.473   3.652 -0.0346  0.3861  0.0319
   64MOL    C1041716   3.565   4.340   3.593  0.0156  0.2944 -0.3521
   64MOL    C1141717   3.535   4.222   3.685 -0.1120 -0.2781 -0.2733
   64MOL    H1241718   3.488   5.294   3.848  1.2529  0.9841  1.2664
   64MOL    H1341719   3.621   5.407   3.835 -0.7649  0.7524  0.3790
   64MOL    H1441720   3.625   5.343   3.588 -1.0454  0.4061 -1.3171
   64MOL    H1541721   3.433   5.248   3.501  0.0701 -0.2663  0.0691
   64MOL    H1641722   3.358   5.204   3.652  0.2470  0.0168  0.6065
   64MOL    H1741723   3.546   5.045   3.689  2.8659  0.5093 -0.6627
   64MOL    H1841724   3.633   5.112   3.554  0.1147  1.4348  2.3111
   64MOL    H1941725   3.366   4.970   3.505  0.1083  0.4997 -1.0395
   64MOL    H2041726   3.500   5.018   3.394  2.2806  2.2467  0.9443
   64MOL    H2141727   3.646   4.852   3.472  0.1308  1.4731 -1.2172
   64MOL    H2241728   3.500   4.782   3.397 -1.1787 -1.3254  1.1718
   64MOL    H2341729   3.563   4.761   3.693  0.2264  1.3548 -0.6151
   64MOL    H2441730   3.413   4.730   3.621 -0.1062 -1.5306  0.6591
   64MOL    H2541731   3.678   4.592   3.553 -0.0867  2.2210  0.3866
   64MOL    H2641732   3.544   4.569   3.451  3.2737  0.9530 -0.2852
   64MOL    H2741733   3.422   4.482   3.657 -0.1686 -1.4398  0.8436
   64MOL    H2841734   3.574   4.499   3.749 -2.2931  0.2992  1.0889
   64MOL    H2941735   3.661   4.341   3.541 -0.2712 -1.4214 -0.9569
   64MOL    H3041736   3.505   4.323   3.503  0.3142  3.1636 -1.1254
   64MOL    H3141737   3.598   4.210   3.774  0.3414 -0.6058 -0.6397
   64MOL    H3241738   3.438   4.240   3.731 -1.6094 -2.7401 -2.3456
   64MOL    H3341739   3.525   4.124   3.639 -0.2919 -0.7928  0.8490
   64MOL    H3441740   3.650   5.238   3.802  1.3029  0.6723  0.8270
   64MOL    C3541741   3.456   5.467   3.635  0.3063  0.2152 -0.2823
   64MOL    C3641742   3.510   5.553   3.530  0.1178 -0.4452  0.1011
   64MOL    C3741743   3.402   5.658   3.490 -0.1557 -0.8722  0.2666
   64MOL    C3841744   3.313   5.617   3.376  0.0575 -0.0707  0.0503
   64MOL    C3941745   3.214   5.494   3.398 -0.1981 -0.0009  0.1442
   64MOL    C4041746   3.134   5.479   3.269 -0.7696  0.2058  0.6744
   64MOL    C4141747   3.030   5.361   3.275 -0.5351 -0.3037 -0.1792
   64MOL    C4241748   3.009   5.299   3.140  0.2740 -0.4110 -0.5699
   64MOL    C4341749   2.947   5.380   3.022  0.4521 -0.2318  0.4640
   64MOL    C4441750   2.981   5.317   2.886 -0.1186  0.0270 -0.2567
   64MOL    C4541751   2.951   5.421   2.779  0.0237 -0.1959  0.5443
   64MOL    H4641752   3.448   5.524   3.728 -1.1370 -1.7252  0.8182
   64MOL    H4741753   3.347   5.460   3.624  0.2727  0.0647  0.1249
   64MOL    H4841754   3.529   5.502   3.435 -0.4884 -1.2661  0.4155
   64MOL    H4941755   3.333   5.685   3.570 -2.5800  0.4363 -2.1978
   64MOL    H5041756   3.443   5.756   3.463  1.0576 -1.7492 -1.1307
   64MOL    H5141757   3.370   5.593   3.287  1.4162 -0.0511  0.8971
   64MOL    H5241758   3.249   5.698   3.341  2.0487  1.1549 -0.7926
   64MOL    H5341759   3.156   5.503   3.489  2.4347  1.7508  1.7239
   64MOL    H5441760   3.291   5.418   3.414 -2.5143 -2.1368  1.5184
   64MOL    H5541761   3.201   5.467   3.184 -1.3733  1.3945  0.0127
   64MOL    H5641762   3.099   5.576   3.234  2.8524  0.9870 -0.9844
   64MOL    H5741763   3.065   5.286   3.346  0.3949 -0.3576 -0.6862
   64MOL    H5841764   2.935   5.400   3.312 -0.5278 -1.2013  0.7815
   64MOL    H5941765   2.939   5.216   3.155  0.2763 -0.0965  1.2924
   64MOL    H6041766   3.109   5.266   3.113  1.0804  2.0924 -0.7051
   64MOL    H6141767   2.984   5.482   3.034  1.8692 -0.5479 -1.0792
   64MOL    H6241768   2.838   5.389   3.024  0.2203 -1.7630 -2.3353
   64MOL    H6341769   3.085   5.287   2.873 -0.4752 -0.9917 -0.7591
   64MOL    H6441770   2.918   5.232   2.858 -0.2451  0.3207 -0.8742
   64MOL    H6541771   2.857   5.471   2.802 -0.5721 -0.7676 -0.5856
   64MOL    H6641772   3.034   5.492   2.776 -1.9348  2.1052 -1.7584
   64MOL    H6741773   2.951   5.378   2.679  0.4576  1.3446 -0.1355
   64MOL    C6841774   3.647   5.620   3.550 -0.4555  0.2360 -0.0953
   64MOL    C6941775   3.729   5.661   3.428 -0.0513  0.1761  0.0579
   64MOL    C7041776   3.845   5.763   3.465  0.2480  0.3964 -0.4976
   64MOL    C7141777   3.897   5.846   3.347  0.5700 -0.1021  0.4532
   64MOL    C7241778   4.013   5.938   3.395  0.4005 -0.0214  0.8054
   64MOL    C7341779   3.981   6.056   3.493  0.2343  0.4158 -0.4658
   64MOL    C7441780   4.088   6.163   3.501 -0.1466 -0.1253 -0.0950
   64MOL    C7541781   4.042   6.291   3.583  0.6408  0.2022  0.3610
   64MOL    C7641782   4.166   6.389   3.600  0.7269  0.3469 -0.0879
   64MOL    C7741783   4.142   6.528   3.657  0.1455 -0.1453  1.1729
   64MOL    C7841784   4.136   6.524   3.811  0.1858 -0.1160 -0.6021
   64MOL    H7941785   3.703   5.568   3.628  1.5421 -1.5607 -2.6522
   64MOL    H8041786   3.628   5.713   3.605  1.2590  0.8857 -0.5573
   64MOL    H8141787   3.650   5.714   3.376 -2.0479  0.9201  3.6733
   64MOL    H8241788   3.925   5.711   3.518 -0.0436  1.2113  0.7458
   64MOL    H8341789   3.798   5.839   3.527  0.8570  0.6992 -0.4058
   64MOL    H8441790   3.945   5.785   3.270  1.1119  1.1485 -0.2206
   64MOL    H8541791   3.820   5.904   3.296  1.9590  1.9626  0.6266
   64MOL    H8641792   4.049   5.984   3.303 -2.5194  0.4255 -0.1673
   64MOL    H8741793   4.101   5.882   3.427  2.3636  3.3791  1.4946
   64MOL    H8841794   3.888   6.105   3.465  1.7208  1.2415 -4.2994
   64MOL    H8941795   3.974   6.006   3.589  4.1258  0.8572  0.1328
   64MOL    H9041796   4.126   6.191   3.403 -1.4078 -0.4550 -0.6929
   64MOL    H9141797   4.172   6.124   3.558 -0.3925  2.6094  2.2550
   64MOL    H9241798   3.960   6.348   3.540  1.2110  0.6524 -0.1403
   64MOL    H9341799   4.021   6.249   3.681  2.4010  0.0750  0.7020
   64MOL    H9441800   4.246   6.348   3.661  1.2670  2.3061  0.5444
   64MOL    H9541801   4.214   6.397   3.502 -1.1872  3.5553 -0.8387
   64MOL    H9641802   4.214   6.601   3.619  0.8855 -1.8602 -0.8095
   64MOL    H9741803   4.045   6.558   3.618  1.6042  4.0100  0.4993
   64MOL    H9841804   4.070   6.445   3.848  0.3750  0.9466  2.1133
   64MOL    H9941805   4.090   6.619   3.836  2.0705 -0.1912  3.5968
   64MOL   H10041806   4.232   6.512   3.860 -0.4294  0.7067  0.8195
   64MOL   C10141807   3.788   5.536   3.358 -0.4255 -0.2586 -0.3832
   64MOL   C10241808   3.783   5.537   3.204  0.2113 -0.2105  0.5398
   64MOL   C10341809   3.640   5.531   3.151 -0.2757  0.3251 -0.4037
   64MOL   C10441810   3.624   5.584   3.011 -0.2266  0.4299 -0.9875
   64MOL   C10541811   3.475   5.581   2.959  0.5176 -0.6375 -0.2065
   64MOL   C10641812   3.463   5.625   2.811 -0.5216 -0.2925  0.1048
   64MOL   C10741813   3.319   5.617   2.748  0.1656  0.2685 -0.3248
   64MOL   C10841814   3.320   5.635   2.599 -0.0504 -0.7227 -0.4896
   64MOL   C10941815   3.340   5.498   2.525 -0.1925  0.8072 -0.8203
   64MOL   C11041816   3.334   5.530   2.374  0.6591  0.0061 -0.6282
   64MOL   C11141817   3.295   5.397   2.299  0.1006 -0.1767  0.0689
   64MOL   H11241818   3.885   5.515   3.403 -0.4455 -1.8156 -1.0200
   64MOL   H11341819   3.730   5.445   3.373 -0.0404 -0.4676 -0.1324
   64MOL   H11441820   3.826   5.632   3.172  0.6835 -0.2884  0.9352
   64MOL   H11541821   3.608   5.428   3.166  0.0152  0.4467  1.1503
   64MOL   H11641822   3.573   5.594   3.209 -1.4137 -0.3133 -0.9944
   64MOL   H11741823   3.664   5.686   3.008  0.6477  0.0804 -1.4878
   64MOL   H11841824   3.697   5.537   2.945  1.6610 -0.9517  1.9597
   64MOL   H11941825   3.431   5.482   2.968  0.0157 -0.4783 -0.8316
   64MOL   H12041826   3.411   5.638   3.026  0.9793  0.5918 -0.7912
   64MOL   H12141827   3.498   5.729   2.811  0.2370 -0.4937  3.2825
   64MOL   H12241828   3.532   5.559   2.760  0.7118  1.5233 -0.6543
   64MOL   H12341829   3.260   5.693   2.799  1.4344  1.8509 -1.1428
   64MOL   H12441830   3.272   5.530   2.793  1.8813 -0.5390 -0.0509
   64MOL   H12541831   3.224   5.679   2.570  0.5675  0.6140 -0.4962
   64MOL   H12641832   3.390   5.708   2.560 -0.4579 -1.2858 -2.3079
   64MOL   H12741833   3.433   5.449   2.552  0.3687  0.6694 -2.9775
   64MOL   H12841834   3.263   5.437   2.573  1.3566  0.7763  1.7527
   64MOL   H12941835   3.421   5.584   2.336  0.4472  0.5408 -0.3696
   64MOL   H13041836   3.248   5.595   2.356  0.5012 -0.0098  0.0329
   64MOL   H13141837   3.370   5.320   2.285  0.8350 -0.1162  3.2494
   64MOL   H13241838   3.203   5.358   2.342  0.5139 -0.9040  0.2983
   64MOL   H13341839   3.263   5.426   2.199 -0.3811 -1.7303 -0.2385
   64MOL   C13441840   3.859   5.425   3.133 -0.0587 -0.3015 -0.3981
   64MOL   C13541841   4.009   5.431   3.138  0.1055  0.0873  0.1863
   64MOL   C13641842   4.066   5.549   3.052  0.4726 -0.6723 -0.6855
   64MOL   C13741843   4.023   5.552   2.907 -0.3734  0.1951  0.8101
   64MOL   C13841844   4.060   5.689   2.863 -0.5480  0.1012 -0.2100
   64MOL   C13941845   3.961   5.806   2.894 -0.2976  0.5150 -0.0064
   64MOL   C14041846   4.013   5.946   2.834  0.4089 -0.1806 -0.2828
   64MOL   C14141847   3.909   6.062   2.852  0.0344 -0.4291  0.4391
   64MOL   C14241848   3.907   6.117   2.996 -0.3417  0.2488  0.3304
   64MOL   C14341849   3.809   6.236   3.009  0.4177  0.2039  0.0261
   64MOL   C14441850   3.786   6.266   3.157 -0.5272 -0.1235  0.0918
   64MOL   H14541851   3.833   5.339   3.196  2.5878 -0.5841  0.3574
   64MOL   H14641852   3.814   5.396   3.038  0.6846  0.4163 -0.9710
   64MOL   H14741853   4.043   5.457   3.238  0.7865  2.6112 -0.6618
   64MOL   H14841854   4.174   5.535   3.052  0.4847 -0.5955 -1.8166
   64MOL   H14941855   4.047   5.638   3.112 -1.3792  0.6803 -3.1637
   64MOL   H15041856   4.071   5.477   2.844  0.1454  2.5804 -1.7047
   64MOL   H15141857   3.914   5.545   2.901 -0.3727  0.9552 -0.1296
   64MOL   H15241858   4.165   5.712   2.883  0.0727 -0.2022 -2.9064
   64MOL   H15341859   4.051   5.695   2.755  0.9876 -1.5064 -0.4461
   64MOL   H15441860   3.860   5.785   2.858 -0.5990  0.8414  0.6396
   64MOL   H15541861   3.939   5.818   3.000 -2.2179 -0.8108 -0.2340
   64MOL   H15641862   4.111   5.987   2.856 -0.4699  1.8819 -0.0664
   64MOL   H15741863   4.013   5.925   2.727  3.1925  0.8173 -0.5034
   64MOL   H15841864   3.944   6.140   2.785 -0.8343 -1.0036 -0.7008
   64MOL   H15941865   3.813   6.020   2.822 -1.3870  4.3888 -2.2268
   64MOL   H16041866   3.873   6.041   3.066 -0.4329  3.2287  3.6840
   64MOL   H16141867   4.006   6.146   3.031  1.0774 -3.2828 -0.6036
   64MOL   H16241868   3.843   6.321   2.950  2.3798 -1.2835 -1.0643
   64MOL   H16341869   3.714   6.223   2.959  0.9405 -0.7606 -0.7374
   64MOL   H16441870   3.733   6.361   3.162  1.7015  1.3277 -2.3676
   64MOL   H16541871   3.876   6.292   3.212  0.2450  0.8155 -1.5907
   64MOL   H16641872   3.746   6.185   3.217  2.4995 -0.6597  1.4591
   64MOL   C16741873   4.069   5.296   3.087 -0.0080 -0.4656 -0.1729
   64MOL   C16841874   4.062   5.176   3.184 -0.4137  0.3376 -0.7827
   64MOL   C16941875   4.148   5.206   3.310 -0.0125 -0.0179 -0.4917
   64MOL   C17041876   4.059   5.255   3.428  0.3777 -0.0852  0.0617
   64MOL   C17141877   4.129   5.335   3.531  0.0422 -0.7060 -0.2705
   64MOL   C17241878   4.033   5.388   3.638 -0.5748  0.3209  0.2968
   64MOL   C17341879   4.112   5.457   3.757 -0.0083 -0.3226 -0.0466
   64MOL   C17441880   4.017   5.547   3.841 -0.0158 -0.2831  0.1898
   64MOL   C17541881   3.935   5.474   3.951  0.5336  0.1472  0.3648
   64MOL   C17641882   3.857   5.576   4.026  0.1039 -0.4630 -0.0715
   64MOL   C17741883   3.933   5.636   4.141  0.1197 -0.3173 -0.5604
   64MOL   H17841884   4.011   5.266   3.000  0.6981 -2.0501 -0.1211
   64MOL   H17941885   4.173   5.310   3.056  0.1666  0.0028  0.5972
   64MOL   H18041886   3.960   5.160   3.219  0.8291 -0.5167  2.6110
   64MOL   H18141887   4.228   5.278   3.289  0.7577 -0.6237  0.3232
   64MOL   H18241888   4.202   5.119   3.347  1.2522  0.4056 -1.3269
   64MOL   H18341889   3.977   5.303   3.374  1.3265 -0.0162 -1.3497
   64MOL   H18441890   4.002   5.180   3.483 -1.4351  1.4155  0.2791
   64MOL   H18541891   4.178   5.425   3.492  0.7716 -0.4519  1.2011
   64MOL   H18641892   4.208   5.273   3.573  0.3631  0.1351  0.3824
   64MOL   H18741893   3.956   5.458   3.607  1.1091  2.0795  0.0616
   64MOL   H18841894   3.980   5.305   3.686  3.1159 -2.1897  0.2052
   64MOL   H18941895   4.198   5.511   3.717  0.6998 -1.7843 -0.5806
   64MOL   H19041896   4.171   5.384   3.814  2.8436 -0.0675 -2.5115
   64MOL   H19141897   4.077   5.630   3.879  0.0613 -0.2063 -0.1007
   64MOL   H19241898   3.936   5.593   3.786  0.8711  0.7927 -0.2456
   64MOL   H19341899   4.006   5.421   4.015 -0.8590  2.3600  3.9142
   64MOL   H19441900   3.871   5.391   3.922  2.0121 -1.4293  1.5145
   64MOL   H19541901   3.767   5.530   4.068 -0.5331  1.0820  0.3108
   64MOL   H19641902   3.819   5.652   3.958 -0.3583  0.7393  1.4861
   64MOL   H19741903   3.993   5.562   4.194 -0.8189 -1.1868 -0.7142
   64MOL   H19841904   3.859   5.686   4.203 -0.6680 -3.4575  1.1128
   64MOL   H19941905   4.000   5.713   4.101  1.4865  0.1173  2.4417
   64MOL   C20041906   4.109   5.046   3.114 -0.7942 -0.7807 -0.2906
   64MOL   C20141907   4.028   4.916   3.130 -0.4429  0.5008 -0.1805
   64MOL   C20241908   3.891   4.919   3.061 -0.2324 -0.6945 -0.5261
   64MOL   C20341909   3.890   4.910   2.906  0.3586  0.3184 -1.2282
   64MOL   C20441910   3.925   4.766   2.850  0.4590 -0.0796 -0.1691
   64MOL   C20541911   3.934   4.760   2.698  0.1036  0.0382 -0.2287
   64MOL   C20641912   3.974   4.626   2.627 -0.1862 -0.8237 -0.7670
   64MOL   C20741913   3.865   4.516   2.653  0.5719  0.5309  0.1855
   64MOL   C20841914   3.873   4.401   2.562 -0.1481 -0.4052 -0.6597
   64MOL   C20941915   3.748   4.314   2.576  0.2107 -0.3983 -0.1276
   64MOL   C21041916   3.769   4.175   2.519 -0.3787 -0.4894  0.0636
   64MOL   H21141917   4.142   5.060   3.011 -0.6588  1.3577  0.0163
   64MOL   H21241918   4.198   5.011   3.168 -0.8464 -0.5471 -0.0500
   64MOL   H21341919   4.083   4.835   3.082  2.2166  0.0694  3.4248
   64MOL   H21441920   3.838   5.006   3.098  1.5134 -0.9699  2.8428
   64MOL   H21541921   3.841   4.825   3.084 -1.7571 -0.0715 -1.2213
   64MOL   H21641922   3.944   4.992   2.859  0.9808  0.4896 -0.2162
   64MOL   H21741923   3.796   4.932   2.854  0.1228  1.1261 -0.4608
   64MOL   H21841924   3.863   4.682   2.881  1.9756 -1.8835 -1.8626
   64MOL   H21941925   4.023   4.739   2.890  0.7285  1.5188  0.3008
   64MOL   H22041926   3.838   4.789   2.654  0.0348  1.7402  0.9579
   64MOL   H22141927   4.010   4.838   2.686 -1.0539  1.1609 -0.4076
   64MOL   H22241928   4.070   4.588   2.660  0.3039 -0.4320 -1.7314
   64MOL   H22341929   3.978   4.648   2.521 -0.8503 -1.8958 -1.0196
   64MOL   H22441930   3.770   4.567   2.638 -1.0435 -2.6771 -1.0542
   64MOL   H22541931   3.873   4.486   2.758 -0.3911  1.5919  0.5733
   64MOL   H22641932   3.961   4.345   2.596 -0.6060 -0.3076  0.7348
   64MOL   H22741933   3.891   4.440   2.462 -0.7877  1.8998  0.0888
   64MOL   H22841934   3.731   4.314   2.683  0.0596 -2.2118 -0.1436
   64MOL   H22941935   3.663   4.365   2.531  0.0237 -0.5470  0.0604
   64MOL   H23041936   3.853   4.117   2.557  1.5619  1.1093 -1.6730
   64MOL   H23141937   3.792   4.173   2.412  1.3131  1.8643  0.3486
   64MOL   H23241938   3.684   4.110   2.537 -1.0921  0.3453 -0.2590
   64MOL   C23341939   4.004   4.878   3.277  0.2286  0.3623 -0.1554
   64MOL   C23441940   4.062   4.738   3.304  0.3754 -0.7565 -0.0151
   64MOL   C23541941   3.997   4.689   3.431  0.1807 -0.2954  0.2979
   64MOL   C23641942   4.012   4.779   3.559 -0.4632  0.6174 -0.4548
   64MOL   C23741943   3.942   4.713   3.678  0.0269 -0.2025  0.5103
   64MOL   C23841944   3.899   4.809   3.783  0.0270 -0.0719 -0.1373
   64MOL   C23941945   4.007   4.911   3.832  0.2061  0.0257 -0.2375
   64MOL   C24041946   3.970   4.986   3.963  0.2954 -0.3835  0.0763
   64MOL   C24141947   4.077   5.075   4.028 -0.3199  0.3119  0.0090
   64MOL   C24241948   4.184   5.000   4.115 -0.4029  0.4276  0.3752
   64MOL   C24341949   4.329   5.040   4.106 -0.3037  0.4708 -0.2662
   64MOL   H24441950   3.897   4.882   3.300  0.5212  1.0065  1.1911
   64MOL   H24541951   4.048   4.954   3.342 -0.3583 -0.7953  1.6308
   64MOL   H24641952   4.028   4.673   3.223  0.5372  1.1118 -1.6363
   64MOL   H24741953   3.894   4.663   3.405  0.6163 -1.6059 -0.1061
   64MOL   H24841954   4.041   4.593   3.456  0.6549 -0.1856 -0.1148
   64MOL   H24941955   3.972   4.880   3.549 -1.7281  0.2296  0.5724
   64MOL   H25041956   4.119   4.781   3.582 -0.5610 -0.5662  0.0945
   64MOL   H25141957   4.019   4.653   3.727 -0.1522 -0.2174  0.7736
   64MOL   H25241958   3.858   4.645   3.659 -0.3126  0.6323 -1.0287
   64MOL   H25341959   3.863   4.759   3.873  2.7022 -1.6933  0.0663
   64MOL   H25441960   3.819   4.873   3.743 -1.3828 -1.1599  0.8915
   64MOL   H25541961   4.099   4.857   3.853  0.4779  0.8537  0.7232
   64MOL   H25641962   4.027   4.990   3.759 -3.4652 -0.2018 -1.5761
   64MOL   H25741963   3.879   5.043   3.949  0.9229  0.4520 -0.6718
   64MOL   H25841964   3.935   4.911   4.033 -1.0781  0.2971  0.1213
   64MOL   H25941965   4.126   5.136   3.952  0.1553 -1.6073 -1.2698
   64MOL   H26041966   4.029   5.142   4.098  0.8671  1.4401 -0.2584
   64MOL   H26141967   4.194   4.900   4.072  1.8626  0.7024  0.1861
   64MOL   H26241968   4.148   4.994   4.218  2.5868 -1.1765  1.3931
   64MOL   H26341969   4.411   4.980   4.146 -0.9722  0.3966  1.0103
   64MOL   H26441970   4.325   5.138   4.153 -1.9654  0.6126 -0.6616
   64MOL   H26541971   4.352   5.048   4.000 -1.4630 -1.1701 -0.6631
   64MOL   C26641972   4.215   4.749   3.307 -0.5278 -0.5345 -0.1043
   64MOL   C26741973   4.286   4.614   3.295 -1.3969  0.4307  0.1389
   64MOL   C26841974   4.423   4.606   3.372  0.0304  0.1450 -0.5161
   64MOL   C26941975   4.534   4.694   3.320  0.4108 -0.1527 -1.0637
   64MOL   C27041976   4.645   4.715   3.418  1.0707 -0.1047 -0.1787
   64MOL   C27141977   4.724   4.579   3.434 -0.3174 -0.2805  0.1687
   64MOL   C27241978   4.826   4.572   3.547 -0.4521 -0.4318 -0.2043
   64MOL   C27341979   4.871   4.429   3.569 -0.1929  0.1938  0.4502
   64MOL   C27441980   4.976   4.428   3.683 -0.2084  0.5732 -0.1614
   64MOL   C27541981   5.035   4.288   3.714  0.2634 -0.4579 -0.3811
   64MOL   C27641982   5.143   4.299   3.817  0.6492  0.1910  0.5007
   64MOL   H27741983   4.239   4.803   3.398  1.5959  1.5630 -1.8606
   64MOL   H27841984   4.255   4.809   3.226  1.7534 -0.8408  0.7511
   64MOL   H27941985   4.228   4.540   3.350  0.2640 -0.6115  0.5185
   64MOL   H28041986   4.411   4.615   3.480 -0.4443 -1.1392 -0.4503
   64MOL   H28141987   4.463   4.505   3.363 -1.4634 -0.6206  1.1727
   64MOL   H28241988   4.502   4.792   3.284 -1.2546 -0.0899  0.4941
   64MOL   H28341989   4.566   4.639   3.231 -0.4794  0.5587 -1.8401
   64MOL   H28441990   4.607   4.738   3.518  1.3007 -0.2019 -0.0680
   64MOL   H28541991   4.711   4.798   3.394  0.2139  1.2993  2.0669
   64MOL   H28641992   4.763   4.552   3.335 -0.4891  1.6427 -0.4451
   64MOL   H28741993   4.649   4.507   3.466  0.5181 -0.8558  0.8357
   64MOL   H28841994   4.909   4.631   3.508  0.3269 -0.6354  1.1181
   64MOL   H28941995   4.793   4.614   3.642 -0.8214  2.0949 -1.4100
   64MOL   H29041996   4.906   4.380   3.478  2.2963 -0.3963  1.6864
   64MOL   H29141997   4.790   4.364   3.603 -1.5262  1.6851  0.1916
   64MOL   H29241998   5.060   4.493   3.656 -0.2292  1.1168  1.0712
   64MOL   H29341999   4.940   4.469   3.777  0.5827  1.5705 -0.2757
   64MOL   H29442000   5.060   4.227   3.627 -1.3139 -1.0763 -0.4352
   64MOL   H29542001   4.962   4.222   3.762 -0.0889  0.6008  0.5376
   64MOL   H29642002   5.223   4.339   3.754 -1.8665  0.5719 -2.5537
   64MOL   H29742003   5.177   4.202   3.854 -0.6343 -0.9995 -1.3680
   64MOL   H29842004   5.130   4.378   3.891 -2.0483 -0.0460  0.3250
   64MOL   C29942005   4.299   4.573   3.144  0.2890  0.5034  0.6656
   64MOL   C30042006   4.316   4.428   3.114 -0.0784  0.6252  0.3887
   64MOL   C30142007   4.395   4.401   2.989  0.1459 -0.1861  0.0632
   64MOL   C30242008   4.340   4.460   2.857  0.5824 -0.2560  0.3996
   64MOL   C30342009   4.391   4.382   2.732  0.5128 -0.6051  0.7049
   64MOL   C30442010   4.299   4.403   2.605  0.1699  0.1156 -0.1006
   64MOL   C30542011   4.339   4.301   2.494  0.3041  0.0619 -0.0118
   64MOL   C30642012   4.237   4.293   2.377  0.2001  0.8881 -0.0570
   64MOL   C30742013   4.282   4.192   2.266  0.1621  0.4542  0.6544
   64MOL   C30842014   4.307   4.047   2.308  0.0298  0.6046  0.3648
   64MOL   C30942015   4.301   3.943   2.195 -0.4531 -0.6214  0.1523
   64MOL   H31042016   4.379   4.636   3.104  0.2801 -1.0333 -1.8857
   64MOL   H31142017   4.219   4.619   3.087 -0.7634 -3.1115 -0.9278
   64MOL   H31242018   4.380   4.384   3.190  1.0558  2.8879  0.7909
   64MOL   H31342019   4.499   4.426   3.008  0.2306 -2.0854  2.3093
   64MOL   H31442020   4.400   4.293   2.976 -0.2965 -0.0285 -1.4657
   64MOL   H31542021   4.232   4.471   2.855  0.6280  0.0865 -2.1781
   64MOL   H31642022   4.374   4.563   2.852 -0.9388  0.2469  0.0863
   64MOL   H31742023   4.498   4.397   2.718  0.0742  0.4422 -1.9003
   64MOL   H31842024   4.377   4.275   2.748  1.0847 -0.6900  0.6461
   64MOL   H31942025   4.303   4.504   2.564  0.0631  0.2057  0.1079
   64MOL   H32042026   4.194   4.380   2.626  1.0979 -1.3295  3.3067
   64MOL   H32142027   4.435   4.329   2.451  1.2842 -3.9062 -0.6605
   64MOL   H32242028   4.346   4.202   2.539 -1.1580  0.2518  0.6737
   64MOL   H32342029   4.216   4.386   2.324  1.4580  0.5272 -1.2268
   64MOL   H32442030   4.136   4.272   2.412  0.9730 -1.8709  0.6686
   64MOL   H32542031   4.378   4.221   2.225  0.0771 -0.4633 -0.2349
   64MOL   H32642032   4.210   4.192   2.184  1.5147  0.5338 -0.5525
   64MOL   H32742033   4.237   4.018   2.386 -1.1172  1.3329 -0.3809
   64MOL   H32842034   4.396   4.040   2.371  1.1149 -1.2698 -1.3222
   64MOL   H32942035   4.385   3.944   2.125 -1.5667  2.2163 -1.1924
   64MOL   H33042036   4.300   3.838   2.225 -0.1166 -1.1910 -1.7725
   64MOL   H33142037   4.212   3.958   2.134  0.4416 -0.9452 -1.2628
   64MOL   C33242038   4.170   4.364   3.107  0.2161 -0.4004 -0.0506
   64MOL   C33342039   4.165   4.208   3.126 -0.4082 -0.3446 -0.1113
   64MOL   C33442040   4.106   4.129   3.003 -0.5249  0.3249 -0.2597
   64MOL   C33542041   4.190   4.140   2.873 -0.5930  0.0865 -0.2296
   64MOL   C33642042   4.134   4.068   2.753 -0.1492  0.9014 -0.1482
   64MOL   C33742043   4.194   3.930   2.738 -0.1056 -0.0109 -0.2663
   64MOL   C33842044   4.103   3.839   2.663 -0.2811  0.6310 -0.1936
   64MOL   C33942045   4.182   3.713   2.609 -0.3436  0.3855 -0.1912
   64MOL   C34042046   4.105   3.581   2.616  0.1584  0.6251 -0.3959
   64MOL   C34142047   3.975   3.582   2.532  0.1776 -0.1657 -0.5688
   64MOL   C34242048   3.864   3.490   2.575 -0.4288  0.7025  0.1205
   64MOL   H34342049   4.108   4.410   3.184 -0.9556 -2.1671  0.0979
   64MOL   H34442050   4.121   4.396   3.016 -2.8335 -1.0688  1.2950
   64MOL   H34542051   4.269   4.175   3.131 -1.2810 -3.1577 -0.1264
   64MOL   H34642052   4.007   4.169   2.985 -0.4569  0.5092 -0.2248
   64MOL   H34742053   4.096   4.024   3.032  1.2933 -0.4470 -2.2643
   64MOL   H34842054   4.186   4.245   2.843 -1.2812 -0.3867 -1.8508
   64MOL   H34942055   4.294   4.112   2.891 -0.9246 -2.6726 -2.3499
   64MOL   H35042056   4.026   4.070   2.763 -0.0838 -1.0633  1.3892
   64MOL   H35142057   4.152   4.114   2.656  0.3603  0.2384 -0.3735
   64MOL   H35242058   4.197   3.881   2.835  2.1501  0.3141 -0.1543
   64MOL   H35342059   4.290   3.942   2.689  0.7039  1.2809  1.5969
   64MOL   H35442060   4.050   3.882   2.578  2.5185  3.6677 -0.5060
   64MOL   H35542061   4.019   3.810   2.727  0.1892 -1.2536 -0.3904
   64MOL   H35642062   4.222   3.733   2.509  2.6556  2.8119  1.4079
   64MOL   H35742063   4.275   3.691   2.660 -1.6610 -1.5005  1.4809
   64MOL   H35842064   4.088   3.557   2.721  2.2609 -0.2801 -0.2351
   64MOL   H35942065   4.177   3.506   2.584  3.0225  2.7431  0.8668
   64MOL   H36042066   3.990   3.571   2.425 -2.3805  2.3835 -1.2627
   64MOL   H36142067   3.927   3.679   2.545  0.6079 -0.1423  0.9127
   64MOL   H36242068   3.853   3.489   2.684  0.7701  0.2707  0.2415
   64MOL   H36342069   3.762   3.520   2.549 -0.8772  1.2182  2.2918
   64MOL   H36442070   3.885   3.393   2.531  0.7293  0.6639  0.7582
   64MOL   C36542071   4.094   4.170   3.262 -0.1089  0.0156  0.1119
   64MOL   C36642072   4.187   4.204   3.390  0.1738 -0.0252 -0.6222
   64MOL   C36742073   4.108   4.200   3.523 -0.7546 -0.9372 -0.0055
   64MOL   C36842074   4.022   4.320   3.557  0.1119  0.5554 -0.1795
   64MOL   C36942075   3.920   4.289   3.671 -0.3355 -0.4037  0.7809
   64MOL   C37042076   3.966   4.245   3.812  0.2927  0.6296 -0.4453
   64MOL   C37142077   3.868   4.240   3.932  0.4012  0.2249 -0.7426
   64MOL   C37242078   3.826   4.387   3.963 -0.0461 -0.7673 -0.0569
   64MOL   C37342079   3.681   4.403   4.019 -0.1563 -0.2317 -0.1445
   64MOL   C37442080   3.655   4.554   4.048 -0.2527  0.9490 -0.6016
   64MOL   C37542081   3.526   4.557   4.130  0.0920  0.5204 -0.0175
   64MOL   H37642082   3.996   4.217   3.272  0.7934  2.0266 -0.3305
   64MOL   H37742083   4.064   4.065   3.266 -0.4253  0.1000 -0.0296
   64MOL   H37842084   4.232   4.303   3.389  1.5102 -0.6276 -0.6901
   64MOL   H37942085   4.169   4.171   3.609  0.3382 -0.2696 -0.5481
   64MOL   H38042086   4.039   4.116   3.517 -0.6225 -1.0086 -0.5133
   64MOL   H38142087   3.962   4.353   3.473  0.8590 -0.2925 -1.0664
   64MOL   H38242088   4.095   4.393   3.590  1.4204 -0.9317  0.3065
   64MOL   H38342089   3.857   4.215   3.620 -0.5447  1.4909 -1.7878
   64MOL   H38442090   3.856   4.376   3.686 -2.7118 -1.7859 -0.8347
   64MOL   H38542091   4.044   4.310   3.851  0.7422 -0.2401  0.1222
   64MOL   H38642092   4.010   4.146   3.801 -0.8836 -0.0112  0.4176
   64MOL   H38742093   3.778   4.191   3.894 -0.2191 -0.9148  2.1175
   64MOL   H38842094   3.905   4.190   4.021  1.7296  1.1471 -0.7669
   64MOL   H38942095   3.829   4.449   3.874 -1.2838 -1.6437 -0.7236
   64MOL   H39042096   3.899   4.428   4.033 -0.8605  1.1523 -0.2886
   64MOL   H39142097   3.604   4.370   3.950 -1.5851  0.7713  0.9221
   64MOL   H39242098   3.673   4.350   4.114 -0.0337  0.0151  0.0070
   64MOL   H39342099   3.734   4.591   4.113  1.1423 -0.7738 -1.2772
   64MOL   H39442100   3.656   4.608   3.953 -1.4677 -1.2257 -1.8964
   64MOL   H39542101   3.526   4.495   4.219 -0.4555 -0.6126 -0.7838
   64MOL   H39642102   3.441   4.512   4.078  0.1599  0.5662 -0.1706
   64MOL   H39742103   3.502   4.660   4.154  1.1741  1.7132 -3.6601
   64MOL   C39842104   4.314   4.116   3.386  0.2879  0.0812 -0.3048
   64MOL   C39942105   4.407   4.121   3.511  0.1810  0.5739 -0.6983
   64MOL   C40042106   4.436   4.262   3.573  0.3707 -0.5274 -0.0891
   64MOL   C40142107   4.516   4.276   3.704 -0.5234 -0.5445  0.0720
   64MOL   C40242108   4.439   4.219   3.820 -0.4374  0.0777 -0.0853
   64MOL   C40342109   4.518   4.216   3.954 -0.2230 -0.0023 -0.2215
   64MOL   C40442110   4.609   4.091   3.965 -0.5107  1.2364 -0.6424
   64MOL   C40542111   4.705   4.102   4.086  0.5948 -0.1152  0.1425
   64MOL   C40642112   4.832   4.189   4.061 -0.2132 -0.4693  0.2174
   64MOL   C40742113   4.952   4.162   4.154 -0.0739 -0.2542  0.1811
   64MOL   C40842114   5.028   4.035   4.114 -0.1720 -0.1342 -0.2251
   64MOL   H40942115   4.376   4.162   3.310  1.6678  0.3516  0.9598
   64MOL   H41042116   4.301   4.014   3.348  0.0867 -0.0400  0.0811
   64MOL   H41142117   4.354   4.055   3.580  1.5447 -3.1917 -3.0596
   64MOL   H41242118   4.352   4.331   3.573 -0.6681 -1.7869  0.9150
   64MOL   H41342119   4.506   4.309   3.503  1.0083 -3.5442 -1.5652
   64MOL   H41442120   4.619   4.241   3.703  0.9527  3.5145 -1.7675
   64MOL   H41542121   4.521   4.382   3.731  1.9283 -0.7899  0.6973
   64MOL   H41642122   4.352   4.284   3.823 -0.0671  0.6163 -0.6760
   64MOL   H41742123   4.410   4.115   3.807  0.1318 -0.1578  0.4661
   64MOL   H41842124   4.443   4.193   4.030 -0.5842 -0.6822 -0.7686
   64MOL   H41942125   4.561   4.309   3.990 -0.4067  0.9136 -2.2985
   64MOL   H42042126   4.544   4.004   3.974 -1.7920  1.9737 -2.5270
   64MOL   H42142127   4.667   4.073   3.875  0.3598  1.5898 -0.1526
   64MOL   H42242128   4.726   4.000   4.120 -0.3145 -0.4229 -0.1917
   64MOL   H42342129   4.648   4.141   4.170  0.3696 -0.6992  0.2604
   64MOL   H42442130   4.867   4.178   3.958 -2.3157 -0.7324 -0.5036
   64MOL   H42542131   4.803   4.294   4.059  0.9096 -0.1605 -0.3792
   64MOL   H42642132   4.921   4.147   4.258 -1.2750  0.6283 -0.0396
   64MOL   H42742133   5.021   4.246   4.160  0.8373 -0.9670 -0.1870
   64MOL   H42842134   5.081   4.004   4.204  1.2468  2.8489  0.0174
   64MOL   H42942135   5.100   4.057   4.036  0.4916 -0.7128  0.2154
   64MOL   H43042136   4.956   3.954   4.100  0.3725 -1.0251  1.9290
   64MOL   C43142137   4.535   4.045   3.479  0.3535 -0.1546  0.1721
   64MOL   C43242138   4.524   3.892   3.475 -0.0866  0.4480  0.1410
   64MOL   C43342139   4.566   3.840   3.615 -0.3216 -0.1025  0.4107
   64MOL   C43442140   4.717   3.843   3.656  0.0572  0.1516  0.2507
   64MOL   C43542141   4.742   3.765   3.783  0.2513 -0.1769  0.0470
   64MOL   C43642142   4.876   3.791   3.843 -0.0786 -0.2646 -0.3192
   64MOL   C43742143   4.953   3.660   3.877 -0.3167  0.3704  0.3164
   64MOL   C43842144   4.894   3.570   3.989  0.0807  0.4620  0.2262
   64MOL   C43942145   4.884   3.637   4.130 -0.1139 -1.1568  0.0733
   64MOL   C44042146   4.863   3.531   4.238 -0.5644  0.3048  0.2594
   64MOL   C44142147   4.835   3.595   4.381  0.1142 -0.4799  0.2852
   64MOL   H44242148   4.607   4.080   3.553  0.9169 -1.3950  0.2205
   64MOL   H44342149   4.591   4.089   3.397  2.0896 -1.7387  0.4551
   64MOL   H44442150   4.421   3.864   3.454  0.2295  0.4457 -1.5342
   64MOL   H44542151   4.516   3.902   3.690  1.2842  1.2270  0.4017
   64MOL   H44642152   4.543   3.733   3.606 -0.8253  0.1532 -1.6645
   64MOL   H44742153   4.735   3.949   3.676 -0.2421  0.3771 -0.6625
   64MOL   H44842154   4.789   3.813   3.580  0.9388  0.0565  1.1079
   64MOL   H44942155   4.730   3.661   3.752 -0.2881  0.5185 -2.1760
   64MOL   H45042156   4.674   3.777   3.866  0.3854  0.0863  0.1189
   64MOL   H45142157   4.857   3.850   3.933 -0.7209 -1.2151  0.1805
   64MOL   H45242158   4.938   3.860   3.786 -0.2262 -0.1944 -0.3946
   64MOL   H45342159   5.051   3.690   3.916 -0.6229  0.9746  0.6277
   64MOL   H45442160   4.980   3.600   3.791  0.0605  0.4182  0.3990
   64MOL   H45542161   4.798   3.539   3.949  1.0255  0.3143 -2.0206
   64MOL   H45642162   4.949   3.477   4.001 -0.2718  0.5666  2.8857
   64MOL   H45742163   4.796   3.701   4.123  1.3137  1.0936  2.0959
   64MOL   H45842164   4.966   3.706   4.147 -0.9539 -0.4380  1.2392
   64MOL   H45942165   4.948   3.463   4.235 -0.2282  0.7273  0.2054
   64MOL   H46042166   4.774   3.473   4.214 -0.7979 -0.3248  2.5351
   64MOL   H46142167   4.798   3.523   4.455 -1.2773  1.4077  1.4689
   64MOL   H46242168   4.928   3.630   4.423 -0.7363  3.3515 -0.8579
   64MOL   H46342169   4.781   3.689   4.379  3.3943  1.4607 -0.6866
   64MOL   C46442170   4.604   3.824   3.357  1.1060 -0.1430 -0.9509
   64MOL   C46542171   4.609   3.667   3.363 -0.8786 -0.4129  1.1037
   64MOL   C46642172   4.464   3.609   3.352  0.4223 -0.4714  0.2316
   64MOL   C46742173   4.401   3.643   3.216  0.3302 -0.2080  0.1471
   64MOL   C46842174   4.272   3.576   3.179  0.1131  0.4665  0.5464
   64MOL   C46942175   4.194   3.645   3.063  0.7197  0.0681  0.0967
   64MOL   C47042176   4.051   3.596   3.045  0.9080  0.7000  0.2945
   64MOL   C47142177   4.025   3.442   3.046 -0.8136 -0.0096  0.3956
   64MOL   C47242178   3.877   3.410   3.058 -0.3047 -0.2757 -0.4069
   64MOL   C47342179   3.854   3.257   3.068  0.0211  0.0161 -0.9412
   64MOL   C47442180   3.894   3.164   2.954  0.5803 -0.3682 -0.4165
   64MOL   H47542181   4.708   3.855   3.349  1.5361 -1.2358  0.2218
   64MOL   H47642182   4.552   3.853   3.266 -0.9461  0.7256  0.4337
   64MOL   H47742183   4.661   3.645   3.456  0.3784 -1.1605  0.2489
   64MOL   H47842184   4.403   3.637   3.438  1.5223  0.1653  0.8172
   64MOL   H47942185   4.474   3.500   3.354  1.6324 -0.3772 -0.2541
   64MOL   H48042186   4.382   3.751   3.214  0.3237 -0.2316 -2.7388
   64MOL   H48142187   4.462   3.615   3.131 -3.1063 -3.0798 -1.4936
   64MOL   H48242188   4.218   3.570   3.273  2.0462 -0.6390  1.6037
   64MOL   H48342189   4.293   3.472   3.158 -0.7146  0.5171 -0.5945
   64MOL   H48442190   4.194   3.751   3.087 -1.8112  0.4857 -1.5773
   64MOL   H48542191   4.249   3.630   2.970  0.2657 -3.1848  0.2926
   64MOL   H48642192   3.990   3.642   3.122  0.3093 -0.6138  0.6024
   64MOL   H48742193   4.014   3.656   2.962  0.8379 -0.4111 -0.4849
   64MOL   H48842194   4.070   3.413   2.951  0.5860 -0.3756  1.1560
   64MOL   H48942195   4.081   3.396   3.128 -0.0518  0.4301  0.1277
   64MOL   H49042196   3.830   3.449   3.148  3.0135  0.1635  1.2172
   64MOL   H49142197   3.827   3.462   2.976 -0.9692 -1.5005 -0.8037
   64MOL   H49242198   3.914   3.224   3.153 -0.8775 -0.4722 -0.4925
   64MOL   H49342199   3.748   3.243   3.088 -0.0168  1.0005 -0.4291
   64MOL   H49442200   3.994   3.173   2.912  0.8437 -0.2030  0.2500
   64MOL   H49542201   3.824   3.171   2.870  0.8792 -1.1251 -0.7340
   64MOL   H49642202   3.888   3.060   2.986 -1.0391 -0.6957 -1.7103
   64MOL   C49742203   4.710   3.618   3.258  0.0809 -0.1186 -0.1314
   64MOL   C49842204   4.722   3.466   3.241 -0.1978  0.5980 -0.1686
   64MOL   C49942205   4.742   3.392   3.376 -0.5551 -0.3198 -0.1326
   64MOL   C50042206   4.761   3.238   3.368 -0.1816  0.8487  0.1882
   64MOL   C50142207   4.772   3.168   3.502  0.2949  0.5851 -0.4239
   64MOL   C50242208   4.654   3.174   3.593 -0.7017 -0.1361  0.4452
   64MOL   C50342209   4.692   3.118   3.732 -0.5531  0.2634  0.3814
   64MOL   C50442210   4.584   3.145   3.832  0.2997 -0.2519  0.9481
   64MOL   C50542211   4.626   3.103   3.976  0.7467  0.1711 -0.0774
   64MOL   C50642212   4.725   3.204   4.047 -0.4858  0.5793 -0.0200
   64MOL   C50742213   4.779   3.147   4.181  0.0888  0.2057 -0.2493
   64MOL   H50842214   4.698   3.667   3.162  0.4233 -0.9691 -0.6140
   64MOL   H50942215   4.807   3.652   3.295  0.1394  2.5152 -2.5811
   64MOL   H51042216   4.625   3.440   3.198  0.1945 -2.3253  0.5719
   64MOL   H51142217   4.666   3.420   3.449 -0.4096 -1.1998  0.3637
   64MOL   H51242218   4.839   3.432   3.408 -0.8963 -0.3700  0.9862
   64MOL   H51342219   4.850   3.207   3.313 -0.7998 -3.2431  1.3213
   64MOL   H51442220   4.677   3.180   3.328 -0.8789  2.4073 -0.6810
   64MOL   H51542221   4.792   3.062   3.486  0.9494  0.6721 -0.2229
   64MOL   H51642222   4.860   3.212   3.550  0.8101 -1.0130  0.1337
   64MOL   H51742223   4.611   3.274   3.591  0.0105  0.1462 -1.1873
   64MOL   H51842224   4.590   3.100   3.547  0.6645 -1.4769  0.6549
   64MOL   H51942225   4.711   3.012   3.719  0.0151  0.4000  0.0726
   64MOL   H52042226   4.786   3.155   3.773 -0.6191 -1.5699  2.2420
   64MOL   H52142227   4.492   3.093   3.808 -0.0379  1.1008 -0.8240
   64MOL   H52242228   4.555   3.250   3.828 -0.4742 -0.4681  0.8295
   64MOL   H52342229   4.661   3.000   3.984  1.2861  0.5079  2.2392
   64MOL   H52442230   4.532   3.101   4.031  0.6947 -0.3256 -0.1769
   64MOL   H52542231   4.669   3.297   4.064  2.4575  2.4039 -0.0175
   64MOL   H52642232   4.806   3.232   3.980 -0.8797  3.0830  0.4838
   64MOL   H52742233   4.837   3.056   4.167  0.7270  0.3664  1.2741
   64MOL   H52842234   4.703   3.128   4.256 -0.4265  0.9912 -0.5659
   64MOL   H52942235   4.842   3.222   4.229  1.7309 -0.9613 -0.5560
   64MOL   C53042236   4.827   3.419   3.135  0.3024  0.2546 -0.3597
   64MOL   C53142237   4.833   3.490   2.995  0.2027 -0.3211  0.5359
   64MOL   C53242238   4.705   3.448   2.913  0.7934 -0.1796 -0.0699
   64MOL   C53342239   4.681   3.554   2.812  0.8914 -0.2389  0.5702
   64MOL   C53442240   4.585   3.673   2.857  0.3880 -0.3862 -0.2015
   64MOL   C53542241   4.582   3.796   2.766 -0.3718 -0.7123  0.1610
   64MOL   C53642242   4.547   3.923   2.846  0.6824 -0.5326 -1.0200
   64MOL   C53742243   4.664   3.973   2.931 -0.5263  0.0508 -0.0730
   64MOL   C53842244   4.631   4.107   3.007  0.3349  0.1473  0.9428
   64MOL   C53942245   4.751   4.156   3.087 -0.4024 -0.1082  0.0163
   64MOL   C54042246   4.720   4.271   3.183 -0.2743 -0.8285 -0.2283
   64MOL   H54142247   4.923   3.419   3.188  1.2443 -0.3221 -2.0336
   64MOL   H54242248   4.800   3.316   3.112 -0.2578  0.6382 -1.4212
   64MOL   H54342249   4.822   3.597   3.009  1.9149  0.3300 -2.6238
   64MOL   H54442250   4.620   3.430   2.979  0.1225 -0.1171 -0.8939
   64MOL   H54542251   4.720   3.362   2.847  0.2819  0.2614 -0.7619
   64MOL   H54642252   4.639   3.512   2.720 -1.0403 -0.3928  1.4869
   64MOL   H54742253   4.774   3.600   2.778 -1.3524  1.6489 -3.4729
   64MOL   H54842254   4.624   3.703   2.954  1.1253 -0.9139 -0.3324
   64MOL   H54942255   4.481   3.645   2.875  0.2582 -0.2898 -0.7783
   64MOL   H55042256   4.508   3.789   2.687 -1.4501 -0.4896  1.1367
   64MOL   H55142257   4.681   3.819   2.727 -1.4132 -1.1080 -2.8322
   64MOL   H55242258   4.450   3.919   2.894  0.7596 -1.2343 -0.9304
   64MOL   H55342259   4.536   4.006   2.776  0.7333 -0.4794 -0.9645
   64MOL   H55442260   4.755   3.984   2.872 -1.4048  1.4197 -1.2124
   64MOL   H55542261   4.684   3.896   3.006  1.5653  0.4598 -0.1829
   64MOL   H55642262   4.549   4.089   3.076 -0.8456  1.1386 -0.1489
   64MOL   H55742263   4.601   4.189   2.941 -0.3064 -3.0899 -3.0007
   64MOL   H55842264   4.829   4.191   3.019 -0.7040  0.7416  0.1059
   64MOL   H55942265   4.800   4.076   3.143  0.7148  0.2079 -0.4848
   64MOL   H56042266   4.692   4.365   3.135  2.0478 -0.6102 -1.2665
   64MOL   H56142267   4.633   4.258   3.246 -0.2746 -2.1433 -0.4884
   64MOL   H56242268   4.805   4.287   3.249 -0.4331 -1.8829  0.2309
   64MOL   C56342269   4.970   3.466   2.927 -0.4098 -1.8336 -0.0083
   64MOL   C56442270   5.098   3.521   2.990 -0.3110  0.3843  0.5289
   64MOL   C56542271   5.096   3.666   3.035 -0.0198  0.6513 -0.1888
   64MOL   C56642272   5.079   3.767   2.918 -0.1223 -0.2568 -0.0029
   64MOL   C56742273   5.040   3.903   2.979 -0.7257 -0.3459  0.6422
   64MOL   C56842274   5.144   3.950   3.080 -0.1062  0.0458 -0.2019
   64MOL   C56942275   5.143   4.102   3.106  0.8867  0.4153 -0.4266
   64MOL   C57042276   5.200   4.150   3.239  0.3609  0.0815 -0.2232
   64MOL   C57142277   5.213   4.300   3.243  0.4024  0.4798  0.6011
   64MOL   C57242278   5.261   4.368   3.377  0.3755  0.1705 -0.1925
   64MOL   C57342279   5.254   4.517   3.362 -0.1088  0.1611  0.4874
   64MOL   H57442280   4.970   3.497   2.822 -2.5687  1.2117  0.8225
   64MOL   H57542281   4.982   3.358   2.925  1.0192 -1.7083  0.8307
   64MOL   H57642282   5.117   3.469   3.085 -2.0777 -1.5949 -0.1604
   64MOL   H57742283   5.189   3.673   3.091 -0.5691 -0.6185  0.9230
   64MOL   H57842284   5.015   3.688   3.105  0.8301  2.8697  0.0994
   64MOL   H57942285   5.006   3.737   2.843 -1.2948  0.7431  0.7124
   64MOL   H58042286   5.173   3.784   2.865 -0.6894  0.4513 -0.7987
   64MOL   H58142287   4.940   3.899   3.021 -0.5056  1.0869  1.3238
   64MOL   H58242288   5.026   3.975   2.898  0.3937 -1.4991 -0.6224
   64MOL   H58342289   5.118   3.898   3.172  0.7771  0.4712  0.2876
   64MOL   H58442290   5.241   3.914   3.047  0.0409 -0.1338  0.4170
   64MOL   H58542291   5.193   4.152   3.023  0.1635  1.6626 -0.1215
   64MOL   H58642292   5.039   4.135   3.107  1.3920  1.9981  0.5552
   64MOL   H58742293   5.298   4.103   3.253  0.6650  0.9191  0.5747
   64MOL   H58842294   5.140   4.116   3.324 -0.1373  1.1922 -0.1289
   64MOL   H58942295   5.111   4.333   3.222  0.0819 -0.4648  0.6327
   64MOL   H59042296   5.277   4.344   3.167 -0.2329  1.8534  0.8485
   64MOL   H59142297   5.366   4.345   3.393  0.1944  1.0574  2.4617
   64MOL   H59242298   5.194   4.341   3.459  0.3681 -1.0674 -0.5864
   64MOL   H59342299   5.301   4.571   3.444 -1.3722 -1.6279  2.4352
   64MOL   H59442300   5.303   4.536   3.266 -0.2794  2.2720  0.7958
   64MOL   H59542301   5.150   4.549   3.352  0.1863  0.4949 -1.7596
   64MOL   C59642302   5.223   3.488   2.896 -0.2865 -0.1281  0.3094
   64MOL   C59742303   5.248   3.351   2.830 -0.6438 -0.5562 -0.2119
   64MOL   C59842304   5.248   3.223   2.915  0.3078 -0.8586  0.5435
   64MOL   C59942305   5.242   3.095   2.837 -0.3723  0.2475  0.6175
   64MOL   C60042306   5.251   2.970   2.932  0.3517 -0.5207  0.3818
   64MOL   C60142307   5.241   2.846   2.847 -0.2289  0.1303 -0.4390
   64MOL   C60242308   5.102   2.808   2.786 -0.7784 -0.4888  0.2603
   64MOL   C60342309   5.097   2.657   2.740 -0.0975  0.0964 -0.4248
   64MOL   C60442310   4.955   2.596   2.731 -0.8467  0.0883 -0.1688
   64MOL   C60542311   4.936   2.459   2.660  0.3055  0.5252  0.3301
   64MOL   C60642312   4.987   2.337   2.745  0.0957  0.0331  0.1142
   64MOL   H60742313   5.220   3.558   2.813  0.9464 -1.0869 -0.5523
   64MOL   H60842314   5.310   3.505   2.960  0.3489 -0.7603 -0.3863
   64MOL   H60942315   5.164   3.347   2.761  0.3716  0.6085 -1.5428
   64MOL   H61042316   5.159   3.217   2.978 -0.2924  1.8643 -0.0212
   64MOL   H61142317   5.336   3.222   2.980  1.6846 -1.1133 -1.2847
   64MOL   H61242318   5.323   3.090   2.764 -0.7260 -0.1285  0.2508
   64MOL   H61342319   5.149   3.096   2.781 -0.1618 -1.7672  0.1985
   64MOL   H61442320   5.175   2.988   3.007  1.7262  1.6034  1.3326
   64MOL   H61542321   5.343   2.952   2.988  1.6887  1.9962 -0.8869
   64MOL   H61642322   5.313   2.851   2.765  1.4143 -1.0830  0.9074
   64MOL   H61742323   5.266   2.764   2.914 -0.3262  0.8175  0.4431
   64MOL   H61842324   5.076   2.881   2.709  1.1877  0.8348  0.8132
   64MOL   H61942325   5.022   2.815   2.859 -1.8213  2.7140 -1.1188
   64MOL   H62042326   5.154   2.591   2.806 -1.3313  1.1704  1.7656
   64MOL   H62142327   5.164   2.643   2.655 -1.2631 -0.6904 -1.2292
   64MOL   H62242328   4.915   2.578   2.831 -1.8035 -2.6588 -0.9719
   64MOL   H62342329   4.889   2.661   2.674 -0.9289 -2.2591 -2.8665
   64MOL   H62442330   4.994   2.465   2.568 -2.0070  1.1561 -1.1365
   64MOL   H62542331   4.829   2.446   2.640  0.1989  0.2835  1.0260
   64MOL   H62642332   4.956   2.239   2.706  0.0929 -0.0122  0.2292
   64MOL   H62742333   5.095   2.339   2.752  0.3313 -0.0781 -2.9437
   64MOL   H62842334   4.941   2.345   2.843  0.0641 -1.2333  0.2122
   64MOL   C62942335   5.366   3.366   2.735 -0.1811 -0.1836 -0.0047
   64MOL   C63042336   5.506   3.386   2.795 -0.1058  0.2215 -0.2865
   64MOL   C63142337   5.613   3.430   2.697  0.4378  0.3911 -0.2765
   64MOL   C63242338   5.742   3.478   2.754  0.5664 -0.9385 -0.4702
   64MOL   C63342339   5.835   3.527   2.642  0.5034  0.6052  0.5719
   64MOL   C63442340   5.943   3.612   2.706  0.5048  0.0419  0.4731
   64MOL   C63542341   6.057   3.650   2.611  0.3430 -0.3709  0.0233
   64MOL   C63642342   6.180   3.705   2.690 -0.6220 -0.1109  0.4069
   64MOL   C63742343   6.278   3.779   2.597  0.1396 -0.6667  0.6710
   64MOL   C63842344   6.408   3.827   2.655  0.2924 -0.1650 -0.7440
   64MOL   C63942345   6.504   3.886   2.552 -0.0193 -0.6459 -0.1713
   64MOL   H64042346   5.383   3.276   2.676 -1.2962 -0.9204  0.7549
   64MOL   H64142347   5.344   3.450   2.668  0.2574  0.2020  0.3347
   64MOL   H64242348   5.499   3.459   2.875  2.1280  1.1041 -0.8531
   64MOL   H64342349   5.623   3.353   2.621 -2.2565 -0.6065  0.3298
   64MOL   H64442350   5.565   3.513   2.647 -1.0003  0.4222  1.0954
   64MOL   H64542351   5.799   3.405   2.811  0.3751  0.1750  1.1991
   64MOL   H64642352   5.718   3.555   2.828  0.1632  0.3259 -1.8837
   64MOL   H64742353   5.765   3.580   2.578  1.6963 -1.2756 -2.3906
   64MOL   H64842354   5.872   3.442   2.585 -0.1209  1.6995 -1.4841
   64MOL   H64942355   5.985   3.552   2.787 -2.2192 -0.7513  1.3407
   64MOL   H65042356   5.902   3.701   2.754  1.9876  1.1637 -0.2753
   64MOL   H65142357   6.027   3.715   2.529 -0.6980 -0.3196  0.4393
   64MOL   H65242358   6.101   3.561   2.566  2.4782  0.9083 -0.4692
   64MOL   H65342359   6.228   3.620   2.738 -0.9328  0.1269  1.1461
   64MOL   H65442360   6.168   3.753   2.787  0.1040 -1.0511  0.9755
   64MOL   H65542361   6.222   3.865   2.559  0.0956 -0.5830  0.9240
   64MOL   H65642362   6.296   3.731   2.501  1.0779 -0.8296  0.9226
   64MOL   H65742363   6.456   3.744   2.706 -0.9161 -2.0352 -2.5695
   64MOL   H65842364   6.374   3.905   2.724  0.9030 -1.2796  0.8375
   64MOL   H65942365   6.506   3.816   2.469 -0.7787 -1.0237  0.1216
   64MOL   H66042366   6.601   3.882   2.602  0.2484 -1.3899 -0.7311
   64MOL   H66142367   6.476   3.984   2.515 -0.2548 -0.0973  1.4023
   64MOL   H66242368   5.539   3.291   2.836  2.3127  1.4700  0.8076
   65MOL     C142369   3.621   7.197   4.463  0.6323  0.4586  0.3651
   65MOL     C242370   3.751   7.259   4.523 -0.2708  0.3132  0.4870
   65MOL     C342371   3.818   7.362   4.428 -0.5382 -0.0306 -0.3527
   65MOL     C442372   3.899   7.280   4.324 -0.5865  0.2735 -0.3526
   65MOL     C542373   3.925   7.366   4.197  0.6668  0.4618  0.1093
   65MOL     C642374   3.999   7.289   4.084  0.1888  0.1327 -0.2407
   65MOL     C742375   4.088   7.377   3.991 -0.1051  0.0879 -0.1291
   65MOL     C842376   4.006   7.424   3.873 -0.2155  0.4752 -0.2773
   65MOL     C942377   4.081   7.492   3.751 -0.0646  0.5696  0.0333
   65MOL    C1042378   4.149   7.632   3.782 -0.3227  0.4990 -1.0437
   65MOL    C1142379   4.204   7.701   3.660 -0.0290  0.4463 -0.0139
   65MOL    H1242380   3.526   7.250   4.477  1.0641  1.0648  1.0171
   65MOL    H1342381   3.599   7.101   4.511 -2.5529  0.4481 -1.0066
   65MOL    H1442382   3.826   7.182   4.541 -0.2982  0.2276  0.2388
   65MOL    H1542383   3.878   7.430   4.488  0.0838 -0.5379 -0.3995
   65MOL    H1642384   3.742   7.422   4.378  1.5659  2.8035 -0.2464
   65MOL    H1742385   3.857   7.187   4.287 -0.3242  1.0023 -2.5741
   65MOL    H1842386   3.991   7.254   4.376 -1.2277 -0.1064  0.5959
   65MOL    H1942387   3.838   7.423   4.166  0.3937  0.3364  0.6581
   65MOL    H2042388   3.994   7.438   4.242 -0.0681  1.0633  0.2676
   65MOL    H2142389   3.926   7.228   4.031 -1.2869  0.0354  1.8307
   65MOL    H2242390   4.070   7.218   4.127  0.3901  1.5074  1.7699
   65MOL    H2342391   4.142   7.454   4.047  1.7823 -2.5308  1.7735
   65MOL    H2442392   4.149   7.306   3.937  2.7581  1.2644  1.4635
   65MOL    H2542393   3.933   7.498   3.908  0.0046  1.1238 -1.1729
   65MOL    H2642394   3.945   7.342   3.836  1.5886 -1.2245  0.4422
   65MOL    H2742395   4.002   7.504   3.678  0.9025 -0.9818 -1.3168
   65MOL    H2842396   4.152   7.424   3.704 -1.1402 -0.9902  0.6299
   65MOL    H2942397   4.227   7.616   3.857  0.9083 -0.6368 -2.5292
   65MOL    H3042398   4.072   7.692   3.830 -0.3792  0.2580 -0.8318
   65MOL    H3142399   4.269   7.635   3.602  1.9719  2.8849 -0.6451
   65MOL    H3242400   4.118   0.042   3.610 -0.1426  0.4154  0.1548
   65MOL    H3342401   4.260   0.087   3.687  0.3080  0.3809 -0.4951
   65MOL    H3442402   3.617   7.176   4.356  0.1843  2.1599  0.0299
   65MOL    C3542403   3.717   7.307   4.669 -0.6189 -0.0503 -1.1663
   65MOL    C3642404   3.717   7.190   4.768  0.2033 -1.1026 -0.3906
   65MOL    C3742405   3.857   7.171   4.829 -0.1469 -0.8291  0.4119
   65MOL    C3842406   3.883   7.030   4.886 -0.1423 -0.1231 -0.7578
   65MOL    C3942407   4.037   7.004   4.904 -0.2533 -0.1621  0.1168
   65MOL    C4042408   4.087   6.863   4.934 -0.4895  0.0477 -0.7247
   65MOL    C4142409   4.229   6.850   4.888 -0.3785  0.5120 -0.3491
   65MOL    C4242410   4.309   6.737   4.950  0.0479  0.3201 -0.2691
   65MOL    C4342411   4.456   6.752   4.948 -0.1541 -0.1753  0.3030
   65MOL    C4442412   4.545   6.646   5.010  0.9157  0.1840 -0.2616
   65MOL    C4542413   4.526   6.633   5.158 -0.3291  0.2287 -0.0445
   65MOL    H4642414   3.628   7.370   4.668 -1.1502 -0.7621 -0.1141
   65MOL    H4742415   3.798   7.376   4.693 -0.5128 -0.4526 -0.3288
   65MOL    H4842416   3.695   7.096   4.718  0.8688 -0.9381 -1.0008
   65MOL    H4942417   3.923   7.183   4.743  0.0076  1.3300  0.8262
   65MOL    H5042418   3.885   7.241   4.907  0.0257 -0.2497 -0.1677
   65MOL    H5142419   3.845   6.955   4.817  0.1943 -0.4520 -0.5854
   65MOL    H5242420   3.843   7.015   4.987  0.5711  1.4223 -0.2215
   65MOL    H5342421   4.089   7.066   4.978  0.1650  1.3554 -1.3972
   65MOL    H5442422   4.072   7.032   4.804 -1.3282  1.1366  0.0852
   65MOL    H5542423   4.027   6.790   4.880 -3.2626  2.1186 -0.5747
   65MOL    H5642424   4.076   6.842   5.040  3.4130 -1.7235 -0.5769
   65MOL    H5742425   4.251   6.862   4.782  0.6042 -2.5449 -0.5316
   65MOL    H5842426   4.291   6.932   4.926  1.5516 -1.8183  1.6920
   65MOL    H5942427   4.291   6.647   4.892  0.6347 -0.0759  0.1548
   65MOL    H6042428   4.288   6.723   5.056 -1.0872  0.3588 -0.4841
   65MOL    H6142429   4.474   6.846   4.999 -0.4621  0.3740 -0.5723
   65MOL    H6242430   4.488   6.763   4.844 -0.7745  0.7186  0.1997
   65MOL    H6342431   4.524   6.558   4.949  1.2362 -0.6271  0.7920
   65MOL    H6442432   4.650   6.671   4.989  0.8149 -0.8454 -2.0948
   65MOL    H6542433   4.431   6.590   5.188 -0.2343 -1.0604 -1.5077
   65MOL    H6642434   4.611   6.574   5.193  0.2915  0.8631 -0.4493
   65MOL    H6742435   4.530   6.736   5.192  1.2122  0.5317 -1.0626
   65MOL    C6842436   3.598   7.205   4.868 -0.7266 -0.0578 -0.5721
   65MOL    C6942437   3.558   7.093   4.964 -0.3186 -0.1082 -0.3289
   65MOL    C7042438   3.452   7.150   5.069  0.5175 -0.2819  1.0939
   65MOL    C7142439   3.312   7.188   5.001  0.1986  0.6182  0.1665
   65MOL    C7242440   3.200   7.225   5.104 -0.0641  0.1562  0.2894
   65MOL    C7342441   3.076   7.261   5.030  0.7967  0.4421  0.6840
   65MOL    C7442442   2.981   7.149   4.976 -0.6834  0.4215 -0.0765
   65MOL    C7542443   2.863   7.195   4.891 -0.8106  0.7871  0.1819
   65MOL    C7642444   2.785   7.085   4.816  0.0600 -0.0623  0.4193
   65MOL    C7742445   2.661   7.133   4.746  0.4801  0.1917  0.4538
   65MOL    C7842446   2.542   7.055   4.796  0.0918  0.2973 -0.0258
   65MOL    H7942447   3.506   7.226   4.813 -0.2494 -0.6514 -1.6271
   65MOL    H8042448   3.606   7.300   4.919 -1.6880  0.0190 -0.5563
   65MOL    H8142449   3.644   7.068   5.027 -1.0414 -0.0903  0.6754
   65MOL    H8242450   3.492   7.241   5.114 -1.6899  1.8336 -1.0615
   65MOL    H8342451   3.420   7.080   5.146 -0.2848 -1.6045 -0.4077
   65MOL    H8442452   3.319   7.278   4.940 -1.3974  1.5237  1.2858
   65MOL    H8542453   3.285   7.107   4.934  2.0221  1.9200 -2.1994
   65MOL    H8642454   3.231   7.309   5.165 -0.8480  0.3121  0.4693
   65MOL    H8742455   3.179   7.151   5.181  0.9785 -2.2573 -1.6609
   65MOL    H8842456   3.015   7.332   5.086  0.0789  0.9664 -0.7328
   65MOL    H8942457   3.104   7.325   4.946 -1.4374  0.2415 -0.2426
   65MOL    H9042458   2.951   7.095   5.066  1.3532 -0.9379 -0.1823
   65MOL    H9142459   3.054   7.089   4.922  0.5934  0.2373  1.7657
   65MOL    H9242460   2.795   7.247   4.958 -2.7600 -0.5737 -0.6764
   65MOL    H9342461   2.890   7.269   4.815  0.3118 -0.0032 -0.2120
   65MOL    H9442462   2.852   7.034   4.747 -0.6029  1.8038 -1.6698
   65MOL    H9542463   2.755   7.013   4.892 -0.3584 -1.1575 -0.7586
   65MOL    H9642464   2.646   7.238   4.770  1.0540  0.3377  0.1702
   65MOL    H9742465   2.662   7.127   4.637 -0.0010  1.6935  0.3543
   65MOL    H9842466   2.565   6.950   4.778  0.7408  0.4002  0.1879
   65MOL    H9942467   2.456   7.089   4.738  0.8420 -0.0377 -1.3556
   65MOL   H10042468   2.521   7.075   4.901  0.0283  2.0262 -0.3490
   65MOL   C10142469   3.514   6.959   4.894 -0.1321 -0.3886 -0.7375
   65MOL   C10242470   3.466   6.846   4.991  0.1215 -0.0054 -0.6982
   65MOL   C10342471   3.581   6.779   5.079  0.1560 -0.0437  0.0653
   65MOL   C10442472   3.678   6.686   5.009 -0.5529  0.4662 -0.5963
   65MOL   C10542473   3.784   6.637   5.101 -0.1702 -0.5011 -0.4285
   65MOL   C10642474   3.874   6.542   5.023  0.1156 -0.0792  0.8532
   65MOL   C10742475   3.988   6.489   5.107  0.7249  0.1529  0.1430
   65MOL   C10842476   4.092   6.420   5.024 -0.6540  0.1377 -0.0754
   65MOL   C10942477   4.216   6.374   5.107  0.2851  0.0747  0.7019
   65MOL   C11042478   4.326   6.326   5.011  0.4093  0.0854  0.1391
   65MOL   C11142479   4.441   6.262   5.090  0.3118 -0.1322 -0.2335
   65MOL   H11242480   3.447   6.974   4.809 -0.8444  0.8057  0.0217
   65MOL   H11342481   3.601   6.911   4.849  1.2442  0.8742  0.5170
   65MOL   H11442482   3.402   6.884   5.072  0.2253  0.2933 -0.7551
   65MOL   H11542483   3.620   6.865   5.135 -1.9461  1.9132 -1.3893
   65MOL   H11642484   3.540   6.713   5.155  2.4898 -0.4579  1.0182
   65MOL   H11742485   3.630   6.598   4.964  1.8233 -1.3001  0.1939
   65MOL   H11842486   3.725   6.740   4.927 -0.2982  0.1479 -0.6646
   65MOL   H11942487   3.840   6.720   5.145 -0.5544 -1.1651  1.3300
   65MOL   H12042488   3.740   6.587   5.188 -2.2988  0.5031 -0.8820
   65MOL   H12142489   3.815   6.465   4.975  0.1475 -0.1400  0.9119
   65MOL   H12242490   3.915   6.590   4.933  1.0556 -1.4712  0.5217
   65MOL   H12342491   3.947   6.419   5.180  0.0120  0.0504 -0.3495
   65MOL   H12442492   4.038   6.573   5.154 -1.2424  1.0692  0.6402
   65MOL   H12542493   4.046   6.335   4.975  0.9996  0.2990 -1.9601
   65MOL   H12642494   4.133   6.482   4.945 -1.4983  0.4587 -0.2722
   65MOL   H12742495   4.253   6.449   5.178  0.0961  0.5216  0.3281
   65MOL   H12842496   4.192   6.286   5.167  0.4149  0.4019  1.2401
   65MOL   H12942497   4.357   6.410   4.948 -1.9894  0.8055 -0.1254
   65MOL   H13042498   4.276   6.250   4.952  1.6849 -2.2425  1.9618
   65MOL   H13142499   4.398   6.194   5.164  0.6008  0.0149  0.0732
   65MOL   H13242500   4.519   6.217   5.030  0.6118  2.0281 -1.5246
   65MOL   H13342501   4.497   6.338   5.145  0.3269 -1.1728  1.2083
   65MOL   C13442502   3.393   6.739   4.911  0.2140  0.0219  0.2524
   65MOL   C13542503   3.251   6.786   4.854 -0.1941 -0.5468 -0.1130
   65MOL   C13642504   3.136   6.768   4.957 -0.2960  0.2278  0.2670
   65MOL   C13742505   3.117   6.634   5.025 -0.2219  0.2379 -0.5830
   65MOL   C13842506   2.986   6.629   5.100  0.7303 -0.1970  0.0022
   65MOL   C13942507   2.961   6.481   5.131  0.0305  0.1425 -0.1850
   65MOL   C14042508   2.830   6.453   5.200  0.1427  0.7502 -0.7601
   65MOL   C14142509   2.810   6.305   5.250 -0.0243 -0.2697 -0.1540
   65MOL   C14242510   2.675   6.287   5.317  0.3905  0.6364 -0.5621
   65MOL   C14342511   2.663   6.350   5.459 -0.8893  0.2143  0.3642
   65MOL   C14442512   2.544   6.311   5.547 -0.2564  0.8037 -0.0821
   65MOL   H14542513   3.462   6.721   4.829  0.3216 -0.6834  0.4858
   65MOL   H14642514   3.388   6.647   4.970 -1.9151  0.0680  0.1657
   65MOL   H14742515   3.250   6.893   4.832 -0.0084 -0.3870  0.6274
   65MOL   H14842516   3.047   6.803   4.905 -0.6032  2.3315  2.1377
   65MOL   H14942517   3.150   6.851   5.025 -1.0606  1.1183 -0.6464
   65MOL   H15042518   3.108   6.570   4.938  3.1716  1.2282 -1.7419
   65MOL   H15142519   3.205   6.610   5.084  0.6126 -0.7054 -2.1895
   65MOL   H15242520   2.975   6.690   5.189  0.4912 -1.7161  1.0333
   65MOL   H15342521   2.906   6.661   5.033 -0.2360 -1.3973  0.5610
   65MOL   H15442522   2.969   6.428   5.036  0.0504 -0.2977  0.0608
   65MOL   H15542523   3.045   6.451   5.194 -0.2691 -0.2316  0.0423
   65MOL   H15642524   2.815   6.527   5.279  0.0794  1.3406 -1.3212
   65MOL   H15742525   2.749   6.471   5.130 -0.2896 -1.1724 -0.7746
   65MOL   H15842526   2.811   6.231   5.170  1.1986  0.7825 -1.1266
   65MOL   H15942527   2.897   6.285   5.312 -0.7677  1.0088  1.3248
   65MOL   H16042528   2.594   6.316   5.251 -0.0321  1.1107  0.1555
   65MOL   H16142529   2.665   6.181   5.340  1.5606  0.3771 -1.2463
   65MOL   H16242530   2.746   6.318   5.522 -0.7845 -2.0498 -0.8691
   65MOL   H16342531   2.669   6.459   5.457 -0.8197  0.2253  0.8785
   65MOL   H16442532   2.519   6.376   5.631  0.6092 -2.0881  2.4996
   65MOL   H16542533   2.548   6.207   5.578  0.2280  0.9150  0.2415
   65MOL   H16642534   2.456   6.320   5.482 -0.2245 -2.8961 -0.7457
   65MOL   C16742535   3.208   6.708   4.719 -0.1654  0.3532 -0.5497
   65MOL   C16842536   3.237   6.799   4.592  0.2116 -0.1348 -0.3048
   65MOL   C16942537   3.116   6.873   4.545  0.6245 -0.0281 -0.6505
   65MOL   C17042538   3.001   6.789   4.491  0.2113 -0.2591 -0.2706
   65MOL   C17142539   2.896   6.881   4.431  0.5124  0.0305  0.4107
   65MOL   C17242540   2.752   6.830   4.450  0.1719 -1.0409  0.1429
   65MOL   C17342541   2.650   6.913   4.373  0.2711 -0.7366  0.7256
   65MOL   C17442542   2.521   6.836   4.333 -0.3103  0.4831 -0.2425
   65MOL   C17542543   2.419   6.930   4.281 -0.9263 -0.1994  0.4932
   65MOL   C17642544   2.291   6.852   4.289  0.1086  0.4753  0.6720
   65MOL   C17742545   2.170   6.941   4.246 -0.6136  0.3978  0.1680
   65MOL   H17842546   3.233   6.602   4.718 -0.6167  0.2266  0.8278
   65MOL   H17942547   3.100   6.699   4.728 -0.0459  0.3302  0.9081
   65MOL   H18042548   3.311   6.878   4.606 -0.8600  1.0510 -1.2508
   65MOL   H18142549   3.148   6.935   4.461 -0.1466  0.9205 -0.2480
   65MOL   H18242550   3.080   6.939   4.624  0.1561  0.9406 -1.6655
   65MOL   H18342551   3.026   6.728   4.405 -1.6378  0.5253 -1.4117
   65MOL   H18442552   2.958   6.719   4.563  0.6412 -1.6056 -1.3071
   65MOL   H18542553   2.918   6.904   4.326  3.2972 -1.4014  0.6409
   65MOL   H18642554   2.902   6.982   4.471 -0.8530  0.7298 -1.1063
   65MOL   H18742555   2.741   6.731   4.406 -3.3108 -0.7111  0.1250
   65MOL   H18842556   2.729   6.823   4.556  2.1952 -1.3373  0.5845
   65MOL   H18942557   2.682   6.970   4.286 -1.0626 -0.0241  0.6857
   65MOL   H19042558   2.621   6.989   4.446  1.0588 -0.2482  0.5343
   65MOL   H19142559   2.550   6.779   4.244  0.8141 -0.9042  0.9781
   65MOL   H19242560   2.481   6.773   4.412 -4.8128  1.2647 -1.7430
   65MOL   H19342561   2.448   6.953   4.179  0.7460 -1.0701  0.7536
   65MOL   H19442562   2.422   7.029   4.327  2.3240  0.6226 -1.3483
   65MOL   H19542563   2.271   6.791   4.377 -0.3370  0.4937  0.5861
   65MOL   H19642564   2.284   6.770   4.218 -2.5313  0.8617  0.4229
   65MOL   H19742565   2.079   6.882   4.242  0.2913 -0.9716 -0.8778
   65MOL   H19842566   2.169   6.973   4.142  1.4477  2.4656  0.7165
   65MOL   H19942567   2.147   7.026   4.311 -2.1686  1.6400 -1.9444
   65MOL   C20042568   3.302   6.713   4.485  0.0415  0.5364 -0.6966
   65MOL   C20142569   3.435   6.648   4.515  0.8733 -0.2606  0.6020
   65MOL   C20242570   3.550   6.757   4.500  0.0266  0.3620  0.4993
   65MOL   C20342571   3.684   6.717   4.568  0.9825  0.4754  0.3537
   65MOL   C20442572   3.783   6.829   4.563  0.5695 -0.3537  1.0989
   65MOL   C20542573   3.843   6.863   4.423 -0.2217  0.3191  0.6379
   65MOL   C20642574   3.985   6.920   4.444 -0.1915 -0.5292 -0.5299
   65MOL   C20742575   4.067   6.933   4.309  0.3921  0.1089  0.2909
   65MOL   C20842576   4.220   6.939   4.338  0.2874 -0.8379  0.2490
   65MOL   C20942577   4.266   7.067   4.406  0.1465  0.5202  0.0562
   65MOL   C21042578   4.412   7.101   4.369  0.7730 -0.1127 -0.3181
   65MOL   H21142579   3.232   6.637   4.449  1.3972 -0.7519 -0.6397
   65MOL   H21242580   3.313   6.784   4.403 -1.3486  1.5949  0.0105
   65MOL   H21342581   3.444   6.623   4.620  0.8404  2.1220  1.1954
   65MOL   H21442582   3.518   6.856   4.534 -1.5663  0.2862 -0.7146
   65MOL   H21542583   3.569   6.787   4.398  0.2392  1.2524  0.7962
   65MOL   H21642584   3.740   6.633   4.526 -0.7032 -0.4497 -0.0776
   65MOL   H21742585   3.678   6.686   4.673  1.1405  0.5925  0.3957
   65MOL   H21842586   3.867   6.790   4.618  1.7585  2.2636  1.2366
   65MOL   H21942587   3.742   6.919   4.608  0.5787  0.8105 -1.1039
   65MOL   H22042588   3.857   6.776   4.360 -1.7611 -1.0096  2.0834
   65MOL   H22142589   3.774   6.922   4.363 -1.2662  0.7650  2.2441
   65MOL   H22242590   4.039   6.846   4.502 -1.2290 -0.8662  0.0204
   65MOL   H22342591   3.993   7.016   4.496 -0.6256 -1.5981  1.5403
   65MOL   H22442592   4.037   7.024   4.258  1.7307 -0.6344 -1.9008
   65MOL   H22542593   4.027   6.850   4.251 -0.5335  1.3449 -0.8629
   65MOL   H22642594   4.277   6.946   4.245  0.9635  2.0546  0.8146
   65MOL   H22742595   4.267   6.864   4.401  1.4974 -1.9282 -1.9037
   65MOL   H22842596   4.196   7.149   4.395 -2.1920 -1.2596  1.1876
   65MOL   H22942597   4.259   7.053   4.514 -2.0104  1.5956  0.0828
   65MOL   H23042598   4.464   7.148   4.452 -1.2878  0.9424  0.4127
   65MOL   H23142599   4.424   7.162   4.279  0.2356 -0.0344 -0.3359
   65MOL   H23242600   4.464   7.006   4.355  1.8881  0.8279 -2.8512
   65MOL   C23342601   3.460   6.531   4.422  0.0554  0.7081  0.0916
   65MOL   C23442602   3.388   6.404   4.464 -0.1523 -0.1841  0.4028
   65MOL   C23542603   3.476   6.278   4.499  0.5530  0.4712  0.2351
   65MOL   C23642604   3.565   6.294   4.622 -0.1533  0.4909  0.0395
   65MOL   C23742605   3.669   6.183   4.644  1.0998 -0.0720  0.1477
   65MOL   C23842606   3.741   6.204   4.778  0.6493  0.2462  0.2002
   65MOL   C23942607   3.805   6.077   4.836  0.2899  0.8131 -0.2655
   65MOL   C24042608   3.838   6.097   4.982 -0.6914 -0.0734 -0.2771
   65MOL   C24142609   3.877   5.963   5.056 -0.9112 -0.4242 -0.4450
   65MOL   C24242610   3.920   5.979   5.201 -0.9495  0.2332  0.0653
   65MOL   C24342611   3.822   6.039   5.302  0.3527 -0.1929  0.7911
   65MOL   H24442612   3.565   6.505   4.435  0.7380  3.3613  0.2144
   65MOL   H24542613   3.448   6.561   4.318  0.0278 -0.1716 -0.1611
   65MOL   H24642614   3.330   6.432   4.552 -1.0275  0.9106 -0.5059
   65MOL   H24742615   3.415   6.190   4.521 -0.2604  1.0937  0.4997
   65MOL   H24842616   3.541   6.255   4.414 -2.3580 -3.2140 -1.1412
   65MOL   H24942617   3.515   6.318   4.716 -1.3493  0.0992 -0.4845
   65MOL   H25042618   3.623   6.385   4.607  0.4055  0.1467  0.1090
   65MOL   H25142619   3.748   6.186   4.569  3.4881  0.0891  2.5821
   65MOL   H25242620   3.621   6.085   4.635  0.1457  0.5902 -2.1317
   65MOL   H25342621   3.672   6.259   4.842  0.9948  1.0405 -0.0905
   65MOL   H25442622   3.825   6.269   4.755  1.0403 -0.9363 -1.8035
   65MOL   H25542623   3.736   5.993   4.826  1.4547 -0.4637  1.8705
   65MOL   H25642624   3.892   6.040   4.782 -0.7569 -2.3819  0.1590
   65MOL   H25742625   3.912   6.177   4.984 -1.0908  0.3187 -1.1534
   65MOL   H25842626   3.749   6.136   5.031  0.0607  0.2800  0.8256
   65MOL   H25942627   3.802   5.884   5.053 -0.0149 -1.2978  0.3119
   65MOL   H26042628   3.955   5.917   4.996  1.0607  1.6985  0.3949
   65MOL   H26142629   4.012   6.039   5.200 -1.1448  0.5736 -2.1915
   65MOL   H26242630   3.950   5.880   5.235  1.9543  1.0948  0.1664
   65MOL   H26342631   3.806   6.145   5.286 -2.2969 -0.8845 -1.7360
   65MOL   H26442632   3.847   6.024   5.407 -0.2190  0.8239  1.0812
   65MOL   H26542633   3.728   5.990   5.276  0.3231  1.3055 -2.0670
   65MOL   C26642634   3.288   6.367   4.352 -0.2435 -0.3849  0.6321
   65MOL   C26742635   3.162   6.277   4.390  0.0011  0.1734 -0.7878
   65MOL   C26842636   3.107   6.196   4.270 -0.2293 -0.5020 -0.1182
   65MOL   C26942637   3.208   6.090   4.222 -0.4149 -0.2957  0.4158
   65MOL   C27042638   3.148   6.015   4.100 -0.4577 -0.0310 -0.5961
   65MOL   C27142639   3.214   5.878   4.070  0.4638 -0.0550 -0.2936
   65MOL   C27242640   3.166   5.805   3.951  0.6820  0.7837 -0.3917
   65MOL   C27342641   3.208   5.657   3.950 -0.1094  0.5191 -0.6765
   65MOL   C27442642   3.132   5.572   3.849 -0.2686  0.8132 -0.2777
   65MOL   C27542643   3.153   5.422   3.883  0.5187  0.0624  0.5844
   65MOL   C27642644   3.070   5.336   3.791  0.4902 -0.8291  0.7415
   65MOL   H27742645   3.337   6.303   4.279 -0.7016  1.4472 -1.3194
   65MOL   H27842646   3.246   6.454   4.300  1.2929  0.2671  0.4651
   65MOL   H27942647   3.196   6.201   4.461  1.4778  1.6073  0.0760
   65MOL   H28042648   3.014   6.142   4.287 -1.4726  2.2089  2.1689
   65MOL   H28142649   3.084   6.273   4.196 -1.1967 -1.1095 -0.4541
   65MOL   H28242650   3.221   6.016   4.300 -0.0744 -1.1970 -0.4844
   65MOL   H28342651   3.310   6.113   4.194 -0.5910  1.6183  1.2817
   65MOL   H28442652   3.157   6.081   4.013  0.8735  0.4335 -0.1148
   65MOL   H28542653   3.043   5.997   4.125  0.5633 -2.2682  2.3508
   65MOL   H28642654   3.225   5.816   4.160  0.7277  0.4285  0.0068
   65MOL   H28742655   3.322   5.885   4.056  0.7069 -0.8321  1.0890
   65MOL   H28842656   3.059   5.819   3.969  0.6108 -1.7108  1.5805
   65MOL   H28942657   3.203   5.859   3.864 -1.1212 -0.6420 -2.0819
   65MOL   H29042658   3.201   5.623   4.053  0.1032  1.8243 -0.2195
   65MOL   H29142659   3.316   5.650   3.932 -0.4903  0.3059 -3.0501
   65MOL   H29242660   3.024   5.585   3.850 -0.4800 -0.8705  0.9525
   65MOL   H29342661   3.161   5.592   3.746 -1.9672 -1.8864 -1.3191
   65MOL   H29442662   3.115   5.394   3.981  2.3630 -0.3463  1.2021
   65MOL   H29542663   3.261   5.407   3.875  0.1750 -1.9885 -0.8376
   65MOL   H29642664   2.962   5.354   3.793  0.6096  0.6796 -2.6221
   65MOL   H29742665   3.085   5.234   3.826  1.2809 -0.8519  0.3383
   65MOL   H29842666   3.109   5.343   3.689  0.2308 -2.1826  0.5323
   65MOL   C29942667   3.069   6.380   4.457 -0.5260 -0.3096  0.3770
   65MOL   C30042668   2.946   6.322   4.533 -0.3049 -0.0373 -0.3790
   65MOL   C30142669   2.864   6.444   4.590  1.0425  0.0757  0.0190
   65MOL   C30242670   2.733   6.403   4.646  0.0802 -0.0923 -0.4023
   65MOL   C30342671   2.663   6.522   4.715  0.0266  0.5421 -0.5575
   65MOL   C30442672   2.557   6.484   4.818 -0.4410  0.0122  0.7815
   65MOL   C30542673   2.475   6.599   4.867  0.0392  0.1571 -0.5323
   65MOL   C30642674   2.540   6.675   4.982  0.0081  0.3892  0.5589
   65MOL   C30742675   2.440   6.778   5.039 -0.6069  0.7776  0.3882
   65MOL   C30842676   2.494   6.877   5.144  0.0106 -0.3431 -0.0841
   65MOL   C30942677   2.391   6.976   5.201  0.0550 -0.3450  0.1681
   65MOL   H31042678   3.045   6.449   4.377  0.9201 -0.6085 -0.3416
   65MOL   H31142679   3.120   6.444   4.530 -2.3518  3.2438 -1.3263
   65MOL   H31242680   2.881   6.265   4.466  0.1622  0.0714 -0.9246
   65MOL   H31342681   2.927   6.491   4.665  0.9347 -1.1616  0.9038
   65MOL   H31442682   2.844   6.506   4.503 -2.0606  0.8990  1.2284
   65MOL   H31542683   2.673   6.380   4.559  0.5981  1.7735 -1.2815
   65MOL   H31642684   2.724   6.315   4.710 -1.1465  1.2015  1.2515
   65MOL   H31742685   2.726   6.595   4.767 -2.0139  2.6825 -0.9781
   65MOL   H31842686   2.621   6.583   4.635 -2.9062 -2.6214 -1.5077
   65MOL   H31942687   2.602   6.427   4.900  1.6708  1.2737  0.5415
   65MOL   H32042688   2.484   6.425   4.763 -2.9197  2.3303  1.4533
   65MOL   H32142689   2.449   6.662   4.782 -2.1270 -0.6582 -0.5148
   65MOL   H32242690   2.380   6.563   4.907  0.6646  0.3348  1.1427
   65MOL   H32342691   2.631   6.723   4.947  0.0475 -0.7199 -0.9240
   65MOL   H32442692   2.579   6.609   5.060 -0.1166  0.8944  1.0511
   65MOL   H32542693   2.351   6.729   5.081 -0.4317 -0.5499 -0.7417
   65MOL   H32642694   2.393   6.838   4.962  1.4146  2.1696  0.2110
   65MOL   H32742695   2.577   6.931   5.099  0.6244 -1.0829  0.1488
   65MOL   H32842696   2.538   6.814   5.222 -0.5367 -0.9842 -0.2841
   65MOL   H32942697   2.302   6.929   5.244 -0.6871 -0.0475 -1.0246
   65MOL   H33042698   2.442   7.025   5.285  2.8309 -1.9791 -0.5304
   65MOL   H33142699   2.369   7.050   5.124  0.6061 -3.3617 -2.9682
   65MOL   C33242700   2.984   6.230   4.653  0.0369 -0.5702 -0.1228
   65MOL   C33342701   3.003   6.081   4.625 -0.5537 -0.4944 -0.3773
   65MOL   C33442702   2.870   5.999   4.627 -0.3458 -0.0566  0.4070
   65MOL   C33542703   2.771   6.027   4.511 -0.1980 -0.0042 -0.7498
   65MOL   C33642704   2.658   5.929   4.503 -0.1230 -1.5422  0.0879
   65MOL   C33742705   2.556   5.953   4.610 -0.0002 -0.2236  0.0623
   65MOL   C33842706   2.428   5.872   4.576  0.3446  0.2017 -0.8303
   65MOL   C33942707   2.323   5.876   4.689 -0.4184 -0.9326  0.7471
   65MOL   C34042708   2.219   5.759   4.678  0.2641 -0.2667  0.5797
   65MOL   C34142709   2.256   5.623   4.741  0.1605  0.3611 -0.6229
   65MOL   C34242710   2.169   5.504   4.704  0.5826 -0.2266 -0.2757
   65MOL   H34342711   3.080   6.271   4.686  0.2812 -0.6604 -0.7167
   65MOL   H34442712   2.922   6.240   4.742  1.8482  1.3366  0.9657
   65MOL   H34542713   3.043   6.066   4.524  0.8750 -0.8523  0.2252
   65MOL   H34642714   2.819   6.006   4.723  3.1866 -0.9772  2.4439
   65MOL   H34742715   2.898   5.894   4.630 -1.1637 -0.3172 -0.9498
   65MOL   H34842716   2.729   6.128   4.518  0.1425  0.0252  1.1157
   65MOL   H34942717   2.816   6.016   4.413  1.0284 -0.1874 -0.1783
   65MOL   H35042718   2.611   5.933   4.405 -0.4862  2.2457  0.3377
   65MOL   H35142719   2.693   5.826   4.512 -0.8439 -1.6300  2.0632
   65MOL   H35242720   2.533   6.059   4.616 -3.1281 -0.7910 -0.6774
   65MOL   H35342721   2.604   5.926   4.704  0.9006 -0.2076 -0.3865
   65MOL   H35442722   2.447   5.767   4.557 -0.8273 -0.3437  0.8931
   65MOL   H35542723   2.378   5.905   4.485  0.6774 -0.4882 -1.2669
   65MOL   H35642724   2.370   5.876   4.787  1.8341 -0.2863 -0.3167
   65MOL   H35742725   2.265   5.969   4.687 -0.9638 -1.2819 -0.3012
   65MOL   H35842726   2.189   5.750   4.573 -0.2266  3.0699  0.3938
   65MOL   H35942727   2.122   5.783   4.722 -1.5866 -2.2300 -2.2469
   65MOL   H36042728   2.257   5.627   4.850  0.1833  0.8813 -0.6425
   65MOL   H36142729   2.356   5.599   4.706  0.7468  2.0275 -0.0974
   65MOL   H36242730   2.066   5.521   4.738  1.1098  1.5095  0.5179
   65MOL   H36342731   2.161   5.479   4.599  0.0973  3.2589 -1.1356
   65MOL   H36442732   2.192   5.415   4.762 -2.2308  0.5252  2.1482
   65MOL   C36542733   3.123   6.015   4.702  0.0068  0.0005  0.1494
   65MOL   C36642734   3.147   6.022   4.851 -0.5679  0.1974 -0.7242
   65MOL   C36742735   3.187   6.154   4.913 -0.8105  0.1687  0.1522
   65MOL   C36842736   3.275   6.145   5.048 -0.4452 -0.2772 -0.4746
   65MOL   C36942737   3.303   6.277   5.105 -0.2893 -0.4246 -0.1799
   65MOL   C37042738   3.429   6.279   5.197  0.0925  0.2023  0.0202
   65MOL   C37142739   3.467   6.413   5.269 -0.2287  0.0934  0.3431
   65MOL   C37242740   3.600   6.398   5.331 -1.1248 -0.7349 -0.6559
   65MOL   C37342741   3.636   6.517   5.429  0.2572  0.0333 -0.3727
   65MOL   C37442742   3.551   6.508   5.548  0.6246 -0.4887 -0.0297
   65MOL   C37542743   3.595   6.601   5.659 -0.1271 -0.0883 -0.5874
   65MOL   H37642744   3.137   5.910   4.677  0.8438 -0.0388  0.7724
   65MOL   H37742745   3.215   6.060   4.664 -0.4516 -0.3982 -1.4684
   65MOL   H37842746   3.234   5.959   4.868 -1.5306 -0.9490  0.0881
   65MOL   H37942747   3.104   6.225   4.914 -0.7352  0.3086 -1.2250
   65MOL   H38042748   3.250   6.201   4.837  2.3725  0.0746  2.6396
   65MOL   H38142749   3.374   6.110   5.018 -0.2968 -1.0362  0.8658
   65MOL   H38242750   3.224   6.079   5.118  0.8264 -0.9312 -0.1534
   65MOL   H38342751   3.214   6.316   5.155  0.7865 -0.0740  1.4838
   65MOL   H38442752   3.325   6.343   5.021 -0.4266  1.1871  1.0188
   65MOL   H38542753   3.511   6.241   5.136 -1.7330 -1.9550 -1.1625
   65MOL   H38642754   3.419   6.203   5.275  1.6770  1.8090  1.8349
   65MOL   H38742755   3.477   6.490   5.193 -1.8466  0.1102  0.1299
   65MOL   H38842756   3.385   6.448   5.333 -2.3159 -1.1144 -1.5998
   65MOL   H38942757   3.680   6.387   5.258  1.0477  0.0082  1.5083
   65MOL   H39042758   3.611   6.303   5.385  0.3700  0.0639  0.4994
   65MOL   H39142759   3.740   6.506   5.457  1.0096 -0.1384 -3.1368
   65MOL   H39242760   3.626   6.614   5.380  1.0667 -0.1773 -0.9517
   65MOL   H39342761   3.451   6.547   5.527  0.1492 -1.6725 -0.0001
   65MOL   H39442762   3.537   6.408   5.589 -0.1447  0.1220  1.2467
   65MOL   H39542763   3.692   6.579   5.705 -0.7483  0.2222  0.9109
   65MOL   H39642764   3.517   6.608   5.735 -0.1918  1.6854 -0.8091
   65MOL   H39742765   3.611   6.699   5.614  1.6424  0.0205  0.2034
   65MOL   C39842766   3.039   5.950   4.948 -0.0566 -0.7072  0.3673
   65MOL   C39942767   3.013   5.804   4.908 -0.2071  0.7797  0.1536
   65MOL   C40042768   2.862   5.774   4.932 -0.3660  0.5787 -0.0523
   65MOL   C40142769   2.809   5.634   4.914  0.4341  0.4373  0.0973
   65MOL   C40242770   2.653   5.622   4.909  0.2112  0.2456  0.1432
   65MOL   C40342771   2.596   5.477   4.924 -0.2508 -0.6746 -0.9682
   65MOL   C40442772   2.486   5.481   5.033  0.1488 -0.2242 -0.7137
   65MOL   C40542773   2.426   5.341   5.052  0.7466  0.3834  0.2437
   65MOL   C40642774   2.343   5.311   5.176  0.5799 -0.3893  0.1808
   65MOL   C40742775   2.237   5.204   5.166  0.0399  0.3286 -0.7811
   65MOL   C40842776   2.296   5.070   5.132  0.2978 -0.3332 -0.1294
   65MOL   H40942777   2.952   6.014   4.937 -0.4712 -1.4016 -0.4317
   65MOL   H41042778   3.064   5.948   5.054  1.7488  0.2639 -0.0229
   65MOL   H41142779   3.019   5.782   4.801 -1.2143  1.8809 -0.1369
   65MOL   H41242780   2.804   5.845   4.874 -1.6879 -0.4998 -0.1034
   65MOL   H41342781   2.846   5.791   5.039 -2.3208  0.0706 -0.2381
   65MOL   H41442782   2.857   5.593   4.825 -1.8296  0.8257 -1.3418
   65MOL   H41542783   2.844   5.574   4.999  1.2091  1.8304  0.7818
   65MOL   H41642784   2.631   5.682   4.998 -2.6574 -0.9144  0.2815
   65MOL   H41742785   2.606   5.675   4.826 -1.3171 -0.0723  0.7839
   65MOL   H41842786   2.673   5.407   4.956 -0.5603 -0.4915  0.2110
   65MOL   H41942787   2.551   5.444   4.831 -1.4592 -1.4346 -0.1253
   65MOL   H42042788   2.536   5.524   5.120  1.3840 -2.0189 -0.5204
   65MOL   H42142789   2.398   5.541   5.009 -1.7529 -0.7586  4.4348
   65MOL   H42242790   2.503   5.265   5.062  1.6245  1.2477  0.1105
   65MOL   H42342791   2.384   5.324   4.953  1.5372  0.1231 -0.0519
   65MOL   H42442792   2.403   5.294   5.265  0.6224  3.0175  0.8559
   65MOL   H42542793   2.286   5.400   5.202 -0.5480 -1.3955  1.2926
   65MOL   H42642794   2.156   5.229   5.097  0.6251  1.2880 -1.1273
   65MOL   H42742795   2.191   5.180   5.262  1.7084 -1.5705 -0.4330
   65MOL   H42842796   2.225   4.993   5.161  0.6560 -0.8207 -0.5521
   65MOL   H42942797   2.387   5.049   5.189  0.6715  1.0649 -0.1761
   65MOL   H43042798   2.330   5.064   5.029 -1.5986 -3.4128 -0.6201
   65MOL   C43142799   3.097   5.692   4.983 -0.5174 -0.1784  0.0105
   65MOL   C43242800   3.251   5.692   4.966  0.0283 -0.3653  0.5981
   65MOL   C43342801   3.298   5.682   4.819  0.4287  0.0143 -0.4287
   65MOL   C43442802   3.251   5.564   4.738 -0.4662  0.0900  0.2445
   65MOL   C43542803   3.292   5.576   4.589  0.3010  0.3126 -0.3464
   65MOL   C43642804   3.239   5.463   4.504 -0.6961 -0.1587  0.3442
   65MOL   C43742805   3.313   5.434   4.374  0.3663  0.7511  0.1134
   65MOL   C43842806   3.232   5.339   4.284  0.2201 -0.7765 -0.1068
   65MOL   C43942807   3.231   5.197   4.350  0.3578  0.2562 -0.3364
   65MOL   C44042808   3.160   5.089   4.259  0.3240  0.0880  0.6051
   65MOL   C44142809   3.016   5.119   4.229 -0.0965 -0.1503 -0.0206
   65MOL   H44242810   3.066   5.592   4.954 -1.5153  0.1194  0.0294
   65MOL   H44342811   3.076   5.698   5.090  2.0192  1.6978  0.4654
   65MOL   H44442812   3.278   5.792   4.999 -0.2495 -0.2610  0.5115
   65MOL   H44542813   3.267   5.774   4.770 -1.8093  1.3117  3.2154
   65MOL   H44642814   3.407   5.679   4.819  0.4157 -0.4642 -0.4629
   65MOL   H44742815   3.142   5.564   4.747 -0.4871  0.1807 -0.0041
   65MOL   H44842816   3.286   5.473   4.787  2.6298  1.4172  0.5936
   65MOL   H44942817   3.400   5.574   4.577  0.2512 -1.7080 -0.5519
   65MOL   H45042818   3.263   5.673   4.547  0.7042  0.8552  0.6062
   65MOL   H45142819   3.137   5.483   4.473 -1.0020 -0.6259  1.0432
   65MOL   H45242820   3.241   5.372   4.564  0.5308  1.3658  2.7379
   65MOL   H45342821   3.410   5.386   4.387 -0.3976 -0.0660  3.2816
   65MOL   H45442822   3.340   5.527   4.324 -1.5954  0.9284 -0.6593
   65MOL   H45542823   3.136   5.386   4.264  1.1066  0.9649 -0.4424
   65MOL   H45642824   3.281   5.319   4.189 -2.7312  0.4879 -1.9788
   65MOL   H45742825   3.194   5.197   4.452 -0.0090 -0.4068 -0.4671
   65MOL   H45842826   3.336   5.170   4.354  1.1941  3.2113 -0.6257
   65MOL   H45942827   3.185   4.989   4.295 -1.4623 -1.9759 -3.6064
   65MOL   H46042828   3.222   5.089   4.169  3.0071 -0.3446  2.3665
   65MOL   H46142829   2.973   5.020   4.212 -2.1474  0.9412 -1.3808
   65MOL   H46242830   2.973   5.160   4.320 -2.2258  0.1138 -1.1184
   65MOL   H46342831   2.995   5.198   4.158 -1.5423 -0.2348  0.3017
   65MOL   C46442832   3.312   5.590   5.064 -0.3551  0.3056  0.0314
   65MOL   C46542833   3.458   5.618   5.108  0.4933 -0.0460  0.5078
   65MOL   C46642834   3.470   5.755   5.173 -0.8257 -0.1554  0.1778
   65MOL   C46742835   3.381   5.780   5.302  0.2857 -0.3181  0.4794
   65MOL   C46842836   3.437   5.896   5.386  0.4170 -0.0712 -0.3500
   65MOL   C46942837   3.355   5.938   5.501  0.1963 -0.1050  0.0990
   65MOL   C47042838   3.424   6.056   5.568 -0.4748  0.3355 -0.3825
   65MOL   C47142839   3.351   6.099   5.705  0.6752 -0.2904  0.3102
   65MOL   C47242840   3.453   6.165   5.793  0.1902 -0.2452 -0.1884
   65MOL   C47342841   3.395   6.241   5.912 -0.2855 -0.0414  0.9561
   65MOL   C47442842   3.503   6.324   5.991  0.7861  0.4434 -0.0036
   65MOL   H47542843   3.301   5.483   5.043  0.2998  0.1953  0.2241
   65MOL   H47642844   3.263   5.586   5.162 -0.7408 -1.1644 -0.2090
   65MOL   H47742845   3.524   5.613   5.021 -0.3138  0.7476 -0.1477
   65MOL   H47842846   3.455   5.828   5.094  2.4344  0.6478  0.2405
   65MOL   H47942847   3.574   5.771   5.200 -0.5916 -2.9710  1.1304
   65MOL   H48042848   3.286   5.816   5.262  0.9549 -0.5275 -1.3717
   65MOL   H48142849   3.366   5.689   5.361  0.0423  0.6171  1.8741
   65MOL   H48242850   3.452   5.987   5.328 -1.9935 -0.2441 -1.2648
   65MOL   H48342851   3.530   5.863   5.434 -1.0527  0.0710  2.7187
   65MOL   H48442852   3.261   5.981   5.468 -0.2160 -0.4927  0.7482
   65MOL   H48542853   3.333   5.867   5.582 -2.7408 -1.1759 -1.5586
   65MOL   H48642854   3.527   6.039   5.598 -0.8681 -2.0056 -0.3370
   65MOL   H48742855   3.418   6.139   5.497  0.1044 -0.5804 -1.5226
   65MOL   H48842856   3.270   6.171   5.690  0.2324 -0.8285  0.0964
   65MOL   H48942857   3.309   6.014   5.759 -0.6232  0.4971  0.5729
   65MOL   H49042858   3.523   6.086   5.820 -1.2938 -1.3503  0.4729
   65MOL   H49142859   3.516   6.228   5.731  0.1884 -0.0007  0.0607
   65MOL   H49242860   3.332   6.321   5.872 -0.7894  0.4461  2.7023
   65MOL   H49342861   3.329   6.187   5.979  1.5396 -0.9560  2.0349
   65MOL   H49442862   3.569   6.253   6.040  0.7715 -0.1930 -0.8950
   65MOL   H49542863   3.449   6.383   6.065  1.1986  2.1748 -1.0388
   65MOL   H49642864   3.567   6.396   5.939  1.4268  0.9550  1.4446
   65MOL   C49742865   3.512   5.493   5.189 -0.7171 -0.6771  0.3600
   65MOL   C49842866   3.664   5.486   5.216  0.0403  0.6077  1.0999
   65MOL   C49942867   3.760   5.522   5.101  0.0788 -0.1951  0.6855
   65MOL   C50042868   3.751   5.431   4.982 -0.4574 -0.0562 -0.1207
   65MOL   C50142869   3.844   5.484   4.868 -0.5625 -0.1384 -0.2468
   65MOL   C50242870   3.784   5.613   4.800 -0.2577 -0.3355  0.1678
   65MOL   C50342871   3.830   5.636   4.652  0.1444  0.7776  0.0991
   65MOL   C50442872   3.775   5.769   4.599  0.4147  0.2307  0.3834
   65MOL   C50542873   3.819   5.788   4.452  0.0968  0.3796  0.2646
   65MOL   C50642874   3.814   5.935   4.409 -0.4902  0.7674 -0.4173
   65MOL   C50742875   3.671   5.990   4.374 -0.8454  0.6509 -0.3013
   65MOL   H50842876   3.460   5.488   5.285 -0.4834 -1.4948  0.4447
   65MOL   H50942877   3.485   5.397   5.147 -0.7056 -1.1527  1.4201
   65MOL   H51042878   3.680   5.565   5.289 -1.5570  3.6578 -1.7259
   65MOL   H51142879   3.861   5.528   5.141  0.5751  3.2838 -0.8879
   65MOL   H51242880   3.740   5.628   5.082  1.9266 -0.2253 -1.5628
   65MOL   H51342881   3.644   5.426   4.959 -0.6109  0.0394  0.5557
   65MOL   H51442882   3.776   5.329   5.010  0.1236 -0.8001 -3.1480
   65MOL   H51542883   3.947   5.494   4.903 -0.2110  0.3688 -1.3897
   65MOL   H51642884   3.861   5.415   4.785 -0.0218 -1.0202  0.5789
   65MOL   H51742885   3.676   5.605   4.795 -0.3171  0.6397 -0.1663
   65MOL   H51842886   3.814   5.706   4.848  0.1229  0.0720 -0.8634
   65MOL   H51942887   3.938   5.648   4.659 -0.0869  3.2278  0.0518
   65MOL   H52042888   3.803   5.560   4.580  1.3846  0.2413  0.1810
   65MOL   H52142889   3.801   5.854   4.661  0.8289 -0.3298  0.9807
   65MOL   H52242890   3.667   5.752   4.605  0.3392  0.4994 -0.1449
   65MOL   H52342891   3.750   5.740   4.383  1.0846  2.4272 -2.1909
   65MOL   H52442892   3.916   5.748   4.426  0.7729  2.7231 -0.9561
   65MOL   H52542893   3.874   5.957   4.321 -0.1520 -2.4964 -1.0710
   65MOL   H52642894   3.843   5.997   4.494  2.4678  1.1493 -1.6605
   65MOL   H52742895   3.596   5.943   4.437  0.6583 -0.0561  1.0093
   65MOL   H52842896   3.642   5.970   4.271  1.3678 -2.4503 -0.3795
   65MOL   H52942897   3.659   6.097   4.392  0.2764  0.7056  0.1991
   65MOL   C53042898   3.706   5.351   5.281 -0.1720 -0.1795  0.9874
   65MOL   C53142899   3.677   5.346   5.435  0.5451 -0.4358  0.0829
   65MOL   C53242900   3.792   5.419   5.515 -0.0752  0.7155 -0.1572
   65MOL   C53342901   3.747   5.454   5.655  0.1122  0.2884  0.4141
   65MOL   C53442902   3.838   5.552   5.719 -0.0758 -0.3502  0.5213
   65MOL   C53542903   3.839   5.689   5.648 -1.0849  0.4273  0.2388
   65MOL   C53642904   3.883   5.800   5.748  0.1236  0.5379  0.6084
   65MOL   C53742905   3.886   5.928   5.671 -0.3879 -0.3519 -0.4264
   65MOL   C53842906   3.896   6.039   5.769 -0.8412 -0.0271 -0.4745
   65MOL   C53942907   3.856   6.173   5.699  0.0866  0.2081  0.4139
   65MOL   C54042908   3.848   6.292   5.792 -0.0576  0.1394 -0.1638
   65MOL   H54142909   3.680   5.262   5.223 -1.2641  0.4805  0.4282
   65MOL   H54242910   3.813   5.333   5.269 -0.3096 -0.5140  0.1613
   65MOL   H54342911   3.582   5.393   5.458  0.6202 -0.0487 -0.3984
   65MOL   H54442912   3.825   5.506   5.458 -0.9381  0.6692 -0.7469
   65MOL   H54542913   3.874   5.347   5.513 -0.2690  0.5110 -1.1300
   65MOL   H54642914   3.758   5.365   5.716  0.3231  0.0480  0.0264
   65MOL   H54742915   3.644   5.487   5.667 -0.6454 -1.4792 -0.9598
   65MOL   H54842916   3.942   5.521   5.733  0.1982  0.2197 -0.2408
   65MOL   H54942917   3.801   5.566   5.821  2.2013  2.0698  1.0758
   65MOL   H55042918   3.743   5.719   5.606 -0.4671  0.1346 -1.4179
   65MOL   H55142919   3.901   5.693   5.559 -1.1567  0.8140  0.2079
   65MOL   H55242920   3.974   5.764   5.796 -1.4426 -1.8916  1.8520
   65MOL   H55342921   3.802   5.814   5.821  1.9733  1.0854  2.6055
   65MOL   H55442922   3.795   5.934   5.611  0.0634 -2.5124 -1.3900
   65MOL   H55542923   3.971   5.920   5.603 -1.3244  0.4110 -1.7125
   65MOL   H55642924   3.989   6.062   5.821 -1.2334 -1.8345  1.0772
   65MOL   H55742925   3.825   6.018   5.849  0.9439 -1.5790  0.7380
   65MOL   H55842926   3.759   6.158   5.651  1.4460  0.1856 -2.4558
   65MOL   H55942927   3.930   6.198   5.623  0.4924  1.5082  1.2273
   65MOL   H56042928   3.756   6.282   5.850  0.2328 -2.5582 -0.0938
   65MOL   H56142929   3.934   6.294   5.858 -0.2748 -0.5580  0.1385
   65MOL   H56242930   3.860   6.384   5.734 -1.1539 -1.5806 -3.2231
   65MOL   C56342931   3.655   5.195   5.474 -0.2721  0.0525  0.4710
   65MOL   C56442932   3.515   5.128   5.433 -0.0671  0.5145 -0.1848
   65MOL   C56542933   3.386   5.203   5.472 -0.7442  0.3976  0.4037
   65MOL   C56642934   3.370   5.204   5.620 -0.0825 -0.5157  0.4781
   65MOL   C56742935   3.240   5.277   5.668 -0.4823  0.7117 -0.0676
   65MOL   C56842936   3.255   5.426   5.678 -0.5724  0.0365  0.8515
   65MOL   C56942937   3.119   5.493   5.687  0.3178  0.0654 -0.0862
   65MOL   C57042938   3.131   5.640   5.680 -0.3633 -0.0174 -0.2097
   65MOL   C57142939   3.029   5.720   5.759  0.1165 -0.5678  0.7757
   65MOL   C57242940   3.041   5.875   5.755  0.3053  0.0622  0.2589
   65MOL   C57342941   2.935   5.953   5.840 -0.0927 -0.3901 -0.3135
   65MOL   H57442942   3.669   5.167   5.578 -1.1201  0.2301  0.6352
   65MOL   H57542943   3.741   5.138   5.439 -0.2952  1.5495 -2.1755
   65MOL   H57642944   3.502   5.126   5.325  0.4137 -1.3082 -0.2270
   65MOL   H57742945   3.305   5.156   5.416 -1.4549 -1.0420  2.5732
   65MOL   H57842946   3.391   5.304   5.432  1.0195 -0.3105 -1.2598
   65MOL   H57942947   3.460   5.238   5.671  0.5992 -1.8524  0.1980
   65MOL   H58042948   3.370   5.101   5.658  2.1012 -0.5247  0.5510
   65MOL   H58142949   3.197   5.241   5.762 -0.2121  1.3572  0.3074
   65MOL   H58242950   3.160   5.251   5.599  1.2194 -1.8128 -1.1591
   65MOL   H58342951   3.322   5.439   5.763  2.5161 -2.2139 -1.1187
   65MOL   H58442952   3.312   5.452   5.589 -0.8683  0.0478  0.6645
   65MOL   H58542953   3.075   5.462   5.592  0.2647 -0.8233  0.2218
   65MOL   H58642954   3.057   5.455   5.768  0.8339 -0.4789  0.0645
   65MOL   H58742955   3.123   5.669   5.575 -1.4775 -0.4587 -0.2568
   65MOL   H58842956   3.226   5.670   5.723 -0.7930  1.6211 -0.3561
   65MOL   H58942957   3.029   5.684   5.861  0.0482  0.7811  1.2708
   65MOL   H59042958   2.929   5.699   5.721  0.7308 -0.2834 -1.0874
   65MOL   H59142959   3.024   5.909   5.653  0.6596 -1.6725 -0.3947
   65MOL   H59242960   3.144   5.901   5.779  0.3459 -0.9717  1.2721
   65MOL   H59342961   2.952   6.060   5.844 -0.3475 -0.3711  0.3666
   65MOL   H59442962   2.832   5.950   5.804 -0.4573  1.1172  0.5664
   65MOL   H59542963   2.919   5.918   5.942 -0.4882  1.2721  0.2140
   65MOL   C59642964   3.497   4.979   5.475 -0.6211  0.2661 -0.0544
   65MOL   C59742965   3.588   4.879   5.405  0.2587  0.2467 -0.0840
   65MOL   C59842966   3.590   4.882   5.252 -0.2593 -0.1746 -0.1241
   65MOL   C59942967   3.719   4.951   5.182  0.1207  0.4511  0.2594
   65MOL   C60042968   3.757   4.911   5.036 -0.2872  0.3185  0.3726
   65MOL   C60142969   3.853   5.016   4.968  0.1557  0.3633 -0.9798
   65MOL   C60242970   3.913   4.975   4.837  0.3486 -0.3778  0.5137
   65MOL   C60342971   4.038   4.904   4.858 -0.3658  0.0246  0.1896
   65MOL   C60442972   4.118   4.882   4.727 -0.1795  0.8266 -1.2052
   65MOL   C60542973   4.042   4.798   4.619 -0.1957  0.1283 -0.3157
   65MOL   C60642974   4.122   4.737   4.498 -0.2818  0.2729  0.1138
   65MOL   H60742975   3.526   4.960   5.579 -3.5749 -1.4052  0.5379
   65MOL   H60842976   3.391   4.952   5.468 -0.7426  0.5706  0.5972
   65MOL   H60942977   3.684   4.920   5.436 -0.1707  0.3094  1.2295
   65MOL   H61042978   3.505   4.939   5.216 -1.4501  0.4382  3.5651
   65MOL   H61142979   3.582   4.782   5.207  3.0161 -0.0096 -1.2385
   65MOL   H61242980   3.807   4.931   5.243 -0.7521  0.9095  1.6779
   65MOL   H61342981   3.693   5.056   5.187 -2.1790 -0.1840  2.4058
   65MOL   H61442982   3.667   4.897   4.977  0.5273  0.2660 -0.8668
   65MOL   H61542983   3.807   4.814   5.035 -0.9449 -0.0247  0.8116
   65MOL   H61642984   3.794   5.107   4.961  0.7255  0.9441  1.2285
   65MOL   H61742985   3.931   5.048   5.038 -0.0148 -0.2848 -0.4770
   65MOL   H61842986   3.931   5.066   4.779 -3.0588  0.7985  1.2095
   65MOL   H61942987   3.839   4.914   4.784 -0.7110 -0.9919  2.6781
   65MOL   H62042988   4.017   4.807   4.905 -0.9107  0.0187 -0.0637
   65MOL   H62142989   4.103   4.954   4.930  1.1918  0.2593 -1.3509
   65MOL   H62242990   4.154   4.974   4.681 -1.5080  0.7083 -2.5040
   65MOL   H62342991   4.206   4.824   4.756 -0.7095  0.7295  0.2465
   65MOL   H62442992   3.971   4.870   4.578 -0.6034  1.5834  2.8176
   65MOL   H62542993   3.995   4.719   4.678  4.0592 -2.7382 -0.6052
   65MOL   H62642994   4.181   4.815   4.450  0.1887 -1.2644 -1.9016
   65MOL   H62742995   4.180   4.649   4.527 -2.3055 -1.8724 -2.0628
   65MOL   H62842996   4.058   4.697   4.419  0.4170 -1.3948  0.3500
   65MOL   C62942997   3.582   4.732   5.464  0.2232 -0.2516 -0.0871
   65MOL   C63042998   3.694   4.630   5.423 -0.2640  0.2439  0.3983
   65MOL   C63142999   3.685   4.496   5.487 -0.0776 -0.1971  0.1262
   65MOL   C63243000   3.565   4.409   5.431  0.1532  0.4534 -0.0058
   65MOL   C63343001   3.561   4.265   5.482 -0.3798 -0.2083 -0.4199
   65MOL   C63443002   3.476   4.167   5.402  0.0654 -0.3575  0.6230
   65MOL   C63543003   3.322   4.185   5.420 -0.2054  0.2854  0.4080
   65MOL   C63643004   3.261   4.101   5.528  0.0935  0.7568 -0.0916
   65MOL   C63743005   3.106   4.110   5.561 -0.0541 -0.2090 -0.2937
   65MOL   C63843006   3.024   4.025   5.461  0.7459  0.3614 -0.0371
   65MOL   C63943007   2.868   4.064   5.470  0.1022  0.0778  0.8533
   65MOL   H64043008   3.568   4.729   5.572 -1.2699  3.0426 -0.1393
   65MOL   H64143009   3.488   4.684   5.437 -0.9568  1.1000  1.5138
   65MOL   H64243010   3.687   4.635   5.314 -2.2539  1.6540  0.5567
   65MOL   H64343011   3.779   4.442   5.470 -0.0799 -0.1211 -0.1328
   65MOL   H64443012   3.662   4.498   5.594 -0.8852 -0.6775 -0.0344
   65MOL   H64543013   3.569   4.413   5.322  1.0880  2.3270  0.0776
   65MOL   H64643014   3.469   4.458   5.448  0.0779  0.2922  0.0381
   65MOL   H64743015   3.537   4.258   5.588 -0.6830 -1.8418 -0.5809
   65MOL   H64843016   3.661   4.224   5.465 -0.2081  0.2582 -0.5336
   65MOL   H64943017   3.508   4.067   5.430  0.7767 -0.6860 -1.2675
   65MOL   H65043018   3.510   4.184   5.300  1.1957  0.0446  1.0608
   65MOL   H65143019   3.272   4.179   5.323  1.9863 -0.1696 -0.7326
   65MOL   H65243020   3.307   4.291   5.439 -0.3044  0.1378  1.1683
   65MOL   H65343021   3.313   4.137   5.616  1.3762  0.3517 -0.6786
   65MOL   H65443022   3.288   3.995   5.521 -0.6035  0.5243  0.6026
   65MOL   H65543023   3.081   4.216   5.550 -2.1641 -0.9189 -2.6466
   65MOL   H65643024   3.081   4.088   5.665 -1.0348  3.9811  0.4690
   65MOL   H65743025   3.052   3.921   5.477  0.9913  0.5113  0.4914
   65MOL   H65843026   3.057   4.040   5.358  2.3176 -3.5789 -0.1703
   65MOL   H65943027   2.840   4.168   5.454  1.5647  0.5080  1.0237
   65MOL   H66043028   2.826   4.026   5.563 -3.1527 -1.6062 -1.1902
   65MOL   H66143029   2.815   4.012   5.391 -1.1534  0.4504  1.4317
   65MOL   H66243030   3.791   4.655   5.464 -0.3895 -0.8724  1.4031
   66MOL     C143031   2.308   5.001   1.032  0.4032  0.1330  0.2792
   66MOL     C243032   2.323   5.147   0.982 -0.2288  0.2323  0.3941
   66MOL     C343033   2.385   5.234   1.084 -0.1145 -0.0227  0.5402
   66MOL     C443034   2.345   5.213   1.231 -0.3755  0.8112 -0.0327
   66MOL     C543035   2.417   5.311   1.320  0.2802  0.2086 -0.3559
   66MOL     C643036   2.415   5.281   1.471  0.3270 -0.4424  0.4762
   66MOL     C743037   2.287   5.309   1.551  0.0886  0.4995 -0.3019
   66MOL     C843038   2.305   5.259   1.690  0.0687  0.2626  0.1042
   66MOL     C943039   2.196   5.302   1.788  0.0159  0.1070 -1.8177
   66MOL    C1043040   2.221   5.250   1.929  0.3366 -0.6740 -0.5539
   66MOL    C1143041   2.117   5.284   2.033 -0.7097 -0.1303 -0.0667
   66MOL    H1243042   2.405   4.951   1.038  0.3105 -0.2130 -1.0417
   66MOL    H1343043   2.233   4.948   0.975 -0.8735  0.5366  1.5539
   66MOL    H1443044   2.220   5.179   0.965 -0.9650 -2.5283 -0.6130
   66MOL    H1543045   2.357   5.333   1.046  0.9931 -0.6979 -2.1096
   66MOL    H1643046   2.493   5.243   1.077 -0.1548  2.1563  2.1480
   66MOL    H1743047   2.373   5.114   1.267  0.3431  0.5615 -1.2218
   66MOL    H1843048   2.238   5.227   1.246 -0.3304  0.5880  0.4999
   66MOL    H1943049   2.523   5.325   1.295  0.6375 -2.3102 -0.4446
   66MOL    H2043050   2.373   5.410   1.312 -0.0503 -0.0605 -2.1310
   66MOL    H2143051   2.496   5.346   1.505 -0.2392  1.8411 -2.3578
   66MOL    H2243052   2.450   5.178   1.478  0.2388 -0.4937  0.1789
   66MOL    H2343053   2.263   5.415   1.546 -0.7605  0.3088 -0.3993
   66MOL    H2443054   2.200   5.254   1.513 -0.1177  0.3937  0.3251
   66MOL    H2543055   2.396   5.304   1.729 -0.3026  1.0464  0.0732
   66MOL    H2643056   2.314   5.150   1.700  0.3305  0.3323  0.6470
   66MOL    H2743057   2.098   5.263   1.761 -1.4463  2.6082 -0.2883
   66MOL    H2843058   2.189   5.411   1.786  0.3771  0.1572 -0.7142
   66MOL    H2943059   2.312   5.298   1.965 -0.0931 -0.7365  0.6366
   66MOL    H3043060   2.233   5.142   1.920  2.1859 -0.6236  0.9619
   66MOL    H3143061   2.168   5.271   2.128 -0.8596 -0.5360 -0.0409
   66MOL    H3243062   2.102   5.392   2.039 -1.6675 -0.1840 -1.2980
   66MOL    H3343063   2.022   5.232   2.018 -0.7191  0.1195 -0.9076
   66MOL    H3443064   2.263   4.993   1.131 -0.5622 -1.6703 -0.3036
   66MOL    C3543065   2.416   5.141   0.856  0.4438 -0.4229  0.9240
   66MOL    C3643066   2.418   5.258   0.756 -0.1132 -0.2599 -0.4120
   66MOL    C3743067   2.275   5.271   0.704 -0.0385 -0.5172  0.1954
   66MOL    C3843068   2.275   5.361   0.578  0.1020 -0.5073 -0.6487
   66MOL    C3943069   2.152   5.334   0.492  0.5373 -0.5961 -0.3182
   66MOL    C4043070   2.011   5.341   0.562 -0.2133 -0.3294  0.4532
   66MOL    C4143071   1.982   5.483   0.621  0.1806 -0.2028 -0.2314
   66MOL    C4243072   1.835   5.486   0.654 -0.4477  0.2777 -0.1616
   66MOL    C4343073   1.799   5.617   0.713  0.2142 -0.0320  0.3757
   66MOL    C4443074   1.651   5.635   0.748  0.7435  0.1496 -0.1362
   66MOL    C4543075   1.616   5.770   0.814  0.3961 -0.3733 -0.4591
   66MOL    H4643076   2.385   5.054   0.797  4.1758  0.0113 -1.8481
   66MOL    H4743077   2.518   5.122   0.889  0.2875 -2.0921  0.5210
   66MOL    H4843078   2.482   5.210   0.682 -0.7576 -0.6656 -0.7024
   66MOL    H4943079   2.243   5.173   0.668 -4.4526  0.7583  0.4648
   66MOL    H5043080   2.206   5.307   0.779 -0.0270 -1.5595  0.7196
   66MOL    H5143081   2.364   5.340   0.518 -0.6611  0.8671 -2.2951
   66MOL    H5243082   2.270   5.466   0.609  0.0104 -0.6014 -0.3473
   66MOL    H5343083   2.156   5.231   0.460 -0.4814 -0.4962 -0.7761
   66MOL    H5443084   2.153   5.397   0.404 -0.7048  1.1495  0.8782
   66MOL    H5543085   2.006   5.267   0.642  1.3970 -1.2902 -0.3108
   66MOL    H5643086   1.934   5.306   0.494  0.1629  0.7095 -0.5265
   66MOL    H5743087   2.036   5.500   0.714 -0.0921  1.1693 -0.3080
   66MOL    H5843088   2.009   5.567   0.557  1.0655 -1.3098 -1.3388
   66MOL    H5943089   1.815   5.404   0.722  1.8829 -0.1289  0.0759
   66MOL    H6043090   1.774   5.463   0.566  0.4160  1.8412 -1.1960
   66MOL    H6143091   1.835   5.697   0.649  1.7752 -0.8361  0.2253
   66MOL    H6243092   1.851   5.615   0.809  0.6091  0.9317  0.1912
   66MOL    H6343093   1.580   5.611   0.669 -1.0640 -0.1904  1.5265
   66MOL    H6443094   1.623   5.556   0.819 -2.2144  1.4168  0.1875
   66MOL    H6543095   1.674   5.787   0.905 -2.0755  0.0589  1.0858
   66MOL    H6643096   1.637   5.854   0.747  0.6128  0.6714  0.8842
   66MOL    H6743097   1.512   5.780   0.848  0.9286 -0.4655  1.2587
   66MOL    C6843098   2.497   5.384   0.792 -0.1244  0.2065  0.1474
   66MOL    C6943099   2.650   5.379   0.818 -0.0278 -0.4253  0.2497
   66MOL    C7043100   2.738   5.350   0.695  0.3761  0.1900  0.9615
   66MOL    C7143101   2.728   5.454   0.581 -0.1720 -0.1075 -0.2776
   66MOL    C7243102   2.838   5.419   0.476 -0.1045  0.1890  0.0842
   66MOL    C7343103   2.855   5.517   0.366 -0.2805 -0.0133  1.1022
   66MOL    C7443104   2.741   5.515   0.265 -0.0188  0.1945  0.1454
   66MOL    C7543105   2.761   5.629   0.171  0.0437  0.6070 -0.0412
   66MOL    C7643106   2.661   5.635   0.067  0.2953 -0.5063 -0.2794
   66MOL    C7743107   2.694   5.734   7.663  0.0698  0.2611  0.6113
   66MOL    C7843108   2.660   5.881   7.697 -0.5782  0.0448 -0.5860
   66MOL    H7943109   2.458   5.435   0.880  0.1656  0.8565 -0.0957
   66MOL    H8043110   2.490   5.461   0.715 -1.4716  1.0514  1.0846
   66MOL    H8143111   2.663   5.288   0.877  2.8451  0.0124  0.3826
   66MOL    H8243112   2.711   5.254   0.652 -1.4274  1.0891  0.0411
   66MOL    H8343113   2.839   5.324   0.728  0.1979 -1.3206  0.3403
   66MOL    H8443114   2.628   5.466   0.537  0.4396 -2.0472 -2.2796
   66MOL    H8543115   2.752   5.552   0.621 -2.4648  1.6608 -2.9458
   66MOL    H8643116   2.825   5.314   0.448  1.4800  0.1785 -0.6602
   66MOL    H8743117   2.930   5.423   0.534  0.3869  2.2474 -0.7839
   66MOL    H8843118   2.862   5.615   0.413 -0.5915  0.5378  0.0201
   66MOL    H8943119   2.942   5.486   0.309  0.1992 -1.3307  2.5107
   66MOL    H9043120   2.642   5.520   0.310 -0.4126 -1.4419 -0.4739
   66MOL    H9143121   2.742   5.426   0.201 -3.0074 -0.6983  1.2641
   66MOL    H9243122   2.768   5.729   0.214  0.2984  0.5158  0.1251
   66MOL    H9343123   2.857   5.619   0.120 -0.5221  1.4785 -1.2923
   66MOL    H9443124   2.659   5.536   0.022 -0.3999 -1.3334  1.4980
   66MOL    H9543125   2.562   5.649   0.110  0.1273  3.0651 -1.6751
   66MOL    H9643126   2.798   5.724   7.633  0.2647  2.0355  0.6598
   66MOL    H9743127   2.629   5.709   7.579 -1.6506 -1.1941  2.3400
   66MOL    H9843128   2.552   5.895   0.003 -0.5797  0.3269 -1.0293
   66MOL    H9943129   2.695   5.954   7.624  1.7724  0.1758  0.6280
   66MOL   H10043130   2.705   5.902   0.090  0.3515  1.4620 -1.3250
   66MOL   C10143131   2.709   5.504   0.890  0.3324  0.4430 -0.9904
   66MOL   C10243132   2.859   5.509   0.934 -0.4672  0.6359  0.1429
   66MOL   C10343133   2.913   5.384   1.010 -0.7933 -0.1733 -0.5604
   66MOL   C10443134   3.062   5.368   1.021  0.1585  0.0469 -1.2934
   66MOL   C10543135   3.093   5.288   1.156  0.1640 -0.6573 -0.0548
   66MOL   C10643136   3.083   5.135   1.135  0.3212  0.3812  0.7406
   66MOL   C10743137   3.221   5.094   1.076 -0.0923 -0.3936  0.6949
   66MOL   C10843138   3.232   4.946   1.039  0.1085 -0.1454 -0.4122
   66MOL   C10943139   3.270   4.856   1.158  0.0223  0.7769 -0.2955
   66MOL   C11043140   3.260   4.700   1.129 -0.2716  0.1971 -0.0381
   66MOL   C11143141   3.115   4.647   1.136  0.0584 -0.6371  0.0654
   66MOL   H11243142   2.677   5.590   0.831 -0.4281  1.0085  0.2491
   66MOL   H11343143   2.644   5.522   0.975  3.0798 -0.3366  1.3423
   66MOL   H11443144   2.924   5.529   0.849  0.3856 -0.1522  0.6063
   66MOL   H11543145   2.879   5.395   1.113 -1.1272  0.4185 -0.7272
   66MOL   H11643146   2.870   5.292   0.969  0.6425 -0.9067 -0.4386
   66MOL   H11743147   3.089   5.311   0.933 -0.9418  0.2672 -1.7796
   66MOL   H11843148   3.119   5.461   1.016  0.7034 -0.3603 -2.7061
   66MOL   H11943149   3.194   5.319   1.181  0.7025 -1.8607 -0.7154
   66MOL   H12043150   3.029   5.327   1.235  2.1328  2.3822  0.1420
   66MOL   H12143151   3.072   5.078   1.227 -0.0414  0.4377  0.7308
   66MOL   H12243152   3.002   5.102   1.071 -0.5372  1.6146  1.1644
   66MOL   H12343153   3.305   5.115   1.142  1.0603 -2.2190 -0.1516
   66MOL   H12443154   3.244   5.143   0.982 -0.9544 -0.4666  0.4456
   66MOL   H12543155   3.139   4.920   0.989  0.4798 -0.5190 -0.9135
   66MOL   H12643156   3.299   4.927   0.955  0.2853 -2.6366  0.2398
   66MOL   H12743157   3.362   4.881   1.211  1.1815 -2.8805 -0.4439
   66MOL   H12843158   3.189   4.875   1.229  0.3350  2.4263 -0.3599
   66MOL   H12943159   3.319   4.646   1.203  2.3876  1.3177 -1.2847
   66MOL   H13043160   3.305   4.666   1.036 -0.7836 -1.4153  0.2855
   66MOL   H13143161   3.106   4.541   1.111 -0.8906 -0.5458 -0.0127
   66MOL   H13243162   3.068   4.661   1.233  3.1103 -0.6472  1.6102
   66MOL   H13343163   3.057   4.702   1.063  0.5491 -1.4352 -0.9390
   66MOL   C13443164   2.884   5.638   1.019  0.0816 -0.2020  0.3564
   66MOL   C13543165   2.876   5.770   0.934  0.4901  1.0094  0.2739
   66MOL   C13643166   3.010   5.798   0.873  0.4617  0.6394 -0.1046
   66MOL   C13743167   3.016   5.890   0.747 -0.1736 -1.0425 -0.7494
   66MOL   C13843168   3.163   5.936   0.721 -0.6967  0.5213 -0.7445
   66MOL   C13943169   3.170   6.011   0.591 -0.6806 -0.5432 -0.2054
   66MOL   C14043170   3.311   6.069   0.576  1.3263  0.3503  0.3112
   66MOL   C14143171   3.309   6.167   0.466 -0.7229  0.6163  0.4649
   66MOL   C14243172   3.434   6.182   0.373 -0.7298  0.1221  0.1316
   66MOL   C14343173   3.424   6.281   0.260  0.1472 -0.1375  1.3129
   66MOL   C14443174   3.303   6.256   0.164 -0.7707 -0.3502  0.4199
   66MOL   H14543175   2.811   5.646   1.100  0.4003 -1.8245  0.8291
   66MOL   H14643176   2.976   5.633   1.077 -0.8794 -0.6300  1.8828
   66MOL   H14743177   2.801   5.772   0.854  0.1073 -0.3436  0.5847
   66MOL   H14843178   3.058   5.705   0.844  0.8105  0.4533  1.0334
   66MOL   H14943179   3.075   5.845   0.947  0.1952 -1.0032  1.2047
   66MOL   H15043180   2.960   5.845   0.665 -0.1923 -0.5692 -1.0008
   66MOL   H15143181   2.953   5.978   0.758  1.3001 -0.0236 -0.1959
   66MOL   H15243182   3.197   6.004   0.799  0.6662 -0.9239 -0.0420
   66MOL   H15343183   3.226   5.846   0.718  0.1419  1.1360 -1.8079
   66MOL   H15443184   3.139   5.952   0.504  0.6779  1.3386 -2.0060
   66MOL   H15543185   3.101   6.094   0.606  1.8923  1.2088  2.3505
   66MOL   H15643186   3.340   6.120   0.668 -1.3322  0.8404  0.9130
   66MOL   H15743187   3.382   5.988   0.559  0.1912 -0.5429 -0.2434
   66MOL   H15843188   3.229   6.130   0.402  1.2405 -1.7850 -0.6831
   66MOL   H15943189   3.274   6.263   0.505 -0.5055  1.8109 -2.1276
   66MOL   H16043190   3.518   6.200   0.439 -0.5923  0.0661 -0.0292
   66MOL   H16143191   3.445   6.080   0.337 -0.5805  0.2484 -0.1826
   66MOL   H16243192   3.421   6.382   0.301  1.2261  0.5738 -0.2867
   66MOL   H16343193   3.512   6.271   0.197 -0.5584  0.5613  0.1954
   66MOL   H16443194   3.307   6.318   0.074  2.1854  1.7085  1.8904
   66MOL   H16543195   3.213   6.274   0.222 -1.2568 -2.4826  0.3420
   66MOL   H16643196   3.301   6.156   0.122 -0.2354  0.7060 -2.2985
   66MOL   C16743197   2.835   5.895   1.017  0.7024  0.0722 -0.9491
   66MOL   C16843198   2.681   5.886   1.053 -0.5262 -0.5197 -0.0434
   66MOL   C16943199   2.588   5.964   0.948  0.5257 -0.6277  0.4677
   66MOL   C17043200   2.452   5.904   0.932  0.2381  0.5517 -0.2433
   66MOL   C17143201   2.428   5.760   0.882 -0.1898 -0.3055  0.0066
   66MOL   C17243202   2.286   5.704   0.888  0.2664 -0.1207 -0.3636
   66MOL   C17343203   2.237   5.677   1.037 -0.6975  0.2655  0.3489
   66MOL   C17443204   2.127   5.565   1.045 -0.2549  1.2991  0.2530
   66MOL   C17543205   2.050   5.581   1.181 -0.7727  0.0108  0.0696
   66MOL   C17643206   1.943   5.468   1.204  0.2061 -0.2362 -0.1564
   66MOL   C17743207   1.858   5.500   1.328 -0.0092 -0.0957 -0.2840
   66MOL   H17843208   2.899   5.895   1.106 -0.3064  2.7188 -0.1813
   66MOL   H17943209   2.848   5.988   0.962  0.5621  0.1070 -0.9224
   66MOL   H18043210   2.661   5.779   1.049 -0.1066 -0.6927  2.0697
   66MOL   H18143211   2.629   5.975   0.848  1.0716  0.9515  0.8488
   66MOL   H18243212   2.573   6.070   0.969 -0.5342 -1.5470  5.0997
   66MOL   H18343213   2.402   5.919   1.027 -0.7041 -0.7454 -0.5059
   66MOL   H18443214   2.400   5.966   0.859 -3.2507 -0.4336  1.2877
   66MOL   H18543215   2.502   5.687   0.917  1.4494  1.2256 -0.1721
   66MOL   H18643216   2.451   5.755   0.776 -0.5094  0.5705 -0.1119
   66MOL   H18743217   2.216   5.778   0.850  0.9547  2.1279  2.5858
   66MOL   H18843218   2.266   5.617   0.824 -0.8512 -0.1289 -0.0066
   66MOL   H18943219   2.181   5.759   1.081  0.7105  2.2581 -1.4530
   66MOL   H19043220   2.323   5.647   1.097 -0.7358 -2.5594 -0.9366
   66MOL   H19143221   2.059   5.567   0.960  2.3593  1.1964 -1.9076
   66MOL   H19243222   2.184   5.473   1.046 -0.5556  1.1150  0.3071
   66MOL   H19343223   1.994   5.675   1.179  0.1347  0.5577  0.2651
   66MOL   H19443224   2.124   5.582   1.260  1.5186 -1.0178 -2.0138
   66MOL   H19543225   1.989   5.372   1.228 -0.6521 -0.6187 -0.0064
   66MOL   H19643226   1.876   5.445   1.121 -0.3683  0.8930 -0.0210
   66MOL   H19743227   1.800   5.591   1.316  0.2045 -0.1121 -1.5732
   66MOL   H19843228   1.926   5.526   1.409  1.8143 -3.6316 -0.5515
   66MOL   H19943229   1.802   5.407   1.345 -0.0420 -0.1277 -0.5527
   66MOL   C20043230   2.648   5.934   1.199  0.4937 -0.2086  0.5152
   66MOL   C20143231   2.703   5.824   1.298  0.0298  0.4972 -0.1331
   66MOL   C20243232   2.606   5.698   1.295 -0.4448 -0.6025 -0.9119
   66MOL   C20343233   2.648   5.602   1.400  0.6230  0.4351 -0.0427
   66MOL   C20443234   2.771   5.522   1.354 -0.0883  0.0716 -0.0743
   66MOL   C20543235   2.803   5.404   1.452 -0.6095  0.1068  0.1352
   66MOL   C20643236   2.835   5.442   1.593  0.7683 -0.1010 -1.0567
   66MOL   C20743237   2.870   5.330   1.688 -0.2779 -1.0637 -0.9738
   66MOL   C20843238   2.935   5.380   1.814  0.0284  0.2207 -0.2759
   66MOL   C20943239   2.953   5.255   1.916  0.2257  0.2892  0.2838
   66MOL   C21043240   3.038   5.305   2.034 -0.3590 -0.4661  0.7453
   66MOL   H21143241   2.689   6.034   1.203  1.1639 -0.5333  2.0206
   66MOL   H21243242   2.544   5.936   1.232  0.9960 -1.7459  2.3273
   66MOL   H21343243   2.804   5.796   1.268 -0.4240 -0.0586 -1.1689
   66MOL   H21443244   2.615   5.631   1.209  0.1735 -1.4976 -0.1572
   66MOL   H21543245   2.500   5.725   1.295 -0.1732  0.4823 -1.0854
   66MOL   H21643246   2.564   5.535   1.415  0.6871 -0.0903 -1.9369
   66MOL   H21743247   2.662   5.634   1.503 -0.0924 -2.9454  1.1669
   66MOL   H21843248   2.870   5.563   1.339  0.0828 -0.1884  0.3364
   66MOL   H21943249   2.744   5.476   1.258 -0.3744  1.3180 -0.6081
   66MOL   H22043250   2.716   5.338   1.453  0.4163 -1.2513 -0.1398
   66MOL   H22143251   2.877   5.344   1.401 -1.0081 -0.6931  0.4879
   66MOL   H22243252   2.753   5.505   1.629  1.4934  0.6365 -0.6878
   66MOL   H22343253   2.924   5.504   1.589  1.4176 -1.0868 -2.0979
   66MOL   H22443254   2.938   5.259   1.640  2.5003  1.7722 -1.4113
   66MOL   H22543255   2.775   5.283   1.712  0.2237 -1.6302 -0.0761
   66MOL   H22643256   2.869   5.449   1.866  0.3176 -0.6436  1.2855
   66MOL   H22743257   3.030   5.428   1.790  0.9366  0.0676  2.6820
   66MOL   H22843258   2.855   5.223   1.953 -0.3792  0.3977 -1.1646
   66MOL   H22943259   2.995   5.174   1.856 -0.5465 -0.1600  0.3356
   66MOL   H23043260   3.054   5.228   2.110  0.8138  1.1342  2.1779
   66MOL   H23143261   2.981   5.377   2.093 -0.8677  0.2915 -0.6526
   66MOL   H23243262   3.140   5.332   2.006 -0.3868 -2.3581 -1.3215
   66MOL   C23343263   2.717   5.878   1.438 -0.4071  0.1220  0.2001
   66MOL   C23443264   2.871   5.900   1.476  0.3605  0.0192 -0.3208
   66MOL   C23543265   2.876   5.929   1.627  0.1678 -0.0933  0.6917
   66MOL   C23643266   2.804   5.829   1.721  0.4629  0.0157 -0.0292
   66MOL   C23743267   2.892   5.792   1.839  0.0227  0.2787  0.0208
   66MOL   C23843268   3.024   5.717   1.810 -0.7932 -0.0424 -0.3174
   66MOL   C23943269   3.114   5.675   1.935  0.6834  0.0201  0.1095
   66MOL   C24043270   3.196   5.800   1.985 -0.4409  0.3344 -0.3138
   66MOL   C24143271   3.237   5.766   2.131 -0.1083 -0.2577  0.0017
   66MOL   C24243272   3.355   5.866   2.172  0.0758  0.1655 -0.5855
   66MOL   C24343273   3.378   5.866   2.325 -0.2577  0.4696  0.4109
   66MOL   H24443274   2.657   5.825   1.511 -0.7580 -1.0325 -0.9068
   66MOL   H24543275   2.679   5.980   1.446 -1.6390 -0.3016 -0.2070
   66MOL   H24643276   2.923   5.805   1.468 -0.3417 -0.3427 -0.6482
   66MOL   H24743277   2.977   5.946   1.663  0.0627  0.8147  0.5778
   66MOL   H24843278   2.822   6.023   1.644 -0.6631 -0.4808  0.2055
   66MOL   H24943279   2.794   5.734   1.670  0.8360  1.3066 -2.5921
   66MOL   H25043280   2.700   5.852   1.744 -0.7371 -1.3391 -3.6925
   66MOL   H25143281   2.833   5.735   1.911  0.0253 -0.2466 -0.3936
   66MOL   H25243282   2.911   5.883   1.896 -0.2979  1.3462 -1.5620
   66MOL   H25343283   3.088   5.783   1.752  0.1661 -0.7324 -0.0615
   66MOL   H25443284   3.018   5.631   1.745 -0.4497  1.2248 -2.0712
   66MOL   H25543285   3.058   5.622   2.011  0.0248  2.1680  1.1757
   66MOL   H25643286   3.187   5.602   1.900  1.3611  1.5050 -1.6606
   66MOL   H25743287   3.287   5.807   1.926  0.1637 -0.8499  0.4659
   66MOL   H25843288   3.130   5.887   1.993  0.7727  0.9903  4.4210
   66MOL   H25943289   3.145   5.776   2.189 -0.7329  2.4743 -1.4008
   66MOL   H26043290   3.275   5.664   2.138  1.0229  0.2000  0.6285
   66MOL   H26143291   3.331   5.968   2.140 -1.4666 -0.3157 -1.0173
   66MOL   H26243292   3.445   5.840   2.117  0.5720 -0.6342  0.5846
   66MOL   H26343293   3.374   5.972   2.350 -0.7354  0.2867  1.1180
   66MOL   H26443294   3.481   5.839   2.351 -0.5526  0.3509  1.4934
   66MOL   H26543295   3.306   5.809   2.384 -1.2978 -0.3524 -1.6146
   66MOL   C26643296   2.947   6.003   1.391  0.6690  0.5068  0.2883
   66MOL   C26743297   3.095   5.966   1.377 -0.1311 -0.5202 -0.5256
   66MOL   C26843298   3.175   6.087   1.330 -0.3398  0.1048 -0.2054
   66MOL   C26943299   3.163   6.134   1.178 -0.5363 -0.3829 -0.1805
   66MOL   C27043300   3.285   6.210   1.129 -0.5298 -0.3759  0.6674
   66MOL   C27143301   3.268   6.258   0.989 -0.2531 -0.0554  0.0933
   66MOL   C27243302   3.370   6.369   0.951  0.5124  0.1728  0.2679
   66MOL   C27343303   3.378   6.406   0.802 -0.6741  0.3827 -0.6035
   66MOL   C27443304   3.454   6.531   0.789 -0.6367  0.0142  0.6043
   66MOL   C27543305   3.429   6.620   0.670  0.3125  0.5807  0.4998
   66MOL   C27643306   3.467   6.566   0.530  0.2019 -0.9311  0.0750
   66MOL   H27743307   2.940   6.098   1.443 -2.1887  0.4309  0.1074
   66MOL   H27843308   2.919   6.018   1.287  2.6026  2.2519 -0.0103
   66MOL   H27943309   3.133   5.952   1.478 -1.0189  0.6358 -0.0223
   66MOL   H28043310   3.182   6.168   1.403  3.2107  1.4998 -1.9462
   66MOL   H28143311   3.279   6.054   1.331 -1.0147 -2.1296 -0.3668
   66MOL   H28243312   3.074   6.197   1.167  0.2304  0.9250  0.9282
   66MOL   H28343313   3.137   6.054   1.109  1.3989  0.2033 -1.6103
   66MOL   H28443314   3.378   6.153   1.132 -0.5302 -0.4328 -0.1535
   66MOL   H28543315   3.316   6.292   1.193  1.9776 -2.1153  1.7801
   66MOL   H28643316   3.165   6.291   0.972 -0.1726  0.1802  0.0686
   66MOL   H28743317   3.286   6.172   0.925  1.1139 -1.7006  2.5951
   66MOL   H28843318   3.346   6.463   1.000 -0.9971 -0.1050  0.0972
   66MOL   H28943319   3.462   6.327   0.991 -0.4777 -2.1613  0.1645
   66MOL   H29043320   3.279   6.413   0.756 -1.6384  0.6129  1.4406
   66MOL   H29143321   3.431   6.335   0.739  1.5189  2.2446 -0.9401
   66MOL   H29243322   3.418   6.592   0.872 -2.1034  1.3006 -0.9446
   66MOL   H29343323   3.561   6.519   0.809 -0.2977  1.7214 -0.0764
   66MOL   H29443324   3.492   6.708   0.687  0.0644  0.8398  0.0779
   66MOL   H29543325   3.325   6.653   0.664 -0.0662 -0.1642  2.4719
   66MOL   H29643326   3.422   6.471   0.500 -1.4377 -0.3865  0.8143
   66MOL   H29743327   3.574   6.549   0.519  0.7032  1.8594  0.2532
   66MOL   H29843328   3.447   6.642   0.455 -0.4888  0.2362  1.4293
   66MOL   C29943329   3.119   5.833   1.294 -0.7383  0.1950  0.5082
   66MOL   C30043330   3.244   5.748   1.343  0.4332 -0.4500 -0.3388
   66MOL   C30143331   3.322   5.671   1.230  0.2605 -0.4040  0.1908
   66MOL   C30243332   3.419   5.763   1.149 -0.5105  0.3941 -0.4361
   66MOL   C30343333   3.489   5.687   1.029  0.1714 -0.4901 -0.5011
   66MOL   C30443334   3.591   5.766   0.959  0.5203 -0.4136  0.9910
   66MOL   C30543335   3.556   5.885   0.872 -0.1394  0.0803 -0.1261
   66MOL   C30643336   3.675   5.965   0.826  0.5711  0.3547 -0.3538
   66MOL   C30743337   3.646   6.107   0.760 -0.6086 -0.2033 -0.6134
   66MOL   C30843338   3.773   6.147   0.687  0.2302 -0.6738 -0.0233
   66MOL   C30943339   3.780   6.294   0.645  0.5793  0.2016  0.5791
   66MOL   H31043340   3.144   5.861   1.191 -0.2123 -0.1803  0.5337
   66MOL   H31143341   3.026   5.777   1.282 -2.0952  2.3001  0.8906
   66MOL   H31243342   3.312   5.828   1.373  2.2880 -2.5340  1.1168
   66MOL   H31343343   3.376   5.579   1.253  1.2034 -0.2713 -1.4196
   66MOL   H31443344   3.241   5.637   1.166 -0.7821 -1.6449  2.1144
   66MOL   H31543345   3.357   5.842   1.106 -0.1529  0.9542  0.0692
   66MOL   H31643346   3.494   5.805   1.215 -1.6773  2.0006 -0.1003
   66MOL   H31743347   3.550   5.604   1.064 -0.6118 -0.2992  1.3735
   66MOL   H31843348   3.413   5.647   0.962 -2.0165  0.4709  1.3418
   66MOL   H31943349   3.635   5.684   0.903  0.6648  0.0551  0.4081
   66MOL   H32043350   3.672   5.787   1.029  0.0527  2.3965  0.7742
   66MOL   H32143351   3.493   5.857   0.788 -0.5429  0.9393 -0.1130
   66MOL   H32243352   3.495   5.957   0.925 -1.3080 -0.9667 -0.0231
   66MOL   H32343353   3.728   5.900   0.756  2.9952  0.3171  1.4493
   66MOL   H32443354   3.754   5.971   0.901  1.1475 -2.4964 -0.6541
   66MOL   H32543355   3.624   6.177   0.841 -1.8640 -0.3706 -0.8054
   66MOL   H32643356   3.559   6.110   0.695  0.6260  0.0014 -2.2892
   66MOL   H32743357   3.788   6.087   0.598 -1.2132  1.0734 -1.4751
   66MOL   H32843358   3.863   6.122   0.743  1.1102 -1.8799 -1.9489
   66MOL   H32943359   3.779   6.364   0.729  1.5529 -0.7965  1.4452
   66MOL   H33043360   3.870   6.321   0.590 -0.2478 -0.0621 -0.9460
   66MOL   H33143361   3.701   6.320   0.575 -0.0306  0.4429  1.3423
   66MOL   C33243362   3.211   5.655   1.464  0.1298  0.7645 -0.6363
   66MOL   C33343363   3.335   5.618   1.551 -0.3718 -0.0526  0.4539
   66MOL   C33443364   3.313   5.483   1.621 -0.8081  0.3939 -0.7760
   66MOL   C33543365   3.342   5.356   1.537  0.1228  0.4504  0.1734
   66MOL   C33643366   3.234   5.247   1.565  0.3794  0.1661  0.1182
   66MOL   C33743367   3.260   5.106   1.505  0.7431  0.7643  0.1461
   66MOL   C33843368   3.164   4.999   1.569  0.5445 -0.0498 -0.0840
   66MOL   C33943369   3.223   4.859   1.585  0.2098 -0.4745 -0.2575
   66MOL   C34043370   3.124   4.744   1.595  0.4854  0.4629 -0.4329
   66MOL   C34143371   3.193   4.606   1.626 -0.6515 -0.2020 -0.3368
   66MOL   C34243372   3.100   4.482   1.633  0.1553  0.2717 -0.7712
   66MOL   H34343373   3.139   5.696   1.536  0.2092 -1.0987  0.5176
   66MOL   H34443374   3.156   5.570   1.426 -0.9610  0.8029  0.7926
   66MOL   H34543375   3.420   5.595   1.487 -1.2358  0.7014 -0.9789
   66MOL   H34643376   3.209   5.480   1.654 -0.3464 -3.0803  0.5180
   66MOL   H34743377   3.362   5.481   1.718 -0.0551  2.4964 -1.0859
   66MOL   H34843378   3.349   5.384   1.432 -1.0693  0.4390  0.0869
   66MOL   H34943379   3.438   5.308   1.553 -0.1915 -0.6295 -1.1222
   66MOL   H35043380   3.248   5.228   1.672  0.5169 -1.0570 -0.1085
   66MOL   H35143381   3.140   5.293   1.533 -0.1143  0.4425  1.8948
   66MOL   H35243382   3.358   5.071   1.537 -0.3134 -1.9595  0.5106
   66MOL   H35343383   3.260   5.100   1.396  0.8975  0.7064  0.1488
   66MOL   H35443384   3.088   4.976   1.494  1.5605  2.5008 -1.9934
   66MOL   H35543385   3.117   5.030   1.662 -1.3158 -1.4804 -0.5121
   66MOL   H35643386   3.279   4.849   1.492 -1.1420 -0.0574 -1.1371
   66MOL   H35743387   3.298   4.866   1.664 -1.4740  1.8211  1.1889
   66MOL   H35843388   3.053   4.745   1.512  0.5860  0.3003 -0.5206
   66MOL   H35943389   3.060   4.765   1.681  1.0074  2.2772 -0.4698
   66MOL   H36043390   3.234   4.624   1.726  0.8920 -1.5858 -0.6915
   66MOL   H36143391   3.278   4.593   1.559 -1.3968 -0.6148 -1.1996
   66MOL   H36243392   3.017   4.504   1.700 -0.4825  2.0477 -2.0910
   66MOL   H36343393   3.053   4.452   1.539 -0.3389  2.3873 -1.2223
   66MOL   H36443394   3.148   4.390   1.667 -1.2678 -1.3143 -2.8877
   66MOL   C36543395   3.378   5.725   1.646  0.0766  0.4092  0.0110
   66MOL   C36643396   3.499   5.817   1.602  0.1924  1.0300 -0.4501
   66MOL   C36743397   3.448   5.965   1.629 -0.1061 -0.0112 -0.0173
   66MOL   C36843398   3.551   6.078   1.586  0.1659 -0.5695  0.3763
   66MOL   C36943399   3.591   6.065   1.440 -0.4992 -0.3780 -0.7031
   66MOL   C37043400   3.667   6.188   1.398  0.3352 -0.3124 -0.6960
   66MOL   C37143401   3.693   6.192   1.249  0.0117  0.1387  0.9611
   66MOL   C37243402   3.749   6.324   1.197  0.2576  0.1926 -0.3082
   66MOL   C37343403   3.791   6.347   1.046 -0.4158 -0.4243 -0.7992
   66MOL   C37443404   3.898   6.462   1.025  1.0654 -0.3171 -0.5731
   66MOL   C37543405   4.039   6.409   0.990  0.2275  0.0717 -0.8496
   66MOL   H37643406   3.294   5.778   1.692 -1.1766 -0.7078 -0.9239
   66MOL   H37743407   3.421   5.673   1.732  1.4394  0.8991 -0.3654
   66MOL   H37843408   3.512   5.815   1.494  2.3107 -3.0664 -0.2156
   66MOL   H37943409   3.421   5.974   1.734 -0.6372  0.5472 -0.1965
   66MOL   H38043410   3.356   5.974   1.570 -0.1160 -2.0860 -0.3669
   66MOL   H38143411   3.629   6.097   1.660 -0.5650  0.4959  0.8819
   66MOL   H38243412   3.502   6.175   1.590  3.1390  1.1307 -2.1274
   66MOL   H38343413   3.502   6.046   1.381 -0.4411  0.6261 -1.1248
   66MOL   H38443414   3.664   5.985   1.436 -1.0561 -0.8472 -1.3961
   66MOL   H38543415   3.765   6.198   1.444  0.5389 -3.3088 -0.4165
   66MOL   H38643416   3.613   6.277   1.432 -0.2170 -0.7398 -0.4481
   66MOL   H38743417   3.772   6.124   1.219  2.1983  2.0612  2.1410
   66MOL   H38843418   3.607   6.167   1.188 -0.2414  0.0413  1.3562
   66MOL   H38943419   3.834   6.343   1.264 -0.6282  2.4093  0.2258
   66MOL   H39043420   3.685   6.410   1.215  0.7565  0.4702  0.1713
   66MOL   H39143421   3.836   6.254   1.011 -0.4819 -0.3023 -1.2192
   66MOL   H39243422   3.714   6.364   0.971 -0.9775  1.8839  0.2344
   66MOL   H39343423   3.865   6.529   0.945 -1.1343 -0.1598  0.4366
   66MOL   H39443424   3.912   6.517   1.118 -1.6232 -1.8611  0.7860
   66MOL   H39543425   4.040   6.371   0.888  1.0378 -1.4171 -0.3005
   66MOL   H39643426   4.074   6.337   1.065  2.3064 -0.0306 -1.8695
   66MOL   H39743427   4.118   6.485   0.992 -0.3155  0.6115  1.3705
   66MOL   C39843428   3.634   5.786   1.676 -0.2473 -0.4009 -0.1068
   66MOL   C39943429   3.713   5.655   1.630  0.1093 -0.0810  0.1703
   66MOL   C40043430   3.837   5.638   1.728 -0.1020 -0.7622 -0.3248
   66MOL   C40143431   3.816   5.602   1.879 -0.2564 -0.9477 -0.4423
   66MOL   C40243432   3.743   5.458   1.903 -0.1013  0.1732 -0.4488
   66MOL   C40343433   3.759   5.433   2.058 -0.1096 -0.5269  0.5957
   66MOL   C40443434   3.697   5.309   2.108  0.0954 -0.0350  1.0272
   66MOL   C40543435   3.781   5.246   2.214  0.0031  0.2004 -0.7803
   66MOL   C40643436   3.762   5.096   2.219 -0.2863  0.4301  0.0563
   66MOL   C40743437   3.851   5.037   2.330  0.0993  0.2759  0.0043
   66MOL   C40843438   3.822   4.890   2.342 -0.1184 -0.4944 -0.2485
   66MOL   H40943439   3.623   5.795   1.784  0.8921 -1.0562  0.0720
   66MOL   H41043440   3.697   5.874   1.664  0.6600 -1.0870 -0.4315
   66MOL   H41143441   3.654   5.571   1.670  1.3960 -0.6828  0.8183
   66MOL   H41243442   3.901   5.726   1.720  0.9657 -1.4124  0.8897
   66MOL   H41343443   3.895   5.555   1.689 -0.5081 -1.2678  0.1357
   66MOL   H41443444   3.919   5.596   1.916  0.3058 -1.7527 -2.0977
   66MOL   H41543445   3.756   5.681   1.923  1.1011  0.1439 -0.5049
   66MOL   H41643446   3.639   5.462   1.871 -0.7890  0.9284  1.7719
   66MOL   H41743447   3.803   5.386   1.849  0.8814  0.7553 -0.1561
   66MOL   H41843448   3.725   5.521   2.113  0.8228  0.1832  0.0425
   66MOL   H41943449   3.866   5.441   2.074 -0.4028  2.5656  1.3340
   66MOL   H42043450   3.590   5.317   2.131 -0.1440 -0.1534 -0.0435
   66MOL   H42143451   3.695   5.239   2.025 -0.0294  1.2999 -0.1011
   66MOL   H42243452   3.749   5.291   2.308 -0.7534  1.0490 -1.4365
   66MOL   H42343453   3.887   5.267   2.201  0.0294  0.3048 -0.3868
   66MOL   H42443454   3.658   5.075   2.243 -0.1065 -1.2797 -0.6369
   66MOL   H42543455   3.795   5.041   2.131 -0.8162 -1.1362  0.8303
   66MOL   H42643456   3.833   5.090   2.423  1.1290 -0.7332  0.7847
   66MOL   H42743457   3.958   5.046   2.316  0.3819  0.1218  1.9957
   66MOL   H42843458   3.871   4.843   2.427 -1.5852 -1.1379  0.2623
   66MOL   H42943459   3.864   4.840   2.255  2.6152  0.0507  0.7224
   66MOL   H43043460   3.717   4.872   2.366 -0.1613  1.6129  1.3665
   66MOL   C43143461   3.730   5.652   1.473  0.0952 -0.2661 -0.5033
   66MOL   C43243462   3.811   5.533   1.422  0.2065 -0.1241  0.0455
   66MOL   C43343463   3.848   5.559   1.275  0.5316 -0.5213  0.4714
   66MOL   C43443464   3.933   5.684   1.237 -0.0946 -0.1213 -0.4009
   66MOL   C43543465   3.961   5.677   1.083 -0.0863 -0.0710  0.6642
   66MOL   C43643466   4.022   5.810   1.040 -1.0154  0.4944 -0.4412
   66MOL   C43743467   4.038   5.826   0.888 -0.0024 -0.2255  0.4333
   66MOL   C43843468   4.092   5.964   0.854 -0.5659 -0.4235  0.4105
   66MOL   C43943469   4.121   5.974   0.701  0.0807 -0.2500 -1.2786
   66MOL   C44043470   4.169   6.101   0.649  0.3492 -0.4842 -0.0537
   66MOL   C44143471   4.308   6.138   0.710  0.4170 -0.1380  0.3608
   66MOL   H44243472   3.770   5.751   1.450 -0.6909  0.5565  1.5940
   66MOL   H44343473   3.639   5.639   1.415 -0.1289  2.0369 -0.7134
   66MOL   H44443474   3.907   5.520   1.473  0.3828 -0.6087 -0.3985
   66MOL   H44543475   3.897   5.471   1.233  0.6418  0.4249 -1.4428
   66MOL   H44643476   3.757   5.560   1.216  0.6826  1.0117  0.2439
   66MOL   H44743477   4.019   5.680   1.304 -0.5871  0.2623  0.2537
   66MOL   H44843478   3.886   5.778   1.265  2.5684  0.9679  0.5837
   66MOL   H44943479   3.878   5.665   1.014 -0.4054  0.5725  0.9272
   66MOL   H45043480   4.034   5.598   1.068  0.9916  1.1474 -0.6538
   66MOL   H45143481   4.118   5.818   1.091 -1.4723 -0.6527  0.6412
   66MOL   H45243482   3.976   5.893   1.093 -0.0737  0.2195  0.8450
   66MOL   H45343483   3.942   5.809   0.839  1.0046 -0.6471 -1.4392
   66MOL   H45443484   4.099   5.747   0.845  0.2382  0.4584 -0.5203
   66MOL   H45543485   4.025   6.040   0.892 -0.9093 -0.7131  0.3913
   66MOL   H45643486   4.187   5.976   0.905 -1.9857  1.3524  2.7088
   66MOL   H45743487   4.030   5.956   0.645 -0.4180 -0.3162 -0.4618
   66MOL   H45843488   4.199   5.901   0.682  0.1770 -0.2775 -0.7910
   66MOL   H45943489   4.094   6.180   0.661  0.0310 -0.8992  0.7472
   66MOL   H46043490   4.182   6.091   0.542  1.0151 -1.0475  0.0831
   66MOL   H46143491   4.341   6.212   0.638 -0.3444 -1.0089 -0.9148
   66MOL   H46243492   4.296   6.170   0.814 -2.0160  0.1613  0.0160
   66MOL   H46343493   4.387   6.064   0.697  0.6400  0.2492 -0.5009
   66MOL   C46443494   3.721   5.397   1.432 -0.4595  1.2343 -0.7560
   66MOL   C46543495   3.802   5.264   1.463  0.6630  0.0328  1.1160
   66MOL   C46643496   3.819   5.242   1.605  0.5656 -0.3512 -0.5678
   66MOL   C46743497   3.932   5.146   1.650  0.1257  0.4744 -0.0364
   66MOL   C46843498   3.980   5.177   1.791 -0.0629  0.4579  0.4674
   66MOL   C46943499   4.125   5.114   1.826  0.6285 -0.2236 -0.4716
   66MOL   C47043500   4.205   5.192   1.937 -0.0531  1.0259  0.1164
   66MOL   C47143501   4.342   5.139   1.957 -0.6200 -0.4131  0.1022
   66MOL   C47243502   4.401   5.200   2.080  0.1458  0.0481  0.1172
   66MOL   C47343503   4.537   5.153   2.101 -0.1263  0.3598 -0.2539
   66MOL   C47443504   4.599   5.209   2.230 -0.0162 -0.0060 -0.2861
   66MOL   H47543505   3.663   5.388   1.340 -0.8825  0.0091 -0.3920
   66MOL   H47643506   3.642   5.415   1.505 -0.9072 -0.6234 -0.7326
   66MOL   H47743507   3.900   5.285   1.420  0.0399 -1.0267 -0.8963
   66MOL   H47843508   3.724   5.220   1.654  0.0942 -2.1203 -2.2207
   66MOL   H47943509   3.853   5.343   1.630 -0.9305  0.2221 -0.7934
   66MOL   H48043510   3.914   5.039   1.638 -0.7479  0.3686  1.9731
   66MOL   H48143511   4.017   5.178   1.590 -0.3230  1.5239 -0.1108
   66MOL   H48243512   3.908   5.155   1.869 -1.6166  0.2992 -0.9771
   66MOL   H48343513   3.995   5.285   1.795  0.2661  0.5314 -2.0050
   66MOL   H48443514   4.114   5.008   1.847  0.6487  0.1137  1.3161
   66MOL   H48543515   4.182   5.121   1.734  0.0580 -0.0285 -0.8117
   66MOL   H48643516   4.217   5.298   1.919  1.0208  0.9995  0.6277
   66MOL   H48743517   4.151   5.195   2.032  0.6385  1.3159  0.5071
   66MOL   H48843518   4.334   5.031   1.966 -1.8702 -0.4097 -0.7822
   66MOL   H48943519   4.389   5.157   1.860 -0.9812  2.0631  0.3683
   66MOL   H49043520   4.404   5.307   2.062  1.5102  0.6105  3.3145
   66MOL   H49143521   4.341   5.175   2.168 -0.6774 -0.4456 -0.5764
   66MOL   H49243522   4.530   5.044   2.104 -2.9581  0.5579  2.4881
   66MOL   H49343523   4.603   5.184   2.019 -2.7979  1.6327 -1.9746
   66MOL   H49443524   4.535   5.208   2.318  1.0728 -1.5751  0.5348
   66MOL   H49543525   4.613   5.316   2.216 -1.0660  0.0116 -1.2083
   66MOL   H49643526   4.703   5.183   2.252 -0.3619 -3.9161 -2.7731
   66MOL   C49743527   3.756   5.135   1.385 -0.3602 -1.0389 -0.6311
   66MOL   C49843528   3.829   5.122   1.256 -0.0468  0.4817  0.1271
   66MOL   C49943529   3.758   5.038   1.147 -0.4843 -0.2464  0.5008
   66MOL   C50043530   3.728   4.892   1.187  0.1887  0.4705 -0.0875
   66MOL   C50143531   3.672   4.819   1.065  0.2274  0.3242  0.5942
   66MOL   C50243532   3.612   4.681   1.096 -0.3324  0.4625  0.1570
   66MOL   C50343533   3.549   4.606   0.975 -0.2038 -0.5451 -0.6516
   66MOL   C50443534   3.654   4.564   0.866 -0.2131  0.1401  0.4724
   66MOL   C50543535   3.589   4.480   0.747 -0.2731 -0.3945  0.1779
   66MOL   C50643536   3.678   4.459   0.621  0.2004 -0.2458  0.5002
   66MOL   C50743537   3.610   4.373   0.508 -0.7593  0.3891  0.5677
   66MOL   H50843538   3.778   5.045   1.443  0.5732 -0.6721 -0.4101
   66MOL   H50943539   3.649   5.143   1.366 -0.4906  2.7508  1.3012
   66MOL   H51043540   3.836   5.223   1.214 -0.2534  0.4863  0.1025
   66MOL   H51143541   3.823   5.042   1.060  0.2603  1.4417  1.1107
   66MOL   H51243542   3.664   5.087   1.120 -1.1828 -1.7330  0.1877
   66MOL   H51343543   3.667   4.885   1.277 -3.9241  0.5326 -2.7587
   66MOL   H51443544   3.822   4.843   1.212 -0.1928  0.0596  0.5549
   66MOL   H51543545   3.595   4.887   1.030 -0.1743 -0.1044  0.6256
   66MOL   H51643546   3.751   4.806   0.990 -1.3956  0.4680 -1.1696
   66MOL   H51743547   3.687   4.618   1.144  2.4470  1.9483 -2.0683
   66MOL   H51843548   3.534   4.693   1.171 -0.1826  1.1021  0.2114
   66MOL   H51943549   3.492   4.519   1.009  0.8805 -1.0675 -0.1105
   66MOL   H52043550   3.475   4.668   0.926 -1.3510 -0.2021  1.4755
   66MOL   H52143551   3.743   4.512   0.901  0.5938  1.8599  1.0322
   66MOL   H52243552   3.704   4.654   0.831  0.5326 -0.1724  0.7343
   66MOL   H52343553   3.495   4.532   0.727 -1.3954 -1.8354  1.5492
   66MOL   H52443554   3.559   4.384   0.789 -2.5546  0.4816  0.6006
   66MOL   H52543555   3.765   4.404   0.657  0.0572  0.1600  1.4918
   66MOL   H52643556   3.720   4.545   0.569  1.7145 -1.2596  0.0136
   66MOL   H52743557   3.525   4.426   0.466 -0.6011 -0.7236 -1.2314
   66MOL   H52843558   3.571   4.276   0.537  0.5550 -0.4834 -0.5124
   66MOL   H52943559   3.664   4.366   0.413 -1.6541  0.0017  0.0837
   66MOL   C53043560   3.978   5.077   1.267  0.8566  0.1784  0.0968
   66MOL   C53143561   4.083   5.180   1.198  0.0794  0.2712 -0.5912
   66MOL   C53243562   4.068   5.176   1.044 -0.1544  0.2601  0.8955
   66MOL   C53343563   4.158   5.286   0.973 -0.2868  0.2950 -0.0463
   66MOL   C53443564   4.113   5.299   0.827 -0.3492  0.0635  0.3686
   66MOL   C53543565   3.998   5.400   0.808 -0.4385  0.5228 -0.2424
   66MOL   C53643566   3.959   5.434   0.661 -0.4675  0.7464  0.1488
   66MOL   C53743567   3.844   5.535   0.664  0.1880  0.3104  0.2798
   66MOL   C53843568   3.811   5.566   0.515  0.0344  0.2036  0.0567
   66MOL   C53943569   3.705   5.674   0.488 -0.3610 -0.1549 -0.4857
   66MOL   C54043570   3.694   5.709   0.340 -0.1142 -0.5516 -0.6606
   66MOL   H54143571   3.993   5.066   1.374 -0.4750 -2.7964  0.0276
   66MOL   H54243572   3.993   4.977   1.227  1.3235  0.0321  0.6372
   66MOL   H54343573   4.058   5.283   1.225  1.6846  0.4410  0.3139
   66MOL   H54443574   3.965   5.201   1.021 -0.0632  1.2035  1.4899
   66MOL   H54543575   4.079   5.075   1.003 -1.6351  0.6657 -0.5589
   66MOL   H54643576   4.264   5.261   0.980 -0.4839  0.0853  2.3056
   66MOL   H54743577   4.153   5.384   1.019 -2.5065  0.4674 -0.6348
   66MOL   H54843578   4.085   5.202   0.787 -2.2074  1.4375 -1.8103
   66MOL   H54943579   4.189   5.337   0.758 -0.1586 -0.0957  0.4911
   66MOL   H55043580   4.022   5.491   0.864  0.2808  0.0567  0.2261
   66MOL   H55143581   3.907   5.363   0.854  0.1752 -0.7455 -0.0178
   66MOL   H55243582   3.922   5.339   0.624 -0.5919  0.9370 -0.2156
   66MOL   H55343583   4.045   5.474   0.607  0.4431 -1.9566 -0.4849
   66MOL   H55443584   3.874   5.626   0.715  1.3506  0.4892 -0.7183
   66MOL   H55543585   3.758   5.493   0.716  0.0290 -1.9013 -1.6527
   66MOL   H55643586   3.788   5.471   0.467  0.1181  0.1846  0.0531
   66MOL   H55743587   3.902   5.593   0.462  0.0650 -0.5598 -0.2810
   66MOL   H55843588   3.704   5.756   0.561  0.3404 -0.8844  0.3535
   66MOL   H55943589   3.610   5.633   0.520 -0.4130  1.5150  1.5963
   66MOL   H56043590   3.605   5.757   0.299 -0.1731  0.9615  1.1803
   66MOL   H56143591   3.768   5.783   0.309 -2.3818  1.1868 -2.0837
   66MOL   H56243592   3.701   5.620   0.277  0.3726 -0.7601 -0.3131
   66MOL   C56343593   4.229   5.146   1.238 -0.0295 -0.1655 -0.4138
   66MOL   C56443594   4.270   5.187   1.383  0.2483  0.8012  0.1177
   66MOL   C56543595   4.260   5.339   1.404 -0.2525  0.1285 -0.0953
   66MOL   C56643596   4.228   5.375   1.558 -0.5784  0.0429  0.0235
   66MOL   C56743597   4.232   5.528   1.585 -0.3699 -0.7740 -0.6954
   66MOL   C56843598   4.222   5.565   1.734 -0.4309 -0.0937 -0.2801
   66MOL   C56943599   4.347   5.546   1.821  0.0710 -0.4035 -0.5963
   66MOL   C57043600   4.350   5.618   1.962 -0.0039  0.2106 -1.1069
   66MOL   C57143601   4.218   5.592   2.043  0.3714  0.2232 -0.7458
   66MOL   C57243602   4.222   5.639   2.188  0.2353 -0.0586 -0.1877
   66MOL   C57343603   4.085   5.615   2.248 -0.0918  0.2162  0.1064
   66MOL   H57443604   4.301   5.200   1.176  0.3921  1.5353  1.5134
   66MOL   H57543605   4.250   5.045   1.203  0.9334  0.3809 -1.4806
   66MOL   H57643606   4.197   5.139   1.448  0.6804 -1.9654 -1.4076
   66MOL   H57743607   4.193   5.395   1.340 -0.3709  0.1697  0.0628
   66MOL   H57843608   4.354   5.385   1.373  0.1172  0.7601  1.8872
   66MOL   H57943609   4.301   5.325   1.621 -0.4978 -1.9098 -1.5852
   66MOL   H58043610   4.131   5.346   1.600 -0.9157  0.8869 -0.1521
   66MOL   H58143611   4.162   5.591   1.529 -0.0461 -0.9591 -1.3178
   66MOL   H58243612   4.325   5.565   1.542 -0.8645  0.2082 -0.9326
   66MOL   H58343613   4.212   5.673   1.744  1.8696  0.3621 -2.5338
   66MOL   H58443614   4.131   5.516   1.768 -0.5586 -1.7710 -2.9301
   66MOL   H58543615   4.348   5.437   1.830 -3.7254 -0.5548 -0.9385
   66MOL   H58643616   4.428   5.582   1.758  1.3348 -0.0209  1.2059
   66MOL   H58743617   4.359   5.724   1.937 -2.3426  0.4777 -0.9405
   66MOL   H58843618   4.438   5.602   2.024 -0.5640  0.4638 -0.2506
   66MOL   H58943619   4.197   5.485   2.040 -1.0416  0.4491  0.5790
   66MOL   H59043620   4.136   5.640   1.991  0.0567  2.7209  1.9418
   66MOL   H59143621   4.262   5.739   2.204  1.3306 -0.6401  0.8824
   66MOL   H59243622   4.299   5.594   2.250  0.0798 -1.3633 -0.9212
   66MOL   H59343623   4.020   5.698   2.220 -0.6185  0.0389  0.7845
   66MOL   H59443624   4.055   5.517   2.210  1.8453 -0.7199  0.8658
   66MOL   H59543625   4.077   5.605   2.356 -2.5292  1.2484  0.0385
   66MOL   C59643626   4.410   5.133   1.427 -0.0572 -0.3958 -0.4984
   66MOL   C59743627   4.422   4.978   1.448  0.2628  0.2583 -0.1285
   66MOL   C59843628   4.347   4.920   1.568  0.0438 -1.2097 -0.0739
   66MOL   C59943629   4.345   4.779   1.608  0.3926  0.4775 -0.3027
   66MOL   C60043630   4.260   4.687   1.508 -0.2928 -0.4681  0.2824
   66MOL   C60143631   4.110   4.707   1.499  0.2559 -0.7555 -0.1556
   66MOL   C60243632   4.025   4.695   1.623  0.7269 -0.8350 -0.1977
   66MOL   C60343633   3.876   4.721   1.589 -0.8385  0.5966 -0.0262
   66MOL   C60443634   3.799   4.716   1.717  0.3745  0.4870 -0.4654
   66MOL   C60543635   3.652   4.738   1.687 -0.2151  0.1886 -0.4286
   66MOL   C60643636   3.627   4.885   1.679 -0.2522 -0.2097 -0.1813
   66MOL   H60743637   4.486   5.169   1.357  1.2310 -0.8335  0.6450
   66MOL   H60843638   4.436   5.186   1.519  0.2231  1.3514 -1.5633
   66MOL   H60943639   4.390   4.928   1.357 -3.5880  2.2936  0.0089
   66MOL   H61043640   4.242   4.949   1.576  0.0380 -0.7244 -1.7561
   66MOL   H61143641   4.375   4.987   1.649 -0.8913  0.7412 -1.3129
   66MOL   H61243642   4.310   4.773   1.711  0.5526  1.1923 -0.2052
   66MOL   H61343643   4.448   4.744   1.608 -0.0279 -0.7989  0.6596
   66MOL   H61443644   4.289   4.583   1.525 -0.2507 -0.5249 -0.1171
   66MOL   H61543645   4.299   4.699   1.407  0.1379  0.4119  0.5485
   66MOL   H61643646   4.088   4.804   1.453 -0.9655 -0.8034  0.3065
   66MOL   H61743647   4.073   4.628   1.434  1.3882 -0.5034 -1.1305
   66MOL   H61843648   4.058   4.767   1.697  2.2274 -0.2277 -1.4388
   66MOL   H61943649   4.040   4.601   1.677 -0.3244 -0.5237  0.6482
   66MOL   H62043650   3.844   4.646   1.516 -0.6042  0.3828  0.0931
   66MOL   H62143651   3.858   4.817   1.539  1.2467  1.5242  0.9507
   66MOL   H62243652   3.812   4.622   1.770 -0.7027  2.0624  2.7590
   66MOL   H62343653   3.831   4.794   1.786 -0.2443  0.1724  0.1890
   66MOL   H62443654   3.585   4.704   1.766 -1.3778  0.8155 -1.1316
   66MOL   H62543655   3.615   4.688   1.598 -0.3176 -0.5291  0.0106
   66MOL   H62643656   3.640   4.929   1.778 -3.0698  1.8413 -0.6225
   66MOL   H62743657   3.685   4.936   1.602  0.9540 -1.4331 -0.0869
   66MOL   H62843658   3.522   4.892   1.647  0.2843  0.0923 -1.9514
   66MOL   C62943659   4.568   4.945   1.469 -0.1244 -0.4866  0.5734
   66MOL   C63043660   4.637   4.992   1.603  0.2910 -0.5236  0.2665
   66MOL   C63143661   4.792   4.977   1.604 -0.0751 -0.2866  0.2851
   66MOL   C63243662   4.862   4.971   1.741  0.1385 -0.5969  0.2922
   66MOL   C63343663   5.008   5.012   1.733 -0.2528 -0.1577  0.5581
   66MOL   C63443664   5.070   5.025   1.873 -0.1192  1.1126  0.0438
   66MOL   C63543665   5.197   5.103   1.876 -0.8574  0.8332  0.1606
   66MOL   C63643666   5.268   5.078   2.009  0.8966  0.0789 -0.0078
   66MOL   C63743667   5.393   5.165   2.028  0.5892 -0.4896 -0.6868
   66MOL   C63843668   5.360   5.310   2.058  0.3209  0.1028 -0.3475
   66MOL   C63943669   5.489   5.385   2.100 -0.9536 -0.0828  0.3373
   66MOL   H64043670   4.586   4.837   1.464  2.2673 -0.0849 -0.1277
   66MOL   H64143671   4.623   4.988   1.386 -1.9276 -2.2233 -1.6074
   66MOL   H64243672   4.601   5.082   1.652  3.6116  0.2487  1.4392
   66MOL   H64343673   4.825   4.890   1.548  1.3372  0.8376 -0.6531
   66MOL   H64443674   4.836   5.056   1.543 -0.3459 -0.9410 -0.7616
   66MOL   H64543675   4.851   4.872   1.784 -0.6961 -0.9720 -0.7624
   66MOL   H64643676   4.812   5.040   1.808  0.3537 -0.3210  0.1728
   66MOL   H64743677   5.015   5.108   1.683 -3.4712 -0.6798 -1.0312
   66MOL   H64843678   5.069   4.948   1.669 -0.6313  0.6806 -0.6593
   66MOL   H64943679   5.083   4.921   1.902 -0.2219  1.1522  0.2318
   66MOL   H65043680   4.996   5.071   1.938  0.1905  0.2879  1.0012
   66MOL   H65143681   5.187   5.211   1.870  3.3113  1.2683 -0.4670
   66MOL   H65243682   5.263   5.066   1.798  0.3971 -0.7947  1.9218
   66MOL   H65343683   5.297   4.973   2.019 -1.6318 -0.6111  0.3380
   66MOL   H65443684   5.203   5.105   2.092  0.6969 -0.9925  0.1893
   66MOL   H65543685   5.460   5.163   1.942  0.2492 -0.2931 -0.9537
   66MOL   H65643686   5.451   5.119   2.109  0.6496  0.2496 -0.3118
   66MOL   H65743687   5.281   5.320   2.132  1.6945 -0.5402  1.2200
   66MOL   H65843688   5.323   5.362   1.969 -1.6478  0.0407  0.4207
   66MOL   H65943689   5.535   5.337   2.187 -1.2687 -1.0143 -0.0062
   66MOL   H66043690   5.481   5.489   2.131  2.0728  0.6681 -1.2536
   66MOL   H66143691   5.557   5.385   2.015 -2.0437  0.4939 -0.5433
   66MOL   H66243692   4.596   4.920   1.673 -0.9030  0.5019  0.6361
   67MOL     C143693   2.078   0.364   5.800 -0.3267  0.4964 -0.1521
   67MOL     C243694   2.035   0.213   5.821  0.1511  0.8745 -0.0314
   67MOL     C343695   2.079   0.163   5.960  0.7757  0.6826 -0.1589
   67MOL     C443696   2.230   0.161   5.988 -0.6466 -0.2401  0.3153
   67MOL     C543697   2.280   0.051   6.075  0.0736  0.3939 -0.4554
   67MOL     C643698   2.430   0.082   6.126  0.9033  0.4405  0.4316
   67MOL     C743699   2.468   7.664   6.211 -0.0749 -0.0339 -0.5953
   67MOL     C843700   2.600   7.686   6.284 -0.2398  1.1230 -0.8802
   67MOL     C943701   2.619   7.569   6.377 -0.1064  0.7656 -0.2746
   67MOL    C1043702   2.749   7.571   6.451  0.1105 -0.3154 -0.6450
   67MOL    C1143703   2.768   7.451   6.541 -0.6269  0.7202 -0.5483
   67MOL    H1243704   2.029   0.415   5.717 -0.0980  1.8796  0.5472
   67MOL    H1343705   2.184   0.369   5.775 -0.4172 -0.3503 -0.7040
   67MOL    H1443706   2.066   0.144   5.742 -2.3715 -0.3240 -0.0128
   67MOL    H1543707   2.046   0.059   5.968 -0.7207  0.9941 -2.0373
   67MOL    H1643708   2.038   0.218   6.044  1.9634  0.0179  0.8807
   67MOL    H1743709   2.271   0.260   6.010 -0.8065 -0.1722  0.3139
   67MOL    H1843710   2.267   0.139   5.888  1.1541  0.4766  0.8065
   67MOL    H1943711   2.207   0.038   6.155  0.2971  0.3349 -0.2596
   67MOL    H2043712   2.289   7.670   6.006 -2.7563  0.1706 -0.5988
   67MOL    H2143713   2.416   0.172   6.186 -1.5138 -0.8163  1.8578
   67MOL    H2243714   2.506   0.091   6.048  1.0573  1.5465  0.6994
   67MOL    H2343715   2.392   7.649   6.288  0.3885  0.8956  0.0489
   67MOL    H2443716   2.473   7.576   6.147  1.0026 -1.4759  1.4087
   67MOL    H2543717   2.586   0.074   6.343  0.9623  0.8436 -0.1597
   67MOL    H2643718   2.686   7.695   6.219 -0.0011  1.0892 -0.5693
   67MOL    H2743719   2.598   7.479   6.320 -4.4319 -0.1040  2.5233
   67MOL    H2843720   2.543   7.563   6.455 -0.5251 -1.8970 -0.8631
   67MOL    H2943721   2.745   7.664   6.508  1.1449 -0.3572 -0.4852
   67MOL    H3043722   2.830   7.585   6.379  1.5793  2.1088  1.4054
   67MOL    H3143723   2.868   7.457   6.582  0.0712 -0.3993 -2.0539
   67MOL    H3243724   2.702   7.436   6.626  1.2530  1.6870  1.1096
   67MOL    H3343725   2.765   7.362   6.478  2.6289 -0.3165  0.6791
   67MOL    H3443726   2.056   0.424   5.889 -0.3321  0.7114 -0.2967
   67MOL    C3543727   1.879   0.205   5.807 -0.4331 -0.1470  0.0047
   67MOL    C3643728   1.811   0.068   5.799 -0.4802 -0.1760  0.3309
   67MOL    C3743729   1.658   0.084   5.781  0.2640  1.0389 -0.3848
   67MOL    C3843730   1.563   7.667   5.814 -0.0583  0.0029  1.0351
   67MOL    C3943731   1.412   7.693   5.796 -0.4190 -0.2830  0.8378
   67MOL    C4043732   1.335   7.573   5.849 -0.1797  0.1178  0.2763
   67MOL    C4143733   1.191   7.599   5.907 -0.0692 -0.0879  0.1790
   67MOL    C4243734   1.082   7.599   5.795 -0.4412 -0.0276  0.0007
   67MOL    C4343735   0.953   7.658   5.844  0.4943 -0.5276  0.0115
   67MOL    C4443736   0.846   7.630   5.737  0.0253  0.4183 -0.5197
   67MOL    C4543737   0.843   0.015   5.616 -0.4044 -0.2107  0.0234
   67MOL    H4643738   1.851   0.263   5.719  0.5772 -0.2291 -0.3742
   67MOL    H4743739   1.824   0.263   5.882 -0.6647  0.0432 -0.3080
   67MOL    H4843740   1.823   0.010   5.891 -1.5233 -0.5856  0.2109
   67MOL    H4943741   1.632   0.158   5.856  2.0050  1.1061  0.1741
   67MOL    H5043742   1.631   0.133   5.687 -1.4696  1.9861  0.5800
   67MOL    H5143743   1.575   7.636   5.918  0.1983  3.5823  2.1219
   67MOL    H5243744   1.600   7.580   5.758 -2.6494 -0.7131  0.3543
   67MOL    H5343745   1.390   7.691   5.689 -0.1206 -3.2834  0.7707
   67MOL    H5443746   1.388   0.087   5.838  2.2527  0.5213  0.5995
   67MOL    H5543747   1.390   7.523   5.929 -2.4341 -0.6703  1.3583
   67MOL    H5643748   1.315   7.495   5.775 -0.6317 -1.0122  1.5640
   67MOL    H5743749   1.159   7.519   5.973  1.1022 -0.4081  0.3694
   67MOL    H5843750   1.188   7.699   5.950  0.7002  0.6637 -1.4807
   67MOL    H5943751   1.073   7.500   5.750  0.9390 -0.3071  0.3016
   67MOL    H6043752   1.110   7.660   5.709 -0.2942  1.0502  0.8024
   67MOL    H6143753   0.961   0.062   5.860  1.7175 -1.0326  3.2136
   67MOL    H6243754   0.926   7.623   5.944 -0.0250  0.1619  0.1147
   67MOL    H6343755   0.846   7.525   5.708 -0.8703  0.1835  0.2990
   67MOL    H6443756   0.746   7.639   5.779 -1.0475 -1.7204 -2.5319
   67MOL    H6543757   0.777   7.669   5.545  1.5356 -0.3128 -1.7745
   67MOL    H6643758   0.805   0.114   5.640 -2.7091 -0.4462 -2.4472
   67MOL    H6743759   0.944   0.020   5.575 -1.0002  2.9753 -1.1525
   67MOL    C6843760   1.861   7.681   5.675 -0.4619 -0.1711  0.4524
   67MOL    C6943761   1.966   7.570   5.718  0.0784  0.1062  0.0448
   67MOL    C7043762   1.912   7.470   5.827 -0.2330  0.3792  0.4451
   67MOL    C7143763   2.025   7.424   5.921  0.2975  0.5440  0.4348
   67MOL    C7243764   1.978   7.320   6.029 -0.7964  0.7229  0.1532
   67MOL    C7343765   2.091   7.260   6.114  0.2276 -0.4991 -0.2624
   67MOL    C7443766   2.186   7.374   6.174  0.4271 -0.0786 -0.8072
   67MOL    C7543767   2.294   7.322   6.275 -0.4168 -0.6860 -0.2461
   67MOL    C7643768   2.409   7.244   6.211  1.1774  0.5488 -0.6714
   67MOL    C7743769   2.513   7.211   6.317 -0.4859  0.2747 -0.1114
   67MOL    C7843770   2.654   7.208   6.254  0.5382 -0.3308  0.5969
   67MOL    H7943771   1.905   0.044   5.600  0.0293  0.3450  1.1917
   67MOL    H8043772   1.779   7.635   5.620  1.2738 -2.5899 -0.1405
   67MOL    H8143773   2.036   7.635   5.770 -2.6800  0.4151  3.5925
   67MOL    H8243774   1.880   7.382   5.771 -1.0960  1.7209 -1.2308
   67MOL    H8343775   1.816   7.498   5.871  0.1715  1.4451  0.6727
   67MOL    H8443776   2.103   7.378   5.861  1.1629  2.3969  0.1171
   67MOL    H8543777   2.055   7.518   5.966 -0.2105  1.2454 -0.6655
   67MOL    H8643778   1.925   7.238   5.981 -1.0688  0.1427  1.4014
   67MOL    H8743779   1.905   7.374   6.090 -0.7347  1.6462 -0.5746
   67MOL    H8843780   2.059   7.189   6.190  1.5588 -1.4242 -0.5360
   67MOL    H8943781   2.151   7.195   6.050  1.5595 -1.6391  2.0849
   67MOL    H9043782   2.121   7.442   6.228  0.5731  0.7668 -1.6868
   67MOL    H9143783   2.233   7.429   6.093  0.3593 -0.9985 -1.4816
   67MOL    H9243784   2.338   7.398   6.340 -0.7085  0.3868 -1.2962
   67MOL    H9343785   2.238   7.259   6.344  0.2945 -1.8673 -0.7264
   67MOL    H9443786   2.367   7.155   6.164  0.7634 -0.4245  1.4711
   67MOL    H9543787   2.451   7.306   6.132  2.1024  2.4738  1.2911
   67MOL    H9643788   2.507   7.278   6.402 -0.7614  1.3816 -0.9987
   67MOL    H9743789   2.498   7.112   6.361 -1.1190  0.3003 -0.2706
   67MOL    H9843790   2.710   7.301   6.248 -1.1584  0.6600 -0.3498
   67MOL    H9943791   2.639   7.173   6.152 -0.2784 -1.1277  0.9813
   67MOL   H10043792   2.722   7.138   6.303  1.6913  0.2074 -0.2167
   67MOL   C10143793   2.024   7.490   5.597 -0.5104  0.2377  0.1955
   67MOL   C10243794   2.137   7.561   5.515  1.5010  0.3953 -0.9610
   67MOL   C10343795   2.142   7.498   5.373  0.2570  0.2153 -0.0859
   67MOL   C10443796   2.016   7.485   5.291  0.1327 -0.9861 -0.5014
   67MOL   C10543797   2.032   7.432   5.153  0.5384 -0.7995 -0.0578
   67MOL   C10643798   2.067   7.275   5.161  0.2155  0.0569  0.2420
   67MOL   C10743799   2.067   7.205   5.022 -0.0532  0.0079  0.1007
   67MOL   C10843800   2.066   7.048   5.023  0.4167  0.2912 -0.2022
   67MOL   C10943801   2.046   6.990   4.882 -0.1190  0.4925 -0.0545
   67MOL   C11043802   2.130   7.053   4.763 -0.5327 -0.4290 -0.5675
   67MOL   C11143803   2.100   6.987   4.631 -0.5752 -0.0761 -0.5713
   67MOL   H11243804   2.063   7.394   5.629  0.2516  0.6905  0.6418
   67MOL   H11343805   1.940   7.465   5.532  1.0370 -0.8670 -1.4405
   67MOL   H11443806   2.088   7.656   5.495  0.9755  0.3072 -0.0920
   67MOL   H11543807   2.206   7.562   5.311 -1.3050  1.3343 -0.5672
   67MOL   H11643808   2.194   7.403   5.380 -1.0154 -0.4472  0.4488
   67MOL   H11743809   1.949   7.417   5.345 -0.4841 -1.2111 -1.5502
   67MOL   H11843810   1.961   7.579   5.296  0.0993 -1.1093  2.7614
   67MOL   H11943811   1.935   7.456   5.109  0.8766  0.8972  0.0790
   67MOL   H12043812   2.113   7.482   5.099 -0.9064  0.1537 -1.3932
   67MOL   H12143813   2.157   7.248   5.217 -0.4574 -2.0671  0.3404
   67MOL   H12243814   1.982   7.231   5.212  0.7345 -0.3565  0.7628
   67MOL   H12343815   2.157   7.231   4.966  1.0137 -4.0822 -0.2355
   67MOL   H12443816   1.982   7.244   4.966 -0.6905 -0.0814  1.0091
   67MOL   H12543817   2.157   6.997   5.054  0.5672  0.4376 -0.4024
   67MOL   H12643818   1.986   7.022   5.093 -0.2821  2.3003 -0.2197
   67MOL   H12743819   2.068   6.883   4.888  0.2172  0.6231  1.4325
   67MOL   H12843820   1.943   6.985   4.848 -0.1032 -0.0258 -0.0362
   67MOL   H12943821   2.235   7.030   4.784 -0.2797  0.1142 -1.2264
   67MOL   H13043822   2.130   7.162   4.757  0.0088 -0.2637  1.9748
   67MOL   H13143823   2.176   7.023   4.562 -0.5644 -0.1544 -0.6008
   67MOL   H13243824   2.107   6.878   4.623  2.9175  0.0424  0.1772
   67MOL   H13343825   2.002   7.018   4.593 -0.8167  0.9768  0.8883
   67MOL   C13443826   2.267   7.572   5.593  0.3276 -0.3172  0.3639
   67MOL   C13543827   2.376   7.655   5.515  0.1746  0.1834 -0.0078
   67MOL   C13643828   2.511   7.610   5.568 -0.4818 -0.5728 -0.1431
   67MOL   C13743829   2.542   7.615   5.717  0.9219  0.2688 -0.1113
   67MOL   C13843830   2.672   7.540   5.758 -0.4724 -0.3958 -0.0102
   67MOL   C13943831   2.704   7.557   5.906 -0.0121 -0.2780 -0.5143
   67MOL   C14043832   2.844   7.502   5.947 -0.3140 -0.2066 -0.5070
   67MOL   C14143833   2.965   7.591   5.903  0.0648  0.3387  1.3036
   67MOL   C14243834   2.985   0.005   5.993  0.1032 -0.6136 -0.2630
   67MOL   C14343835   3.128   0.072   5.966  0.3201  0.4278  0.5085
   67MOL   C14443836   3.164   0.192   6.062 -0.2502  0.5478  0.1510
   67MOL   H14543837   2.264   7.626   5.687 -2.3990 -2.3752  1.5085
   67MOL   H14643838   2.289   7.466   5.609  0.0020  0.1301  4.0551
   67MOL   H14743839   2.368   7.631   5.409  1.7328 -1.2633  0.1731
   67MOL   H14843840   2.595   7.659   5.518 -0.2590  1.4162  2.1026
   67MOL   H14943841   2.525   7.505   5.544 -0.2178 -0.6812  0.4830
   67MOL   H15043842   2.541   0.016   5.749  0.7800  0.6992 -1.4903
   67MOL   H15143843   2.455   7.574   5.769  0.1520  2.7755  0.6663
   67MOL   H15243844   2.670   7.434   5.735  0.7105 -0.7002  1.2728
   67MOL   H15343845   2.757   7.583   5.706 -1.0882  0.3893 -0.3864
   67MOL   H15443846   2.696   7.663   5.928 -1.3560 -0.4670 -0.0582
   67MOL   H15543847   2.628   7.513   5.970  0.6566  0.9262  1.1285
   67MOL   H15643848   2.843   7.486   6.054 -0.3281 -0.6795 -0.5803
   67MOL   H15743849   2.850   7.404   5.900  1.4718 -0.4957  0.2922
   67MOL   H15843850   3.060   7.537   5.908 -1.2704 -2.3526 -1.2350
   67MOL   H15943851   2.945   7.627   5.803  0.1361 -1.0480  0.7754
   67MOL   H16043852   2.899   0.071   5.983  1.6639  1.5274  0.0712
   67MOL   H16143853   2.973   7.682   6.098  0.6427 -1.0088 -0.2968
   67MOL   H16243854   3.200   7.693   5.975  0.5830  0.2713 -2.5770
   67MOL   H16343855   3.135   0.101   5.861  1.1928  1.0284  0.7237
   67MOL   H16443856   3.141   0.172   6.166 -0.4589  2.9264  0.5934
   67MOL   H16543857   3.121   0.290   6.039  0.9304  1.4323  1.6552
   67MOL   H16643858   3.270   0.208   6.042  0.3900 -0.0615  2.8942
   67MOL   C16743859   2.371   0.101   5.527 -0.3646  0.5427  0.2732
   67MOL   C16843860   2.456   0.183   5.424 -0.5261  0.0285 -0.0250
   67MOL   C16943861   2.459   0.329   5.454  0.9312  0.2218 -0.1449
   67MOL   C17043862   2.323   0.409   5.447 -0.4995  0.2249  0.5829
   67MOL   C17143863   2.336   0.561   5.471  0.6831 -0.0313  0.2316
   67MOL   C17243864   2.200   0.635   5.467 -0.3489 -0.4112  0.1484
   67MOL   C17343865   2.209   0.789   5.484  0.7483 -0.1492  0.0066
   67MOL   C17443866   2.062   0.843   5.489  0.5283  0.0562 -0.3806
   67MOL   C17543867   2.044   0.996   5.511 -0.3728 -0.0774 -0.2361
   67MOL   C17643868   2.118   1.080   5.412  0.4359 -0.4318  0.3616
   67MOL   C17743869   2.051   1.214   5.388 -0.5667  0.8185  0.2609
   67MOL   H17843870   2.270   0.139   5.515  0.4159  2.1383 -1.4289
   67MOL   H17943871   2.400   0.131   5.628 -1.2530 -1.0480  1.0238
   67MOL   H18043872   2.559   0.151   5.434 -0.9530 -1.0688  0.9446
   67MOL   H18143873   2.528   0.386   5.392  3.0739  0.0465  2.0108
   67MOL   H18243874   2.497   0.347   5.555 -2.3111 -0.9444  1.3714
   67MOL   H18343875   2.281   0.391   5.349 -1.5370 -0.9124  1.2216
   67MOL   H18443876   2.261   0.378   5.531  0.1972  1.1791  1.4792
   67MOL   H18543877   2.406   0.603   5.400 -0.0472  2.6524  1.0397
   67MOL   H18643878   2.375   0.569   5.573  0.6729  0.7115  0.1811
   67MOL   H18743879   2.155   0.630   5.368  2.1758 -1.3696 -0.9698
   67MOL   H18843880   2.135   0.591   5.544  0.8385  0.4304  1.6657
   67MOL   H18943881   2.277   0.825   5.408  0.7587  3.1866  1.5233
   67MOL   H19043882   2.265   0.796   5.577 -0.0276  2.7516  0.2897
   67MOL   H19143883   2.006   0.816   5.399  3.3481 -2.1544 -1.5526
   67MOL   H19243884   2.008   0.795   5.570  1.4569  1.1165  0.8901
   67MOL   H19343885   2.084   1.011   5.611 -0.0685 -1.1588 -0.1910
   67MOL   H19443886   1.937   1.018   5.505 -0.2944 -0.2018 -2.6768
   67MOL   H19543887   2.119   1.031   5.315  1.5226  1.6692 -0.7034
   67MOL   H19643888   2.225   1.087   5.431  0.6212  2.0289 -1.3682
   67MOL   H19743889   1.945   1.207   5.363 -0.1661 -0.8759 -1.0393
   67MOL   H19843890   2.101   1.267   5.307  0.0101  0.6986  0.5344
   67MOL   H19943891   2.059   1.285   5.471  1.8818  1.8855 -0.8266
   67MOL   C20043892   2.425   0.146   5.279 -0.7851 -0.5359 -0.7624
   67MOL   C20143893   2.529   0.050   5.199 -0.4383 -0.0885 -0.3594
   67MOL   C20243894   2.676   0.115   5.185 -0.1770  0.3462 -0.3894
   67MOL   C20343895   2.784   0.034   5.263  0.4321 -0.3347 -0.7813
   67MOL   C20443896   2.904   0.120   5.317  0.2531 -0.4833 -0.3899
   67MOL   C20543897   2.871   0.196   5.444 -0.4477 -0.4522  0.5635
   67MOL   C20643898   2.863   0.127   5.579 -0.5887  0.1944 -0.5662
   67MOL   C20743899   2.789   0.205   5.681 -0.0714  0.0889  0.0031
   67MOL   C20843900   2.870   0.319   5.755 -0.0442 -0.5378 -0.3713
   67MOL   C20943901   2.795   0.383   5.865  0.7853  0.5335 -0.9139
   67MOL   C21043902   2.678   0.473   5.812  0.3609  0.1486  0.0441
   67MOL   H21143903   2.324   0.108   5.265 -0.5634 -1.6113  0.4330
   67MOL   H21243904   2.427   0.247   5.237  1.2745  0.4144  1.4952
   67MOL   H21343905   2.536   7.662   5.258 -1.7710 -0.7798 -1.2476
   67MOL   H21443906   2.670   0.220   5.214  0.4215  0.5670 -1.0581
   67MOL   H21543907   2.706   0.119   5.081 -1.4934 -2.9649 -0.9419
   67MOL   H21643908   2.831   7.658   5.204 -0.2631 -1.8768  0.7002
   67MOL   H21743909   2.740   7.682   5.346  0.8155 -1.5255 -1.3595
   67MOL   H21843910   2.945   0.194   5.249  2.2105 -0.7529  0.4736
   67MOL   H21943911   2.987   0.056   5.345 -0.5383 -0.7278  1.4657
   67MOL   H22043912   2.948   0.270   5.467 -1.5272  0.3909  1.5581
   67MOL   H22143913   2.785   0.261   5.431  0.6313  1.0886  0.9162
   67MOL   H22243914   2.965   0.104   5.612 -1.2050 -0.1882  1.1017
   67MOL   H22343915   2.819   0.029   5.558  0.9960 -0.3045 -1.6868
   67MOL   H22443916   2.752   0.133   5.755 -0.6803  0.3398 -0.0562
   67MOL   H22543917   2.699   0.236   5.627 -0.2817 -0.8150 -0.1771
   67MOL   H22643918   2.912   0.389   5.683  2.0202 -0.3888  0.9695
   67MOL   H22743919   2.967   0.287   5.790  0.0599 -0.6241 -0.7349
   67MOL   H22843920   2.757   0.311   5.937  1.8927 -0.1617 -1.0128
   67MOL   H22943921   2.869   0.442   5.921  0.6408  1.8452 -2.0729
   67MOL   H23043922   2.634   0.534   5.892  1.5643  0.8736  0.1694
   67MOL   H23143923   2.594   0.415   5.775 -1.1448  1.8133  0.7794
   67MOL   H23243924   2.714   0.537   5.732  0.6621  0.1693  0.1930
   67MOL   C23343925   2.483   0.005   5.056  0.4547 -0.0884  0.1228
   67MOL   C23443926   2.354   7.624   5.037 -0.0988  0.5583 -0.7220
   67MOL   C23543927   2.387   7.469   5.014  0.1307 -0.4537  0.2077
   67MOL   C23643928   2.440   7.402   5.143  0.2920 -0.4988 -0.0201
   67MOL   C23743929   2.585   7.367   5.142  0.1911 -0.2451  0.5743
   67MOL   C23843930   2.635   7.342   5.289 -0.4978 -0.2469  0.3073
   67MOL   C23943931   2.792   7.340   5.298 -0.8442 -0.0169  1.0075
   67MOL   C24043932   2.853   7.344   5.443 -0.1714  0.2756  0.9400
   67MOL   C24143933   3.005   7.328   5.456  0.2751 -0.0275  0.2315
   67MOL   C24243934   3.067   7.389   5.578 -0.3649  0.1013  0.3010
   67MOL   C24343935   3.103   7.534   5.556  0.2638 -0.2725  0.0270
   67MOL   H24443936   2.559   7.644   5.012 -1.7934 -2.5352 -0.2804
   67MOL   H24543937   2.493   0.094   4.993  2.0673  0.3394  0.9479
   67MOL   H24643938   2.300   7.630   5.131 -0.7510 -0.4825 -1.0165
   67MOL   H24743939   2.296   7.416   4.987  1.3525 -3.2859  1.4520
   67MOL   H24843940   2.455   7.448   4.932  1.2888 -0.5714  1.1858
   67MOL   H24943941   2.385   7.308   5.144 -0.5604 -0.0150  1.6981
   67MOL   H25043942   2.408   7.458   5.231  0.5813 -0.9518  0.3721
   67MOL   H25143943   2.647   7.446   5.100  1.2057 -0.8729  0.8439
   67MOL   H25243944   2.605   7.280   5.079  0.8721 -0.8795  1.6512
   67MOL   H25343945   2.596   7.251   5.336  0.4577 -0.4213  0.7684
   67MOL   H25443946   2.599   7.423   5.352 -0.9211  0.0859 -0.3541
   67MOL   H25543947   2.822   7.245   5.255  0.9908  0.6912  0.6515
   67MOL   H25643948   2.841   7.419   5.241  1.1309 -1.8884  0.0390
   67MOL   H25743949   2.822   7.442   5.478 -1.6140  0.1086  0.1801
   67MOL   H25843950   2.799   7.266   5.498  1.2502 -1.7562 -0.4712
   67MOL   H25943951   3.013   7.220   5.469  3.4892  0.4349  2.8291
   67MOL   H26043952   3.061   7.357   5.368 -0.3687 -0.4646 -0.3243
   67MOL   H26143953   3.153   7.331   5.613 -0.0679  0.0098 -0.5714
   67MOL   H26243954   2.992   7.368   5.654  0.1885  0.0749  0.8381
   67MOL   H26343955   3.011   7.592   5.539 -0.2047 -1.0174  0.0215
   67MOL   H26443956   3.166   7.559   5.471  0.7888 -2.5149 -0.2581
   67MOL   H26543957   3.143   7.578   5.647 -0.1661 -0.2739  0.2200
   67MOL   C26643958   2.264   7.673   4.927 -0.4171 -0.3486  0.2260
   67MOL   C26743959   2.200   0.108   4.949 -0.6291 -0.1968 -0.2662
   67MOL   C26843960   2.082   0.104   5.042  0.6545  0.1112  0.0131
   67MOL   C26943961   2.025   0.240   5.088  0.6532  0.2175  0.0033
   67MOL   C27043962   1.955   0.238   5.226 -0.8210  0.5394  0.2348
   67MOL   C27143963   1.870   0.357   5.255  0.5280  0.2853 -0.1734
   67MOL   C27243964   1.779   0.340   5.381  0.4322 -0.5022 -0.5584
   67MOL   C27343965   1.685   0.461   5.405 -0.4280  0.6980 -0.2975
   67MOL   C27443966   1.610   0.452   5.540  0.4057 -0.7567  0.4707
   67MOL   C27543967   1.491   0.559   5.555 -0.1886 -0.0437  0.4209
   67MOL   C27643968   1.421   0.544   5.692 -0.4593  0.2847  0.3111
   67MOL   H27743969   2.180   7.605   4.916 -1.1908  0.7501 -0.8292
   67MOL   H27843970   2.325   7.679   4.837 -2.2194  0.7448 -0.9581
   67MOL   H27943971   2.285   0.155   4.999  1.6573 -1.0786 -3.2006
   67MOL   H28043972   1.998   0.059   4.990  0.5573 -1.2257  1.3004
   67MOL   H28143973   2.106   0.046   5.131  3.2871  0.8487 -0.1719
   67MOL   H28243974   1.951   0.275   5.016  2.6392 -3.0091 -3.7687
   67MOL   H28343975   2.098   0.320   5.101 -1.9969  2.7979 -0.4704
   67MOL   H28443976   2.034   0.220   5.299  0.5793  3.7666 -0.3881
   67MOL   H28543977   1.888   0.152   5.227 -0.3921  0.2091  1.6648
   67MOL   H28643978   1.798   0.368   5.174  0.2906  1.5929  0.2091
   67MOL   H28743979   1.927   0.450   5.256 -1.7512  1.7019  0.4770
   67MOL   H28843980   1.725   0.245   5.381 -0.2559 -0.1113  0.7231
   67MOL   H28943981   1.847   0.345   5.466 -3.5059  0.3579  2.6648
   67MOL   H29043982   1.611   0.457   5.325 -1.1342 -2.2622  0.4340
   67MOL   H29143983   1.739   0.555   5.400 -2.8657  2.2525  1.6813
   67MOL   H29243984   1.572   0.350   5.546  1.0904 -0.8786  3.6277
   67MOL   H29343985   1.686   0.439   5.618  1.9884  0.8732 -0.7756
   67MOL   H29443986   1.413   0.553   5.479 -0.6087  3.8795  0.4382
   67MOL   H29543987   1.530   0.659   5.535  2.2733 -1.3299 -1.4803
   67MOL   H29643988   1.388   0.441   5.705  0.4687 -0.1072 -0.4131
   67MOL   H29743989   1.336   0.611   5.707 -0.1020  0.7884  0.1074
   67MOL   H29843990   1.490   0.567   5.774 -1.0880  0.8279  0.6990
   67MOL   C29943991   2.168   0.176   4.812  0.2975 -0.2601 -0.4093
   67MOL   C30043992   2.252   0.300   4.792  0.1723  0.2026 -0.2823
   67MOL   C30143993   2.177   0.391   4.696 -0.1585 -0.0053  0.1108
   67MOL   C30243994   2.058   0.463   4.757 -0.5359  1.4071 -0.4416
   67MOL   C30343995   2.006   0.580   4.673  0.0274  0.0782  0.0995
   67MOL   C30443996   1.886   0.647   4.734 -0.1742  0.3085 -0.3703
   67MOL   C30543997   1.838   0.773   4.651  0.2709  0.3308 -0.5606
   67MOL   C30643998   1.697   0.823   4.687 -0.0573 -0.1571  0.1954
   67MOL   C30743999   1.656   0.947   4.605  0.3176  0.4192  0.2649
   67MOL   C30844000   1.509   0.980   4.614 -0.2993  0.1467  0.2554
   67MOL   C30944001   1.464   1.020   4.750 -0.5183 -0.3088  0.3768
   67MOL   H31044002   2.065   0.208   4.824  0.3811  0.5122 -1.6811
   67MOL   H31144003   2.156   0.102   4.733  0.1994  2.0643 -2.6423
   67MOL   H31244004   2.256   0.355   4.885 -1.0552 -2.6236  1.5202
   67MOL   H31344005   2.243   0.457   4.639 -0.0664  0.7147  1.0477
   67MOL   H31444006   2.135   0.320   4.625  0.6579 -0.4491  0.0646
   67MOL   H31544007   1.973   0.394   4.762  1.7584 -1.5709 -1.0265
   67MOL   H31644008   2.088   0.500   4.855  1.6227 -0.6191 -0.2821
   67MOL   H31744009   2.083   0.654   4.652 -0.2695 -0.1731 -2.0086
   67MOL   H31844010   1.982   0.547   4.571  0.2734  1.0587 -0.2803
   67MOL   H31944011   1.910   0.684   4.834 -0.4225  1.1242 -0.6058
   67MOL   H32044012   1.800   0.581   4.731  1.2684 -1.5778 -1.2780
   67MOL   H32144013   1.916   0.849   4.651  1.6354 -1.0276 -1.0143
   67MOL   H32244014   1.833   0.732   4.550  0.9451 -0.8552 -0.1287
   67MOL   H32344015   1.687   0.835   4.795  2.1651 -1.4217  0.5902
   67MOL   H32444016   1.629   0.739   4.676  0.4733 -0.2753 -2.5512
   67MOL   H32544017   1.679   0.920   4.502 -0.9800  1.0928 -0.2018
   67MOL   H32644018   1.716   1.037   4.621 -2.1901  3.1429 -4.7077
   67MOL   H32744019   1.448   0.894   4.585 -0.7100  0.0796  1.3096
   67MOL   H32844020   1.489   1.059   4.541  2.0373  0.8229  0.3169
   67MOL   H32944021   1.532   1.097   4.784  1.1335 -0.7522 -1.8347
   67MOL   H33044022   1.367   1.071   4.750 -0.5250 -0.2872 -1.9600
   67MOL   H33144023   1.448   0.932   4.813 -3.2830 -0.7048 -0.7782
   67MOL   C33244024   2.399   0.268   4.733 -0.1491 -0.6011  0.4086
   67MOL   C33344025   2.494   0.389   4.752 -0.3996 -0.1740  0.7737
   67MOL   C33444026   2.601   0.395   4.644  0.5398 -0.2476  0.1898
   67MOL   C33544027   2.703   0.516   4.640 -0.2539 -0.1729  0.3247
   67MOL   C33644028   2.792   0.529   4.520  0.1072 -0.5327 -0.0920
   67MOL   C33744029   2.891   0.651   4.515  0.2754  0.1038 -0.0840
   67MOL   C33844030   2.939   0.689   4.377  0.6544  0.5946 -0.9835
   67MOL   C33944031   3.064   0.785   4.397 -0.3498  0.0725 -0.3258
   67MOL   C34044032   3.029   0.927   4.463  0.0199 -0.1176  0.9087
   67MOL   C34144033   2.953   1.028   4.363 -0.5104 -0.0089  1.1232
   67MOL   C34244034   3.021   1.040   4.218 -0.6460 -0.0638 -0.1236
   67MOL   H34344035   2.436   0.176   4.778 -0.7693 -1.0379  0.0369
   67MOL   H34444036   2.375   0.247   4.629  0.2875 -2.8434  0.7338
   67MOL   H34544037   2.432   0.478   4.763 -0.4668 -0.0668 -0.4202
   67MOL   H34644038   2.556   0.381   4.546  0.6611 -0.9766  0.2339
   67MOL   H34744039   2.664   0.307   4.656  0.0720 -0.4053  1.6836
   67MOL   H34844040   2.639   0.604   4.640 -1.9676 -1.3655 -1.5025
   67MOL   H34944041   2.762   0.511   4.731 -0.1197 -0.2640  0.2323
   67MOL   H35044042   2.856   0.441   4.519 -0.8343 -1.2240 -1.7084
   67MOL   H35144043   2.731   0.540   4.431 -0.6029  0.0628  0.4579
   67MOL   H35244044   2.974   0.621   4.579  1.0234  1.3432 -0.4666
   67MOL   H35344045   2.850   0.730   4.577  1.8084  0.1703  0.8583
   67MOL   H35444046   2.858   0.738   4.324  1.8077  0.8261 -2.5828
   67MOL   H35544047   2.957   0.597   4.321 -0.5002 -1.6375  2.2126
   67MOL   H35644048   3.140   0.741   4.462  0.3109 -0.2406 -1.3046
   67MOL   H35744049   3.111   0.784   4.299  1.6025  0.6320  0.5892
   67MOL   H35844050   3.129   0.966   4.482  0.6780 -0.3020 -1.9978
   67MOL   H35944051   2.972   0.926   4.556 -0.8121 -0.7210  0.4000
   67MOL   H36044052   2.964   1.127   4.408  2.0308  0.6082 -0.7159
   67MOL   H36144053   2.847   1.004   4.361 -0.6407  0.4323  2.2961
   67MOL   H36244054   3.121   1.081   4.227 -0.4387 -0.4533 -0.7049
   67MOL   H36344055   3.038   0.944   4.170 -1.3574  0.0765 -0.6660
   67MOL   H36444056   2.958   1.115   4.169 -2.8974 -0.2131  2.3958
   67MOL   C36544057   2.557   0.383   4.888  0.4271  0.4188 -0.8915
   67MOL   C36644058   2.576   0.514   4.966 -0.1478 -0.6134 -0.5224
   67MOL   C36744059   2.447   0.552   5.040 -0.5896 -0.5483 -0.1009
   67MOL   C36844060   2.372   0.670   4.977  0.0174  0.4537 -0.0721
   67MOL   C36944061   2.245   0.702   5.048  0.2330 -0.0533  0.3300
   67MOL   C37044062   2.170   0.818   4.983 -0.8304  0.5886  0.4733
   67MOL   C37144063   2.032   0.836   5.053 -0.2008  0.2616  0.4572
   67MOL   C37244064   1.972   0.977   5.019  0.2059  0.0994  0.2374
   67MOL   C37344065   1.844   1.004   5.099 -0.1841  0.6800  0.3887
   67MOL   C37444066   1.773   1.118   5.041 -0.1039 -0.4061 -0.1464
   67MOL   C37544067   1.624   1.121   5.075  0.3363  0.0524 -0.4253
   67MOL   H37644068   2.496   0.321   4.953  1.9650  0.0855  0.2446
   67MOL   H37744069   2.650   0.326   4.887  1.0537  1.4148 -0.7745
   67MOL   H37844070   2.592   0.582   4.883  2.1381 -0.5829 -0.0800
   67MOL   H37944071   2.456   0.573   5.146  1.0444 -2.8472  0.2580
   67MOL   H38044072   2.387   0.462   5.054  0.9514 -1.3889  1.2566
   67MOL   H38144073   2.333   0.659   4.876  0.0926  2.6386 -0.3688
   67MOL   H38244074   2.443   0.753   4.968  0.2705  0.0712 -1.7669
   67MOL   H38344075   2.265   0.736   5.150 -0.6932 -1.3666  0.9593
   67MOL   H38444076   2.181   0.614   5.050  0.7686 -0.4670 -0.4195
   67MOL   H38544077   2.156   0.805   4.876 -0.5828  1.2397  0.3649
   67MOL   H38644078   2.218   0.913   5.002 -0.0792  0.5895 -1.3690
   67MOL   H38744079   1.956   0.759   5.034 -0.5011  0.2493  1.6929
   67MOL   H38844080   2.060   0.840   5.158 -0.7556  0.3296  0.6046
   67MOL   H38944081   1.949   0.981   4.913 -0.3616  1.3274  0.3883
   67MOL   H39044082   2.037   1.061   5.046 -0.7375  0.9899 -0.2598
   67MOL   H39144083   1.788   0.912   5.085 -1.0947  1.3703 -0.5642
   67MOL   H39244084   1.863   1.013   5.206 -1.8917 -0.9483  0.8426
   67MOL   H39344085   1.826   1.211   5.058 -0.9371  0.1905 -0.7593
   67MOL   H39444086   1.775   1.101   4.934 -1.4295  0.3270 -0.2956
   67MOL   H39544087   1.613   1.136   5.183 -1.4668  1.6025 -0.7993
   67MOL   H39644088   1.578   1.031   5.035 -1.7170  1.0161 -0.2495
   67MOL   H39744089   1.563   1.201   5.035  0.4011  0.1471 -0.3359
   67MOL   C39844090   2.702   0.506   5.054 -0.2231  0.3924  0.5414
   67MOL   C39944091   2.746   0.623   5.143 -0.3083  1.0349  0.0356
   67MOL   C40044092   2.804   0.749   5.073  0.2146  0.4414 -0.4381
   67MOL   C40144093   2.929   0.721   4.990 -0.2707 -0.4369 -0.1893
   67MOL   C40244094   2.971   0.841   4.909  0.4024  0.4155  0.1380
   67MOL   C40344095   3.080   0.813   4.817  0.0367 -0.0995  0.6593
   67MOL   C40444096   3.213   0.794   4.887  0.7073  1.0445 -0.0854
   67MOL   C40544097   3.338   0.764   4.804  0.0245 -0.5481  0.2929
   67MOL   C40644098   3.318   0.619   4.748 -0.3942 -0.0468  0.1686
   67MOL   C40744099   3.433   0.585   4.651 -0.4728  0.3667  0.1391
   67MOL   C40844100   3.425   0.439   4.607 -0.2857 -0.6167 -0.1608
   67MOL   H40944101   2.782   0.466   4.992  1.7290  0.8390  2.7592
   67MOL   H41044102   2.678   0.429   5.127 -1.1106  1.3349  1.2560
   67MOL   H41144103   2.659   0.664   5.194 -1.3561 -0.8173 -0.1953
   67MOL   H41244104   2.813   0.833   5.141 -0.3721 -1.0276  1.5068
   67MOL   H41344105   2.729   0.760   4.995  1.4154 -1.0029 -1.8289
   67MOL   H41444106   3.013   0.682   5.048 -0.2795 -1.5497 -0.9246
   67MOL   H41544107   2.901   0.652   4.910 -0.1235 -0.7540  0.0297
   67MOL   H41644108   2.887   0.862   4.842 -2.0142  3.2042  3.8315
   67MOL   H41744109   2.993   0.928   4.971 -0.4969  0.3684  0.5294
   67MOL   H41844110   3.088   0.893   4.743  1.0596 -0.6122  0.2012
   67MOL   H41944111   3.055   0.726   4.756  0.7685 -0.0436  0.2769
   67MOL   H42044112   3.232   0.892   4.931 -1.5858  0.8083  1.5398
   67MOL   H42144113   3.197   0.736   4.978  1.7654  1.0523  0.1069
   67MOL   H42244114   3.426   0.770   4.867  1.2776 -0.4328 -1.4294
   67MOL   H42344115   3.351   0.835   4.722 -0.4211  2.5697  2.8175
   67MOL   H42444116   3.307   0.548   4.829 -1.4000  1.2723  1.1975
   67MOL   H42544117   3.220   0.605   4.703 -0.2014 -1.8286  0.2558
   67MOL   H42644118   3.533   0.609   4.687 -1.6574  2.9254  1.8409
   67MOL   H42744119   3.422   0.637   4.555  2.9821  0.0013 -0.5263
   67MOL   H42844120   3.490   0.402   4.528 -2.0818 -2.2851 -0.8799
   67MOL   H42944121   3.325   0.422   4.569 -0.4745 -1.2567  0.6079
   67MOL   H43044122   3.418   0.366   4.688  4.6721 -1.8912 -0.7120
   67MOL   C43144123   2.842   0.572   5.254 -0.2684 -0.1265 -0.3739
   67MOL   C43244124   2.882   0.670   5.369  0.0420 -1.0348 -0.6542
   67MOL   C43344125   2.961   0.603   5.480 -0.0332  0.1628  0.1253
   67MOL   C43444126   3.108   0.556   5.441 -0.8424  0.2021 -0.3316
   67MOL   C43544127   3.201   0.677   5.446  0.7956  0.1118  0.0201
   67MOL   C43644128   3.344   0.626   5.430  0.4866  0.1822  0.3617
   67MOL   C43744129   3.426   0.709   5.330  0.1404  0.0652 -1.0199
   67MOL   C43844130   3.426   0.857   5.350 -0.1642 -0.5039 -0.1795
   67MOL   C43944131   3.475   0.885   5.489 -0.6937 -0.4962 -0.2162
   67MOL   C44044132   3.489   1.035   5.516 -0.3188 -0.9319 -0.3350
   67MOL   C44144133   3.524   1.056   5.667 -0.0015  0.1121 -0.0934
   67MOL   H44244134   2.938   0.539   5.215 -0.5710 -1.2122 -0.2376
   67MOL   H44344135   2.792   0.485   5.297 -0.7688 -0.6975 -2.0901
   67MOL   H44444136   2.942   0.750   5.326  0.6226 -0.9143  0.3494
   67MOL   H44544137   2.976   0.657   5.573  2.1426 -0.4263  0.1398
   67MOL   H44644138   2.906   0.512   5.505  1.1309 -0.8210 -0.7840
   67MOL   H44744139   3.114   0.490   5.354 -0.8571 -2.6205  1.7096
   67MOL   H44844140   3.145   0.495   5.524  0.7894 -0.2130 -1.3465
   67MOL   H44944141   3.179   0.735   5.535 -0.2078  2.3547 -1.6110
   67MOL   H45044142   3.171   0.741   5.362  1.2769 -0.5266 -0.6522
   67MOL   H45144143   3.354   0.520   5.407  2.5689  0.1824  1.1588
   67MOL   H45244144   3.391   0.616   5.527  1.4395 -0.4559 -0.1621
   67MOL   H45344145   3.386   0.679   5.233  2.0719 -1.0971 -1.4759
   67MOL   H45444146   3.530   0.678   5.328 -0.1380 -0.9171 -0.8391
   67MOL   H45544147   3.483   0.907   5.272  1.4564 -2.3515 -0.2121
   67MOL   H45644148   3.331   0.908   5.335 -0.5739 -1.1418  0.2010
   67MOL   H45744149   3.574   0.839   5.493  0.4219  1.9028  0.7607
   67MOL   H45844150   3.410   0.834   5.560 -0.8824 -1.0571 -0.7874
   67MOL   H45944151   3.394   1.082   5.489 -0.4229 -0.0367  1.5261
   67MOL   H46044152   3.570   1.079   5.458 -2.2222  2.2368 -0.7193
   67MOL   H46144153   3.439   1.035   5.732 -0.7734  0.3606 -1.0030
   67MOL   H46244154   3.588   0.975   5.702 -0.3833  0.4560  1.4414
   67MOL   H46344155   3.576   1.150   5.688  0.8124 -0.4823  0.6130
   67MOL   C46444156   2.749   0.730   5.438  0.4017  0.5191  0.0868
   67MOL   C46544157   2.758   0.825   5.553 -0.3224 -0.3275 -0.0202
   67MOL   C46644158   2.862   0.934   5.547  0.0845 -0.3548  0.0807
   67MOL   C46744159   2.845   1.031   5.432  0.1715 -0.0418  0.2619
   67MOL   C46844160   2.971   1.102   5.396  0.0860 -0.6443 -0.2656
   67MOL   C46944161   2.956   1.162   5.252 -0.0312 -0.2163  0.1615
   67MOL   C47044162   3.088   1.228   5.208 -0.1700 -0.2529 -0.3504
   67MOL   C47144163   3.080   1.320   5.079  0.1786  0.5519  0.1330
   67MOL   C47244164   3.038   1.239   4.957  0.4521 -0.7005  0.2745
   67MOL   C47344165   3.053   1.321   4.829 -0.2466 -0.1108  0.3118
   67MOL   C47444166   3.065   1.230   4.706  0.2253 -0.6646 -0.4527
   67MOL   H47544167   2.697   0.644   5.478  2.7858 -0.5365  1.0222
   67MOL   H47644168   2.680   0.765   5.361  0.2663 -3.5171 -1.7665
   67MOL   H47744169   2.778   0.765   5.642  0.7111 -1.3599 -0.9438
   67MOL   H47844170   2.958   0.883   5.537 -0.8509 -2.0271 -0.5309
   67MOL   H47944171   2.875   0.997   5.634 -0.0162  1.2221 -1.0245
   67MOL   H48044172   2.800   0.972   5.352 -1.9306  1.0994  0.5653
   67MOL   H48144173   2.766   1.104   5.450 -0.1569 -0.0374 -1.1617
   67MOL   H48244174   3.059   1.037   5.399 -0.5862 -1.5332  0.4964
   67MOL   H48344175   2.993   1.187   5.460 -2.9493 -0.5854  0.7435
   67MOL   H48444176   2.937   1.079   5.183  1.9044 -1.5367  1.1800
   67MOL   H48544177   2.868   1.224   5.235  0.3328  0.4743  0.7726
   67MOL   H48644178   3.122   1.300   5.283  0.6469 -0.1835 -0.7723
   67MOL   H48744179   3.166   1.152   5.204 -0.3125 -0.3353 -1.5810
   67MOL   H48844180   3.010   1.399   5.105 -0.1487  0.0277  0.8464
   67MOL   H48944181   3.178   1.362   5.055  0.6107 -0.5483 -0.0801
   67MOL   H49044182   3.100   1.150   4.951  0.4246 -0.7339  0.5009
   67MOL   H49144183   2.936   1.200   4.959  0.2795 -0.2014  1.6984
   67MOL   H49244184   2.963   1.382   4.825 -0.1178  0.0886  0.4426
   67MOL   H49344185   3.141   1.385   4.838 -0.6518  0.4869  0.0567
   67MOL   H49444186   3.144   1.155   4.707 -1.0695 -2.0266  0.4195
   67MOL   H49544187   3.058   1.291   4.616 -0.5683 -0.4588 -0.2498
   67MOL   H49644188   2.972   1.177   4.689 -0.0132 -0.3988  0.0364
   67MOL   C49744189   2.616   0.884   5.575 -0.1828  0.3844 -0.6708
   67MOL   C49844190   2.583   0.979   5.687  0.7284  0.2034  0.1848
   67MOL   C49944191   2.565   0.909   5.822  0.0046 -0.1686  0.2764
   67MOL   C50044192   2.691   0.882   5.896  0.5016 -0.3303 -0.1287
   67MOL   C50144193   2.675   0.815   6.031 -0.1042  0.1230  0.0816
   67MOL   C50244194   2.803   0.770   6.103 -0.0114  0.9854  0.0833
   67MOL   C50344195   2.777   0.663   6.218 -0.3976 -0.0136  0.0089
   67MOL   C50444196   2.906   0.596   6.269 -0.3864  0.2188 -0.2670
   67MOL   C50544197   2.902   0.541   6.409 -0.4728 -0.2845  0.1191
   67MOL   C50644198   2.828   0.400   6.416 -0.1339  0.0601  0.0609
   67MOL   C50744199   2.860   0.294   6.304  0.0184  0.5533  0.3101
   67MOL   H50844200   2.590   0.928   5.479 -0.0794  1.0632 -0.3889
   67MOL   H50944201   2.542   0.805   5.590 -0.0652 -0.0130 -2.1047
   67MOL   H51044202   2.666   1.050   5.688  1.7752 -0.9645 -1.3116
   67MOL   H51144203   2.491   0.829   5.824  1.4096 -1.5100 -0.7102
   67MOL   H51244204   2.500   0.971   5.884 -1.1946 -1.8467  0.7280
   67MOL   H51344205   2.727   0.984   5.910 -1.2868  0.6812 -2.5252
   67MOL   H51444206   2.766   0.834   5.834  2.0092  0.6835  0.8984
   67MOL   H51544207   2.627   0.889   6.096  1.1295  2.6273 -1.7644
   67MOL   H51644208   2.608   0.729   6.034 -0.9001  0.7769  1.6741
   67MOL   H51744209   2.867   0.729   6.025 -1.0664 -1.5110  0.5044
   67MOL   H51844210   2.855   0.860   6.135  2.3720 -0.1943 -0.3583
   67MOL   H51944211   2.747   0.726   6.302  3.8616 -0.1407  1.7504
   67MOL   H52044212   2.710   0.585   6.182  0.0826  0.3045 -1.6571
   67MOL   H52144213   2.992   0.663   6.275 -0.2679  0.0354  0.1229
   67MOL   H52244214   2.948   0.524   6.199  1.7716 -0.9397  2.1486
   67MOL   H52344215   2.838   0.608   6.466 -0.8803  0.7568 -1.5272
   67MOL   H52444216   3.001   0.539   6.453  0.2310  0.8880 -1.4031
   67MOL   H52544217   2.721   0.417   6.422 -0.0437  0.3612  0.9783
   67MOL   H52644218   2.850   0.348   6.509  0.4949 -1.3583 -0.8576
   67MOL   H52744219   2.967   0.279   6.284 -0.3757  0.5442 -1.9188
   67MOL   H52844220   2.813   0.317   6.209  0.0165 -1.6340 -0.2635
   67MOL   H52944221   2.824   0.199   6.344  3.0630 -1.4064 -1.3324
   67MOL   C53044222   2.455   1.056   5.651  0.2483  0.1807 -0.2612
   67MOL   C53144223   2.445   1.190   5.729  0.5795  0.5516 -0.0603
   67MOL   C53244224   2.297   1.230   5.759 -0.5804  0.4065 -0.4845
   67MOL   C53344225   2.224   1.161   5.870  0.4479 -0.4414  0.2829
   67MOL   C53444226   2.076   1.188   5.881  0.5130 -0.0549 -0.6602
   67MOL   C53544227   2.014   1.133   6.008 -0.2161 -0.0910 -0.1653
   67MOL   C53644228   1.869   1.180   6.031  0.4891 -0.3904 -0.3400
   67MOL   C53744229   1.789   1.115   6.147 -0.0635 -0.0533 -0.2789
   67MOL   C53844230   1.648   1.167   6.150 -0.1295 -0.5143  0.7144
   67MOL   C53944231   1.552   1.095   6.244  0.0917 -0.0940 -0.0915
   67MOL   C54044232   1.408   1.147   6.238 -0.0655  0.1076 -0.2482
   67MOL   H54144233   2.439   1.064   5.544 -2.6783  0.1898  0.1513
   67MOL   H54244234   2.368   0.998   5.682 -1.4962  2.5819 -0.4844
   67MOL   H54344235   2.489   1.176   5.828 -0.7668 -0.8795  0.3658
   67MOL   H54444236   2.234   1.236   5.670 -0.4486 -2.5200 -0.8183
   67MOL   H54544237   2.302   1.335   5.790  1.0765 -0.3174  1.8370
   67MOL   H54644238   2.276   1.167   5.965 -2.2591 -2.7808  1.9878
   67MOL   H54744239   2.226   1.054   5.849 -1.1995 -0.4145 -0.1152
   67MOL   H54844240   2.023   1.139   5.800 -0.9416 -0.2227  0.3828
   67MOL   H54944241   2.053   1.295   5.883  1.2939  0.1017  0.0841
   67MOL   H55044242   2.074   1.155   6.096  0.2746 -0.8940 -0.2879
   67MOL   H55144243   2.014   1.024   6.004  1.0802 -0.2168  2.3160
   67MOL   H55244244   1.804   1.189   5.944  1.2870  0.0308 -0.8996
   67MOL   H55344245   1.882   1.281   6.069 -0.8505 -0.1940 -0.3814
   67MOL   H55444246   1.828   1.144   6.245 -2.8690 -0.9303  1.1366
   67MOL   H55544247   1.786   1.009   6.123  0.6365 -0.1345 -0.0335
   67MOL   H55644248   1.610   1.163   6.048  1.1326  0.7967  0.1831
   67MOL   H55744249   1.652   1.271   6.180  2.2224  0.2946 -2.2376
   67MOL   H55844250   1.597   1.098   6.343 -0.0384 -0.6469 -0.0140
   67MOL   H55944251   1.544   0.991   6.212 -0.5471 -0.0716 -0.0063
   67MOL   H56044252   1.359   1.108   6.328  0.3609  0.8885  0.3312
   67MOL   H56144253   1.407   1.255   6.256 -1.5967  0.2579 -1.1203
   67MOL   H56244254   1.348   1.113   6.154  0.2736  1.7351 -1.1572
   67MOL   C56344255   2.523   1.304   5.653 -0.4930  0.6930  0.2032
   67MOL   C56444256   2.608   1.412   5.730 -0.0998  0.7379  0.2344
   67MOL   C56544257   2.677   1.519   5.629  0.2807  0.5082 -0.3414
   67MOL   C56644258   2.787   1.465   5.534  0.4011 -0.7441 -0.6107
   67MOL   C56744259   2.870   1.563   5.445  0.2158  0.1325 -0.6042
   67MOL   C56844260   2.772   1.632   5.349  0.0431 -0.1583  0.2199
   67MOL   C56944261   2.850   1.705   5.243  0.2559  0.0741 -0.2632
   67MOL   C57044262   2.769   1.804   5.157 -0.3681  0.1947  0.3785
   67MOL   C57144263   2.849   1.855   5.037  0.5084  0.2179  0.0061
   67MOL   C57244264   2.774   1.973   4.978 -0.3964 -0.2924  0.1484
   67MOL   C57344265   2.842   2.024   4.851  0.2611  0.1350 -0.0298
   67MOL   H57444266   2.453   1.370   5.603 -1.0863  0.6216  0.9302
   67MOL   H57544267   2.583   1.263   5.571 -1.0201  2.2576 -0.9993
   67MOL   H57644268   2.537   1.477   5.781 -1.8366  0.4302 -1.7530
   67MOL   H57744269   2.732   1.592   5.689  0.1556  1.7363 -1.6944
   67MOL   H57844270   2.608   1.584   5.575 -0.3092  0.5637  0.4733
   67MOL   H57944271   2.751   1.389   5.466 -0.1632 -0.4211 -0.6777
   67MOL   H58044272   2.852   1.409   5.601 -0.9824 -0.7243  0.7946
   67MOL   H58144273   2.940   1.501   5.390 -1.3750 -2.0323 -0.2252
   67MOL   H58244274   2.931   1.625   5.511 -0.3308 -1.0721  1.0839
   67MOL   H58344275   2.707   1.557   5.304 -1.7441  0.3965  1.8074
   67MOL   H58444276   2.707   1.710   5.389  0.3497  0.3137 -0.1893
   67MOL   H58544277   2.932   1.764   5.284 -1.2055  1.4095  0.8007
   67MOL   H58644278   2.892   1.630   5.177  0.0619 -0.8134  0.6184
   67MOL   H58744279   2.742   1.882   5.229 -2.8101  0.5480 -0.8745
   67MOL   H58844280   2.675   1.756   5.132 -0.4785  1.7629 -2.5000
   67MOL   H58944281   2.853   1.774   4.964  0.7216  0.8203 -0.6605
   67MOL   H59044282   2.947   1.894   5.063  0.4967  0.3259 -0.1040
   67MOL   H59144283   2.774   2.051   5.055  0.4311  0.9145 -1.0615
   67MOL   H59244284   2.670   1.950   4.956 -0.1599 -0.8344 -0.4106
   67MOL   H59344285   2.827   1.954   4.769  1.5601 -0.5415  0.3015
   67MOL   H59444286   2.802   2.119   4.816  0.4873 -0.5921 -2.3262
   67MOL   H59544287   2.949   2.031   4.867  0.0609  0.3434  1.3235
   67MOL   C59644288   2.714   1.356   5.825 -0.0258 -0.3915  0.2910
   67MOL   C59744289   2.674   1.324   5.972  0.4470 -0.4684  0.0147
   67MOL   C59844290   2.597   1.437   6.048 -0.3263 -0.0819 -0.4245
   67MOL   C59944291   2.448   1.400   6.068  0.2806 -0.1013  0.0208
   67MOL   C60044292   2.373   1.498   6.164  0.4780 -0.0134  0.7167
   67MOL   C60144293   2.230   1.454   6.218 -0.7050 -0.2714 -0.1520
   67MOL   C60244294   2.151   1.563   6.289 -0.1484 -0.0112  0.1528
   67MOL   C60344295   1.996   1.542   6.292  0.4426 -0.2893  0.1369
   67MOL   C60444296   1.918   1.588   6.168 -0.3088 -0.7334  0.5998
   67MOL   C60544297   1.769   1.592   6.199  0.0794 -0.1760  0.4865
   67MOL   C60644298   1.683   1.622   6.076 -0.3746  0.8521  0.2959
   67MOL   H60744299   2.766   1.277   5.771 -1.5805  0.1550 -2.0458
   67MOL   H60844300   2.789   1.435   5.819 -1.6859  1.1500 -0.5892
   67MOL   H60944301   2.624   1.227   5.969 -0.0809 -0.3097  2.6617
   67MOL   H61044302   2.604   1.534   5.999 -1.8561  0.2941  0.0728
   67MOL   H61144303   2.640   1.454   6.147 -1.6890 -2.0815  0.5451
   67MOL   H61244304   2.440   1.306   6.124  0.2123  1.1267  2.1317
   67MOL   H61344305   2.389   1.393   5.976  1.6312  0.1179 -0.8725
   67MOL   H61444306   2.372   1.590   6.105 -0.5705  0.0851  0.8722
   67MOL   H61544307   2.443   1.513   6.246 -1.0361  0.8097  1.8906
   67MOL   H61644308   2.171   1.444   6.127  2.3461  0.3221 -2.3079
   67MOL   H61744309   2.225   1.361   6.274 -0.5262  1.0023  2.0337
   67MOL   H61844310   2.173   1.662   6.249  0.9983 -0.3928 -0.1888
   67MOL   H61944311   2.194   1.574   6.388 -1.9833  1.7850  0.7848
   67MOL   H62044312   1.957   1.593   6.380  1.6144  1.3922 -0.3053
   67MOL   H62144313   1.973   1.439   6.321  1.4019 -0.8564 -1.0764
   67MOL   H62244314   1.946   1.692   6.150 -0.2824 -0.8314  0.0701
   67MOL   H62344315   1.937   1.527   6.080 -1.4288  0.6303 -0.6082
   67MOL   H62444316   1.767   1.663   6.282  0.4708 -1.3767  1.5440
   67MOL   H62544317   1.722   1.507   6.249 -1.1173 -0.9223 -1.8514
   67MOL   H62644318   1.578   1.647   6.089 -0.0207  0.9933  3.0084
   67MOL   H62744319   1.714   1.714   6.027 -1.7454  1.7617  1.1263
   67MOL   H62844320   1.696   1.561   5.986  1.0318 -0.1424  1.1611
   67MOL   C62944321   2.809   1.286   6.045 -0.2174 -0.0864  0.2190
   67MOL   C63044322   2.789   1.219   6.182 -0.1066 -0.5962 -0.0724
   67MOL   C63144323   2.913   1.160   6.247 -0.0367 -0.1342 -0.1690
   67MOL   C63244324   3.024   1.260   6.265 -0.3005  0.0572  0.4202
   67MOL   C63344325   3.139   1.184   6.332  0.0551  0.6343  0.4703
   67MOL   C63444326   3.193   1.065   6.250  0.3785 -0.1665  0.2643
   67MOL   C63544327   3.347   1.040   6.240  0.0420  0.7068  0.5469
   67MOL   C63644328   3.420   1.153   6.158  0.0518 -0.3576  0.4443
   67MOL   C63744329   3.566   1.132   6.149  0.3665 -0.0847 -0.1265
   67MOL   C63844330   3.630   1.185   6.021  0.0860  0.6974  0.2392
   67MOL   C63944331   3.784   1.180   6.020  0.1370  0.0208 -0.2676
   67MOL   H64044332   2.855   1.213   5.979  0.6460 -0.0980  0.8214
   67MOL   H64144333   2.876   1.372   6.049  0.8296 -0.9070  0.3901
   67MOL   H64244334   2.745   1.293   6.249  1.4198 -0.2218  0.5389
   67MOL   H64344335   2.889   1.116   6.344  0.7736 -0.0438  0.0751
   67MOL   H64444336   2.937   1.071   6.189 -1.3776 -0.0668 -0.8527
   67MOL   H64544337   2.990   1.340   6.331  2.2319  2.0931 -0.6233
   67MOL   H64644338   3.055   1.308   6.171  0.8378  0.3360  0.9257
   67MOL   H64744339   3.114   1.150   6.432 -1.1346 -1.8768 -0.6261
   67MOL   H64844340   3.219   1.256   6.348  1.6736 -0.4119 -2.4550
   67MOL   H64944341   3.147   1.069   6.151  0.7659 -0.7140  0.0623
   67MOL   H65044342   3.156   0.969   6.287 -1.4498  0.1783 -0.6071
   67MOL   H65144343   3.370   0.941   6.202 -0.5928 -0.2764  2.6725
   67MOL   H65244344   3.393   1.056   6.337  1.1846 -0.0451  0.1338
   67MOL   H65344345   3.394   1.255   6.187 -0.8843 -0.6635  0.7184
   67MOL   H65444346   3.376   1.162   6.059 -2.2799  0.1130  1.4805
   67MOL   H65544347   3.603   1.033   6.177 -0.2661  0.2621  2.0262
   67MOL   H65644348   3.610   1.187   6.232 -1.0180  0.4072  0.2926
   67MOL   H65744349   3.597   1.287   6.002  0.1455  0.5333 -0.7841
   67MOL   H65844350   3.580   1.128   5.942  1.0742 -0.6396  0.5595
   67MOL   H65944351   3.824   1.207   6.118 -1.1697 -1.3318  0.6568
   67MOL   H66044352   3.836   1.239   5.945 -0.6656  0.8475 -0.1816
   67MOL   H66144353   3.811   1.075   6.005  1.6384  0.2418  0.6860
   67MOL   H66244354   2.713   1.141   6.178 -0.0299 -0.6600 -0.3149
   68MOL     C144355   5.539   2.472   5.766  0.4782  0.7244 -0.4777
   68MOL     C244356   5.605   2.538   5.644 -0.4040  0.1048  0.1410
   68MOL     C344357   5.685   2.433   5.560  0.3173 -0.1056  0.6431
   68MOL     C444358   5.814   2.378   5.626 -0.3596  0.1816  0.3307
   68MOL     C544359   5.905   2.295   5.533  0.3424 -0.0660 -0.3951
   68MOL     C644360   5.968   2.384   5.422 -0.5573  0.6699  1.0505
   68MOL     C744361   6.070   2.315   5.334  0.0695 -0.0874 -0.0073
   68MOL     C844362   6.124   2.397   5.217 -0.6103  0.1620 -0.8644
   68MOL     C944363   6.248   2.470   5.260  0.3610  0.0903  0.4598
   68MOL    C1044364   6.376   2.387   5.247  0.9675 -0.1154 -0.0733
   68MOL    C1144365   6.514   2.453   5.264 -0.1756 -0.2839 -0.2608
   68MOL    H1244366   5.612   2.444   5.842 -0.3636 -1.5558 -0.4675
   68MOL    H1344367   5.491   2.381   5.731  2.1792 -1.1930  1.9994
   68MOL    H1444368   5.672   2.616   5.680 -1.1245  0.1426  1.3962
   68MOL    H1544369   5.701   2.476   5.461  0.8916 -2.3867 -0.2838
   68MOL    H1644370   5.623   2.346   5.537 -0.2607  0.9335 -1.9476
   68MOL    H1744371   5.799   2.312   5.711  0.7099 -2.1240 -1.2150
   68MOL    H1844372   5.868   2.464   5.664  1.3044 -2.3567  4.0787
   68MOL    H1944373   5.994   2.255   5.582 -1.1660 -1.1088  1.5701
   68MOL    H2044374   5.851   2.213   5.485 -0.6568 -0.2380  1.0040
   68MOL    H2144375   6.002   2.473   5.476 -1.0162 -0.1258  2.6920
   68MOL    H2244376   5.881   2.425   5.371 -0.5420  0.0764  0.5509
   68MOL    H2344377   6.143   2.260   5.393 -2.5522 -3.0512  0.6040
   68MOL    H2444378   6.014   2.236   5.284  0.1324  0.4387 -0.9253
   68MOL    H2544379   6.044   2.459   5.176 -1.6401  0.3301  1.3449
   68MOL    H2644380   6.151   2.323   5.142  0.7104 -0.7177  0.4522
   68MOL    H2744381   6.233   2.509   5.361  2.1422 -2.3907  1.7416
   68MOL    H2844382   6.259   2.553   5.190  2.7438 -0.8071 -0.2880
   68MOL    H2944383   6.376   2.342   5.148 -0.3241  0.5110 -0.3604
   68MOL    H3044384   6.381   2.301   5.315 -0.4544 -0.2827 -0.1705
   68MOL    H3144385   6.512   2.516   5.353 -0.6151  0.2001 -0.6025
   68MOL    H3244386   6.600   2.387   5.255 -1.1505 -1.6311  0.1103
   68MOL    H3344387   6.522   2.527   5.184 -0.5156 -2.0014 -1.9181
   68MOL    H3444388   5.465   2.532   5.820  1.1648  1.2932 -0.1557
   68MOL    C3544389   5.492   2.623   5.570 -0.2947 -0.1954  0.2725
   68MOL    C3644390   5.543   2.721   5.468 -0.0266  1.0558  0.5822
   68MOL    C3744391   5.444   2.734   5.353 -0.2468 -0.5070 -0.0855
   68MOL    C3844392   5.432   2.604   5.275 -0.2977 -0.5639 -0.2539
   68MOL    C3944393   5.339   2.618   5.143 -0.4287  0.2934  0.3350
   68MOL    C4044394   5.377   2.721   5.039 -0.1294 -0.5384 -0.3421
   68MOL    C4144395   5.275   2.710   4.920  1.0165  0.0726  0.3776
   68MOL    C4244396   5.277   2.834   4.832  0.5383  0.2184 -0.1827
   68MOL    C4344397   5.405   2.843   4.747 -0.0005 -0.0782  0.1106
   68MOL    C4444398   5.425   2.974   4.671 -0.5593  0.7894 -0.5922
   68MOL    C4544399   5.545   2.977   4.577  0.4773  0.8117 -0.3344
   68MOL    H4644400   5.469   2.695   5.650  0.1296  0.3168 -0.0611
   68MOL    H4744401   5.398   2.571   5.555 -0.9722  0.6057  1.5686
   68MOL    H4844402   5.632   2.675   5.425  0.0822  1.3003  0.5454
   68MOL    H4944403   5.346   2.763   5.391  0.8812 -0.7868  3.1756
   68MOL    H5044404   5.469   2.819   5.291 -2.0207 -1.7111 -2.5549
   68MOL    H5144405   5.387   2.523   5.332  0.8757 -1.8892 -1.1618
   68MOL    H5244406   5.532   2.570   5.250 -0.2701  1.1715 -2.7392
   68MOL    H5344407   5.236   2.646   5.166 -0.1512  1.6415  0.0075
   68MOL    H5444408   5.326   2.516   5.109  1.4720  0.3139 -0.4588
   68MOL    H5544409   5.484   2.706   5.021 -0.1606  0.2557 -1.2055
   68MOL    H5644410   5.384   2.819   5.085 -1.4848 -0.1886 -0.8769
   68MOL    H5744411   5.288   2.622   4.856  1.7274 -0.6885  1.5419
   68MOL    H5844412   5.170   2.716   4.949  1.3680  0.1598  1.6821
   68MOL    H5944413   5.256   2.924   4.890 -0.6962  0.1370 -0.4961
   68MOL    H6044414   5.191   2.830   4.765  1.4900  0.6392 -1.4694
   68MOL    H6144415   5.398   2.761   4.675  0.7465  0.9849 -1.1872
   68MOL    H6244416   5.496   2.821   4.801 -0.1831 -0.0139  0.4458
   68MOL    H6344417   5.330   2.997   4.624 -0.6854 -0.5756 -1.0355
   68MOL    H6444418   5.457   3.045   4.747 -1.0388 -0.0536  0.4145
   68MOL    H6544419   5.516   2.928   4.484 -1.1411  0.8031  0.1746
   68MOL    H6644420   5.573   3.078   4.550  1.1330  0.7873  0.2215
   68MOL    H6744421   5.630   2.925   4.622  0.7670  0.5567 -1.1623
   68MOL    C6844422   5.588   2.861   5.526 -0.6432 -0.0493  0.3364
   68MOL    C6944423   5.700   2.923   5.448 -0.1810 -0.2345  0.1302
   68MOL    C7044424   5.720   3.069   5.499  0.9527 -0.0386 -0.5759
   68MOL    C7144425   5.824   3.148   5.427 -0.3643  0.3615 -0.1508
   68MOL    C7244426   5.810   3.294   5.450  0.4820 -0.7520  0.2781
   68MOL    C7344427   5.871   3.379   5.331  0.2897 -0.0898 -0.3526
   68MOL    C7444428   5.822   3.527   5.321  0.2929 -0.1986  0.1359
   68MOL    C7544429   5.859   3.611   5.440  0.4718 -0.4679 -0.5985
   68MOL    C7644430   5.824   3.762   5.427 -0.1302  0.0153 -0.8603
   68MOL    C7744431   5.926   3.838   5.338  0.1707  0.3395 -0.4363
   68MOL    C7844432   5.932   3.989   5.362  0.5514  0.2364  0.0782
   68MOL    H7944433   5.614   2.850   5.632  1.3731 -3.1614 -0.4147
   68MOL    H8044434   5.500   2.924   5.534  0.0793  0.8025  1.8864
   68MOL    H8144435   5.674   2.940   5.343  0.8557 -1.4713 -0.3500
   68MOL    H8244436   5.756   3.078   5.602 -1.1634 -0.6218  0.2330
   68MOL    H8344437   5.624   3.120   5.486 -0.0545 -1.9853 -0.9186
   68MOL    H8444438   5.921   3.111   5.460  0.5484  1.6760 -1.2667
   68MOL    H8544439   5.810   3.139   5.319 -2.2506 -2.3479  0.2778
   68MOL    H8644440   5.835   3.331   5.550 -0.6174  0.9447 -0.0534
   68MOL    H8744441   5.704   3.318   5.451  0.3020 -1.5243  2.2322
   68MOL    H8844442   5.980   3.372   5.322  0.2821  0.0782 -0.5782
   68MOL    H8944443   5.848   3.323   5.240  0.5165 -0.3866 -0.2286
   68MOL    H9044444   5.715   3.530   5.299  0.0638 -0.4479  1.1619
   68MOL    H9144445   5.868   3.571   5.233  0.1465 -0.7828 -0.2380
   68MOL    H9244446   5.805   3.579   5.529 -0.6627  2.1517 -0.3040
   68MOL    H9344447   5.961   3.603   5.476  1.0295  0.3995 -1.9749
   68MOL    H9444448   5.724   3.788   5.393 -0.8784 -1.7130 -0.0329
   68MOL    H9544449   5.836   3.814   5.522  0.1410  0.6019 -1.2076
   68MOL    H9644450   6.028   3.800   5.350 -0.1041 -0.2943 -0.1106
   68MOL    H9744451   5.901   3.812   5.235  0.4738  3.2518 -1.2980
   68MOL    H9844452   5.962   4.005   5.466 -0.8960  1.2162  0.3584
   68MOL    H9944453   5.832   4.027   5.341  0.7349 -0.0815 -1.4088
   68MOL   H10044454   5.989   4.052   5.294 -0.6303  1.9258  0.6290
   68MOL   C10144455   5.834   2.845   5.458 -0.2923 -0.0908  0.2333
   68MOL   C10244456   5.911   2.839   5.322 -0.2251  0.9202 -0.8635
   68MOL   C10344457   5.839   2.750   5.212 -0.0376 -0.0735 -0.6506
   68MOL   C10444458   5.888   2.793   5.067 -0.1970  0.0838 -0.1240
   68MOL   C10544459   5.829   2.922   5.016  0.2826 -0.2901  0.1865
   68MOL   C10644460   5.905   2.966   4.883 -0.1536 -0.3986 -0.5776
   68MOL   C10744461   5.842   3.084   4.792 -0.6433  1.0454 -0.4012
   68MOL   C10844462   5.824   3.213   4.872  0.1192  0.4260  0.2514
   68MOL   C10944463   5.767   3.328   4.786  0.3119  0.1623 -0.6892
   68MOL   C11044464   5.724   3.449   4.867 -0.1255 -0.5217 -0.1942
   68MOL   C11144465   5.597   3.428   4.961 -0.9785  0.0691  0.9969
   68MOL   H11244466   5.896   2.877   5.541  1.9868 -1.5506 -0.8273
   68MOL   H11344467   5.813   2.746   5.500  2.0403 -1.0968 -0.8682
   68MOL   H11444468   5.919   2.939   5.280  1.3539  0.7151 -1.0905
   68MOL   H11544469   5.850   2.642   5.221  0.8479 -0.0931 -1.8062
   68MOL   H11644470   5.731   2.762   5.219  0.1259 -0.3258  3.2541
   68MOL   H11744471   5.996   2.789   5.052 -0.1952  1.3421 -0.4402
   68MOL   H11844472   5.866   2.720   4.989  3.4612 -3.0323  1.5922
   68MOL   H11944473   5.723   2.919   4.991  0.3129  2.9905 -0.5072
   68MOL   H12044474   5.844   3.002   5.089 -3.4939  0.7637 -0.0680
   68MOL   H12144475   6.010   2.981   4.910 -0.7120 -0.7530  1.9637
   68MOL   H12244476   5.912   2.879   4.818 -2.0755 -1.0788  0.0998
   68MOL   H12344477   5.745   3.060   4.749 -0.8504  0.4946  0.3733
   68MOL   H12444478   5.919   3.115   4.721 -1.1055  1.3696 -0.7594
   68MOL   H12544479   5.754   3.185   4.950  0.2800  0.9667  0.5917
   68MOL   H12644480   5.919   3.250   4.911 -0.5682  0.8156  1.5492
   68MOL   H12744481   5.829   3.364   4.705  0.3432 -0.0533 -0.7618
   68MOL   H12844482   5.681   3.296   4.727 -1.1721 -0.1552  1.5742
   68MOL   H12944483   5.678   3.518   4.796  0.9100  0.4675  0.0910
   68MOL   H13044484   5.809   3.485   4.925 -0.1377 -0.5882 -0.1338
   68MOL   H13144485   5.508   3.401   4.904  0.5002 -2.5041 -0.1757
   68MOL   H13244486   5.635   3.353   5.031  0.9082 -1.3192 -1.4649
   68MOL   H13344487   5.577   3.522   5.013  1.0341  0.7135  0.6323
   68MOL   C13444488   6.053   2.790   5.346  0.2561 -0.0230  0.1373
   68MOL   C13544489   6.152   2.903   5.372  0.5536  0.7198  0.2981
   68MOL   C13644490   6.183   2.994   5.253  0.1902  0.2413 -0.2642
   68MOL   C13744491   6.191   3.146   5.282 -0.8415 -0.2473  0.5282
   68MOL   C13844492   6.185   3.239   5.154 -0.0499  0.8426 -0.1937
   68MOL   C13944493   6.244   3.377   5.187 -0.9846  0.4749 -0.9116
   68MOL   C14044494   6.214   3.491   5.082 -0.4509  0.5897  0.4338
   68MOL   C14144495   6.242   3.634   5.126 -0.5024  0.0167 -0.1281
   68MOL   C14244496   6.229   3.742   5.025  0.0470  0.2397  0.5306
   68MOL   C14344497   6.288   3.875   5.068 -0.3171  0.3163 -0.2066
   68MOL   C14444498   6.445   3.867   5.054  0.3539 -0.3082  0.3037
   68MOL   H14544499   6.048   2.726   5.433  1.3650 -1.6722 -0.9870
   68MOL   H14644500   6.089   2.729   5.263  1.2149  0.3190  0.2970
   68MOL   H14744501   6.102   2.977   5.435 -0.3375 -0.3343  0.8423
   68MOL   H14844502   6.109   2.968   5.178  0.7228 -0.5870 -0.5043
   68MOL   H14944503   6.278   2.970   5.203  1.6920 -0.2830  2.7333
   68MOL   H15044504   6.106   3.167   5.347 -1.4154  0.0604 -0.3106
   68MOL   H15144505   6.288   3.169   5.328 -1.2280  3.6882 -0.4068
   68MOL   H15244506   6.238   3.192   5.071  1.3186  0.2819  0.9638
   68MOL   H15344507   6.080   3.236   5.128  0.9607 -3.1170 -4.5245
   68MOL   H15444508   6.197   3.408   5.280  0.5963 -0.8344  0.3255
   68MOL   H15544509   6.351   3.372   5.204 -1.0237  0.5929 -0.6456
   68MOL   H15644510   6.266   3.473   4.988  0.5688 -0.9729  1.2546
   68MOL   H15744511   6.108   3.492   5.057 -0.4990 -2.3642  0.3132
   68MOL   H15844512   6.170   3.669   5.200  2.2137  2.6236  1.3865
   68MOL   H15944513   6.335   3.634   5.182 -0.7877 -0.3719  0.3482
   68MOL   H16044514   6.284   3.715   4.935  2.0975  0.0954  1.7777
   68MOL   H16144515   6.124   3.749   4.999  0.1646 -0.3940 -0.1339
   68MOL   H16244516   6.256   3.957   5.003 -0.0458 -0.1600 -0.9571
   68MOL   H16344517   6.263   3.894   5.172 -0.7222  0.4330 -0.3227
   68MOL   H16444518   6.476   3.861   4.950 -0.7647  0.8567 -0.1071
   68MOL   H16544519   6.486   3.796   5.126 -0.8815 -1.4918 -0.1348
   68MOL   H16644520   6.479   3.965   5.089 -0.6258 -0.2647  1.1817
   68MOL   C16744521   6.280   2.846   5.436 -0.9153  0.0121 -0.2745
   68MOL   C16844522   6.355   2.949   5.527  0.0195  0.0304 -0.2996
   68MOL   C16944523   6.508   2.940   5.500  0.1717 -0.3753 -0.6756
   68MOL   C17044524   6.587   3.073   5.539  0.4691  0.9180 -0.1984
   68MOL   C17144525   6.739   3.060   5.538  1.0073 -0.0731  0.8999
   68MOL   C17244526   6.817   3.067   5.403 -0.5568  0.2799 -0.2662
   68MOL   C17344527   6.961   3.108   5.438 -0.5169  0.0419 -0.3593
   68MOL   C17444528   6.981   3.261   5.434 -0.3914 -0.3927  0.6453
   68MOL   C17544529   7.133   3.287   5.468  0.1075  0.5377 -0.8204
   68MOL   C17644530   7.155   3.430   5.492 -0.8380 -0.1287  0.1360
   68MOL   C17744531   7.157   3.510   5.362  0.2809 -0.1647 -0.3559
   68MOL   H17844532   6.244   2.761   5.495 -0.1398 -0.2755 -0.2091
   68MOL   H17944533   6.336   2.795   5.358 -0.5861 -0.9001  0.5446
   68MOL   H18044534   6.322   3.050   5.500 -0.2976 -0.0512 -0.2064
   68MOL   H18144535   6.527   2.921   5.394 -0.3007 -3.5904 -0.2547
   68MOL   H18244536   6.537   2.846   5.548 -1.7051 -0.4106  0.4444
   68MOL   H18344537   6.559   3.154   5.472 -1.4173  1.7197  1.5296
   68MOL   H18444538   6.555   3.111   5.636  0.8657 -1.4712  0.9272
   68MOL   H18544539   6.765   2.974   5.599 -3.0964 -1.2434  1.1538
   68MOL   H18644540   6.765   3.140   5.607  1.1963  0.2446  0.4569
   68MOL   H18744541   6.811   2.969   5.355  1.4076 -0.7189  1.4655
   68MOL   H18844542   6.765   3.139   5.340 -0.1655  0.3419 -0.5229
   68MOL   H18944543   7.022   3.065   5.359  1.1892  1.8780 -0.0745
   68MOL   H19044544   6.988   3.072   5.537  1.3220  1.3635 -0.3600
   68MOL   H19144545   6.969   3.309   5.337 -1.5445  1.7212  1.7999
   68MOL   H19244546   6.926   3.322   5.506 -0.4952  1.0972 -0.6831
   68MOL   H19344547   7.193   3.241   5.391  0.2733  0.2924 -0.5471
   68MOL   H19444548   7.153   3.241   5.565 -2.0966  1.1916 -0.0114
   68MOL   H19544549   7.257   3.451   5.524 -0.7157  1.0649 -0.9765
   68MOL   H19644550   7.086   3.457   5.571  0.5449 -0.1719  1.3866
   68MOL   H19744551   7.217   3.463   5.283  1.8864  0.1486  0.6396
   68MOL   H19844552   7.198   3.608   5.388  0.0474  0.1058 -0.9950
   68MOL   H19944553   7.057   3.526   5.323  1.5636  2.1832 -2.9204
   68MOL   C20044554   6.324   2.930   5.676 -0.7706  0.2137  0.9370
   68MOL   C20144555   6.189   2.969   5.736  0.4590 -0.1775  0.0742
   68MOL   C20244556   6.147   3.113   5.717  0.9886  0.0238  0.4901
   68MOL   C20344557   6.231   3.211   5.802  0.8341 -0.3503  0.4228
   68MOL   C20444558   6.198   3.357   5.778  0.0678  0.4147  0.9858
   68MOL   C20544559   6.282   3.424   5.661  0.2034  0.7791  0.2171
   68MOL   C20644560   6.247   3.570   5.633 -0.0681 -0.6916  0.1071
   68MOL   C20744561   6.358   3.641   5.558 -0.6309 -0.2561 -0.6115
   68MOL   C20844562   6.324   3.782   5.512  0.4096 -0.4314  0.0643
   68MOL   C20944563   6.446   3.846   5.446  0.8045 -0.4907  0.0062
   68MOL   C21044564   6.431   3.997   5.421 -0.1789  0.1282 -0.2687
   68MOL   H21144565   6.341   2.828   5.711 -0.8730 -0.2718 -0.3819
   68MOL   H21244566   6.397   2.993   5.726  1.3099 -2.0268  0.8163
   68MOL   H21344567   6.118   2.902   5.688 -0.1927  0.4889  0.0857
   68MOL   H21444568   6.043   3.125   5.749  0.8044 -0.0425 -0.0868
   68MOL   H21544569   6.146   3.134   5.610  0.5527 -2.0243  0.0656
   68MOL   H21644570   6.338   3.200   5.786  0.9697 -2.1977  2.2835
   68MOL   H21744571   6.215   3.186   5.907 -0.9697  0.8225  0.4442
   68MOL   H21844572   6.215   3.421   5.865 -0.6756  0.3117  1.2142
   68MOL   H21944573   6.097   3.368   5.738  0.4164 -2.2666 -0.7090
   68MOL   H22044574   6.385   3.394   5.679 -0.1225 -1.4410 -1.4922
   68MOL   H22144575   6.253   3.363   5.575 -2.5053 -0.1797  1.7502
   68MOL   H22244576   6.223   3.615   5.729 -1.7564  2.1116 -1.5746
   68MOL   H22344577   6.162   3.572   5.565 -0.7050 -1.3283  0.8664
   68MOL   H22444578   6.383   3.578   5.473 -0.7849  1.0289 -1.6344
   68MOL   H22544579   6.450   3.632   5.615 -2.4454 -1.4630  2.2824
   68MOL   H22644580   6.287   3.837   5.598  1.0490 -1.6114  1.1015
   68MOL   H22744581   6.242   3.789   5.441 -0.5195  1.0531  1.2585
   68MOL   H22844582   6.534   3.823   5.506  1.8284 -0.3273 -1.3816
   68MOL   H22944583   6.458   3.795   5.350 -0.2583 -0.4779 -0.1382
   68MOL   H23044584   6.346   4.004   5.355 -1.1198  0.5180  0.9625
   68MOL   H23144585   6.518   4.049   5.380 -0.0767  0.7039  0.6590
   68MOL   H23244586   6.410   4.060   5.508 -1.1516 -0.1567 -0.2920
   68MOL   C23344587   6.181   2.924   5.885  0.1544 -0.1706 -0.1892
   68MOL   C23444588   6.055   2.943   5.974  0.7610  0.6889 -0.8872
   68MOL   C23544589   6.099   2.918   6.121 -0.2035  0.6442 -0.4825
   68MOL   C23644590   6.167   3.038   6.186 -0.6258  0.4598 -0.2422
   68MOL   C23744591   6.198   3.005   6.334 -0.0059 -0.4148  0.2722
   68MOL   C23844592   6.259   3.127   6.406  0.6333  0.4999 -0.6115
   68MOL   C23944593   6.268   3.109   6.556 -0.4098 -0.5321  0.3536
   68MOL   C24044594   6.308   3.232   6.633  0.1234  0.4191  0.4239
   68MOL   C24144595   6.234   3.364   6.593  0.4176 -0.5854 -0.1113
   68MOL   C24244596   6.270   3.477   6.691 -0.0883 -0.1415  0.3946
   68MOL   C24344597   6.214   3.609   6.647 -0.2461 -0.1844  0.0302
   68MOL   H24444598   6.270   2.954   5.939 -0.6681  0.9333  0.5621
   68MOL   H24544599   6.196   2.818   5.906 -1.4808 -0.0709  1.6146
   68MOL   H24644600   6.029   3.048   5.963  0.2514  0.5912 -0.6323
   68MOL   H24744601   6.014   2.898   6.187 -0.1001  3.0901  0.4634
   68MOL   H24844602   6.154   2.825   6.134 -0.2880  1.2069  5.4582
   68MOL   H24944603   6.113   3.132   6.182 -0.4390  0.5062 -3.2557
   68MOL   H25044604   6.259   3.055   6.131 -0.1604 -0.2405  0.3081
   68MOL   H25144605   6.267   2.921   6.333  0.8835  0.3082 -1.8426
   68MOL   H25244606   6.116   2.956   6.387 -0.1267 -0.4485  0.0569
   68MOL   H25344607   6.205   3.216   6.377 -0.1417  0.1647 -0.2087
   68MOL   H25444608   6.362   3.131   6.372  1.5047 -3.3639  1.2234
   68MOL   H25544609   6.167   3.076   6.582  0.0586 -1.3691  1.1367
   68MOL   H25644610   6.336   3.030   6.584  1.8886  2.3931  3.4335
   68MOL   H25744611   6.290   3.213   6.739  0.9133 -0.1832  0.4525
   68MOL   H25844612   6.412   3.249   6.609 -0.4495  0.6875 -1.9819
   68MOL   H25944613   6.261   3.398   6.493 -2.6860  0.4615 -0.6533
   68MOL   H26044614   6.127   3.345   6.595  0.5264 -1.4688 -1.7934
   68MOL   H26144615   6.378   3.468   6.685 -0.0042  0.2673  1.2674
   68MOL   H26244616   6.238   3.447   6.791 -0.2995  0.8263  0.6267
   68MOL   H26344617   6.266   3.634   6.555  3.0451  1.4051  2.2183
   68MOL   H26444618   6.246   3.690   6.713 -0.1789  1.3256 -1.8077
   68MOL   H26544619   6.106   3.602   6.635 -0.1020  1.2980 -2.2404
   68MOL   C26644620   5.936   2.848   5.926  0.1351 -0.4592 -0.4014
   68MOL   C26744621   5.802   2.881   6.002  0.9089 -0.6200  0.0971
   68MOL   C26844622   5.710   2.765   5.980  0.0942 -0.3972  0.0967
   68MOL   C26944623   5.737   2.646   6.077 -0.1024  0.2279 -0.2695
   68MOL   C27044624   5.621   2.569   6.132 -0.8766  0.5113 -0.8255
   68MOL   C27144625   5.540   2.645   6.243  0.1589  0.6903 -0.1493
   68MOL   C27244626   5.421   2.568   6.291 -0.1153  0.7504 -0.0188
   68MOL   C27344627   5.355   2.631   6.410  0.1419  0.2875  0.2472
   68MOL   C27444628   5.241   2.558   6.470 -0.1063  0.1938 -0.8321
   68MOL   C27544629   5.261   2.411   6.522  0.5201  0.2814 -0.2463
   68MOL   C27644630   5.123   2.343   6.554 -0.2986 -0.6815 -0.4893
   68MOL   H27744631   5.967   2.744   5.936 -0.9444 -0.7190  0.3041
   68MOL   H27844632   5.925   2.844   5.818  2.2697 -4.4392 -0.5767
   68MOL   H27944633   5.817   2.904   6.107  1.0137  0.1770 -0.0900
   68MOL   H28044634   5.606   2.789   5.999 -0.1828 -2.9997  2.2130
   68MOL   H28144635   5.720   2.714   5.884  0.3054 -1.8338  0.8675
   68MOL   H28244636   5.792   2.679   6.165  0.2619  0.2167 -0.4926
   68MOL   H28344637   5.800   2.572   6.027  1.0430  1.3734 -0.5420
   68MOL   H28444638   5.653   2.466   6.147  0.6524  0.7195 -2.6025
   68MOL   H28544639   5.548   2.545   6.054 -2.8009 -1.3609  1.4791
   68MOL   H28644640   5.497   2.741   6.214 -0.8374  1.1164  2.6001
   68MOL   H28744641   5.606   2.680   6.322 -0.7179  0.0113  0.8925
   68MOL   H28844642   5.349   2.547   6.212 -0.2373 -0.6382  0.4308
   68MOL   H28944643   5.463   2.472   6.323 -0.8830  0.5684  0.4596
   68MOL   H29044644   5.308   2.723   6.376  0.8870  0.4948 -0.2185
   68MOL   H29144645   5.429   2.658   6.486 -0.0697  1.3013  0.1025
   68MOL   H29244646   5.202   2.622   6.549  2.1145  1.5735 -0.8282
   68MOL   H29344647   5.159   2.553   6.398  1.4491 -1.2072 -2.5561
   68MOL   H29444648   5.320   2.403   6.613  0.4854 -4.4266 -0.5098
   68MOL   H29544649   5.313   2.346   6.451  2.7564  0.2205  1.3917
   68MOL   H29644650   5.080   2.401   6.636  2.4383  0.3948  0.2642
   68MOL   H29744651   5.143   2.246   6.600 -0.1728  0.9502  3.0966
   68MOL   H29844652   5.054   2.339   6.470  0.3357  1.5830 -1.1621
   68MOL   C29944653   5.750   3.018   5.950  0.1198  0.1550 -0.4679
   68MOL   C30044654   5.616   3.069   6.001  0.0152 -0.7124 -0.1685
   68MOL   C30144655   5.599   3.224   5.974 -0.1494 -0.1241  0.1054
   68MOL   C30244656   5.581   3.272   5.824  0.2400 -0.2889 -0.2141
   68MOL   C30344657   5.524   3.412   5.788  0.2078 -0.6525 -0.3218
   68MOL   C30444658   5.592   3.533   5.854  0.2284 -0.0804 -0.0321
   68MOL   C30544659   5.747   3.544   5.835 -0.1056  0.2666  0.3714
   68MOL   C30644660   5.801   3.690   5.860  0.2670 -0.1537  0.2225
   68MOL   C30744661   5.948   3.705   5.863  0.3469 -0.4060 -0.2685
   68MOL   C30844662   5.996   3.841   5.916  0.1901  0.5357 -0.1146
   68MOL   C30944663   5.953   3.869   6.060 -0.4134 -0.3254  0.4596
   68MOL   H31044664   5.734   3.010   5.842 -0.7400 -0.9870 -0.2579
   68MOL   H31144665   5.835   3.086   5.956  1.5556 -1.7905  2.3712
   68MOL   H31244666   5.538   3.035   5.933  1.0547 -2.7598 -0.3671
   68MOL   H31344667   5.515   3.260   6.034 -1.2073  1.2789 -2.1460
   68MOL   H31444668   5.685   3.273   6.018 -2.0639  1.4095  2.2517
   68MOL   H31544669   5.677   3.275   5.773  1.1436 -2.1730  1.3027
   68MOL   H31644670   5.527   3.193   5.773 -0.0684  0.5083 -1.1278
   68MOL   H31744671   5.529   3.436   5.682 -3.8010 -0.4518 -0.5284
   68MOL   H31844672   5.419   3.417   5.817  0.1370 -2.2242 -0.2995
   68MOL   H31944673   5.571   3.534   5.961 -1.2286  2.6901 -0.3130
   68MOL   H32044674   5.551   3.629   5.824  0.6673  0.0601 -0.1850
   68MOL   H32144675   5.800   3.474   5.900 -1.0623 -0.5120  0.3289
   68MOL   H32244676   5.766   3.516   5.731 -2.0240  0.1262  0.0378
   68MOL   H32344677   5.761   3.726   5.954 -1.3211  0.4936 -0.6867
   68MOL   H32444678   5.763   3.767   5.793  0.7448  0.4653  0.6512
   68MOL   H32544679   5.980   3.689   5.760  1.6082  0.1210  0.0287
   68MOL   H32644680   5.998   3.625   5.918 -0.3508 -0.4323  0.3445
   68MOL   H32744681   5.957   3.923   5.855  2.2399  0.4059 -1.6328
   68MOL   H32844682   6.104   3.850   5.915  0.4179 -1.7229  0.9754
   68MOL   H32944683   6.008   3.960   6.085 -0.3414 -0.1339 -0.3919
   68MOL   H33044684   5.846   3.882   6.075 -0.4603  0.3715 -0.4631
   68MOL   H33144685   5.991   3.798   6.133 -1.2550 -0.6774  0.5614
   68MOL   C33244686   5.577   3.043   6.152 -0.1735  0.0697  0.3373
   68MOL   C33344687   5.420   3.049   6.184  0.4781  0.0655 -0.0391
   68MOL   C33444688   5.399   3.030   6.338  0.1106  0.0476 -0.2438
   68MOL   C33544689   5.404   3.154   6.427 -0.2605 -0.0734 -0.3766
   68MOL   C33644690   5.432   3.137   6.580  0.1536 -0.5894 -0.4554
   68MOL   C33744691   5.299   3.101   6.645 -0.2990 -0.3189  0.1913
   68MOL   C33844692   5.304   3.103   6.798 -0.5760 -0.6614  0.6385
   68MOL   C33944693   5.177   3.070   6.881 -0.0046 -0.0326  0.1371
   68MOL   C34044694   5.214   3.047   7.032 -0.6240 -1.1575  0.6486
   68MOL   C34144695   5.091   2.994   7.117  0.2938 -0.1030 -0.0936
   68MOL   C34244696   5.122   2.975   7.267 -0.4418 -0.1918  0.2031
   68MOL   H34344697   5.605   2.941   6.176 -1.7125 -0.9492 -1.9174
   68MOL   H34444698   5.632   3.112   6.215  0.2538 -0.7326  0.8359
   68MOL   H34544699   5.386   3.149   6.159  1.2711  0.5650  0.8449
   68MOL   H34644700   5.468   2.957   6.379  0.5865  0.3559 -0.4885
   68MOL   H34744701   5.304   2.979   6.352 -0.6143  1.2580 -0.5941
   68MOL   H34844702   5.494   3.207   6.395 -0.0057  1.4642  2.6456
   68MOL   H34944703   5.324   3.222   6.400 -1.1376 -0.9608 -0.0296
   68MOL   H35044704   5.495   3.052   6.607  0.7459 -0.0680 -0.1860
   68MOL   H35144705   5.479   3.227   6.620  1.3888 -0.8309 -1.3385
   68MOL   H35244706   5.254   3.011   6.604  0.7558 -0.5457 -0.4980
   68MOL   H35344707   5.225   3.172   6.608  1.1150 -0.8739 -4.0278
   68MOL   H35444708   5.334   3.205   6.821 -0.2185 -0.4020 -0.9175
   68MOL   H35544709   5.377   3.026   6.824 -0.4753 -1.2231 -1.1875
   68MOL   H35644710   5.102   3.147   6.869  1.2173  1.0601 -0.6517
   68MOL   H35744711   5.151   2.977   6.829 -0.7906  0.5480 -0.5132
   68MOL   H35844712   5.231   3.148   7.067  0.2665 -1.3016  0.6597
   68MOL   H35944713   5.305   2.990   7.055 -0.0629  0.1129  1.6879
   68MOL   H36044714   5.065   2.892   7.089  2.3554 -0.3695 -1.1421
   68MOL   H36144715   4.997   3.046   7.101  0.0041  0.7466  3.7865
   68MOL   H36244716   5.218   2.923   7.269  0.3617  1.2928  2.0104
   68MOL   H36344717   5.145   3.068   7.319 -0.2126 -0.0616 -0.1223
   68MOL   H36444718   5.053   2.910   7.320  0.2831 -1.7540 -0.7224
   68MOL   C36544719   5.334   2.957   6.102 -0.3991  0.0747 -0.4959
   68MOL   C36644720   5.182   2.992   6.089  0.2870  0.1361  0.3676
   68MOL   C36744721   5.151   3.058   5.950 -0.7882  0.6332  0.5673
   68MOL   C36844722   5.230   3.181   5.905 -0.0184 -0.3830  0.0846
   68MOL   C36944723   5.206   3.233   5.763  0.6974 -0.4074  0.3070
   68MOL   C37044724   5.054   3.234   5.729 -0.7643  0.2761  0.0782
   68MOL   C37144725   5.011   3.300   5.597 -0.4111  0.2430  0.2301
   68MOL   C37244726   5.029   3.459   5.599 -0.2121  0.5739  0.5887
   68MOL   C37344727   4.995   3.537   5.460  0.1715 -0.0752 -0.3022
   68MOL   C37444728   4.979   3.687   5.466  0.5713 -1.1181 -0.2553
   68MOL   C37544729   4.958   3.756   5.328 -0.1535  0.8835  0.1060
   68MOL   H37644730   5.374   2.940   6.002 -0.7872 -2.6986 -0.2461
   68MOL   H37744731   5.347   2.855   6.140 -0.4707 -0.9659 -3.1401
   68MOL   H37844732   5.166   3.071   6.162  2.3001  1.3288 -0.4173
   68MOL   H37944733   5.046   3.086   5.944 -1.5413 -2.2086 -0.5179
   68MOL   H38044734   5.147   2.984   5.870  0.6399  0.7927  0.3311
   68MOL   H38144735   5.333   3.153   5.921  0.2431 -0.1432 -1.0981
   68MOL   H38244736   5.203   3.265   5.969 -1.3467  0.3103 -1.3221
   68MOL   H38344737   5.261   3.172   5.691 -0.0061  1.6411 -2.0657
   68MOL   H38444738   5.237   3.337   5.750 -0.1914 -0.2868 -0.9811
   68MOL   H38544739   5.002   3.288   5.808 -0.9044 -1.6108  1.3064
   68MOL   H38644740   5.018   3.131   5.730  0.5336 -0.2167 -1.9022
   68MOL   H38744741   5.064   3.265   5.508  0.2432 -0.1382  0.7681
   68MOL   H38844742   4.907   3.277   5.575 -0.5982 -1.0799  2.4225
   68MOL   H38944743   5.133   3.473   5.628  0.2860 -0.3782 -0.6766
   68MOL   H39044744   4.968   3.504   5.678 -3.6053 -0.5392 -1.2920
   68MOL   H39144745   5.072   3.510   5.387  1.2539  2.9414 -0.3373
   68MOL   H39244746   4.907   3.492   5.414 -0.3044  0.8307 -0.2839
   68MOL   H39344747   4.901   3.724   5.533  0.1282  0.5800 -1.6744
   68MOL   H39444748   5.078   3.722   5.492  0.6877 -2.2302  0.8550
   68MOL   H39544749   4.968   3.864   5.339 -1.2203  1.0836 -0.8032
   68MOL   H39644750   4.865   3.720   5.285  0.8023 -1.6769  0.0930
   68MOL   H39744751   5.041   3.722   5.266 -0.5725  1.4570 -0.7843
   68MOL   C39844752   5.102   2.858   6.115  1.0184  0.5419 -0.0514
   68MOL   C39944753   4.949   2.868   6.099  0.1836  0.6616  0.1681
   68MOL   C40044754   4.902   2.989   6.183  0.3834 -0.8397 -0.2134
   68MOL   C40144755   4.930   2.985   6.337  0.1526  0.5005  0.0900
   68MOL   C40244756   4.840   3.084   6.417 -0.3851 -0.0204 -0.8853
   68MOL   C40344757   4.874   3.232   6.399 -0.8769  0.1404 -0.1509
   68MOL   C40444758   5.006   3.276   6.465 -0.5119  0.5188  0.2628
   68MOL   C40544759   5.062   3.415   6.426 -0.0166  0.5038 -0.0067
   68MOL   C40644760   5.167   3.464   6.530 -0.3545  0.5844 -0.9470
   68MOL   C40744761   5.229   3.600   6.500  0.3225  0.0741 -0.3250
   68MOL   C40844762   5.330   3.593   6.381  0.2850 -1.0413 -0.4133
   68MOL   H40944763   5.143   2.823   6.210 -0.6076 -2.0765 -0.2669
   68MOL   H41044764   5.158   2.789   6.052 -0.1512  1.6854 -2.3907
   68MOL   H41144765   4.919   2.888   5.996  0.7363 -1.6843 -0.4751
   68MOL   H41244766   4.796   3.013   6.176  0.4496 -0.5569 -0.2651
   68MOL   H41344767   4.943   3.087   6.160 -1.8910  0.4237  0.9311
   68MOL   H41444768   4.922   2.883   6.375  0.9449  0.5344  0.3565
   68MOL   H41544769   5.035   3.011   6.348 -0.4904  2.2576  2.4988
   68MOL   H41644770   4.735   3.060   6.401  0.1500 -2.7410 -0.4513
   68MOL   H41744771   4.841   3.054   6.522 -0.9076 -0.1637 -0.9201
   68MOL   H41844772   4.804   3.304   6.440  0.2650  1.1157  0.1087
   68MOL   H41944773   4.879   3.258   6.293  0.8185  0.1092 -0.0905
   68MOL   H42044774   5.000   3.268   6.573 -2.2979  0.8701  0.2021
   68MOL   H42144775   5.071   3.193   6.437 -0.4355  0.4322  0.6978
   68MOL   H42244776   4.972   3.476   6.432 -1.7920 -2.0756  0.6815
   68MOL   H42344777   5.105   3.414   6.326  0.3966  0.2470  0.1715
   68MOL   H42444778   5.117   3.470   6.627 -1.9984  0.6909 -1.7963
   68MOL   H42544779   5.240   3.383   6.527 -0.7169  0.2778 -1.4921
   68MOL   H42644780   5.278   3.643   6.588 -0.9444  0.1009  0.3844
   68MOL   H42744781   5.154   3.676   6.481  1.1118  0.6063 -1.3487
   68MOL   H42844782   5.276   3.568   6.289  0.5740  0.8750 -1.1368
   68MOL   H42944783   5.416   3.531   6.406  0.1871 -0.6265  0.9673
   68MOL   H43044784   5.371   3.690   6.354  1.1598 -1.3115 -0.0743
   68MOL   C43144785   4.885   2.731   6.131  0.6264  0.3256  0.0372
   68MOL   C43244786   4.728   2.736   6.122 -0.0693 -0.7292  0.0803
   68MOL   C43344787   4.655   2.621   6.189  0.2212 -0.1100  0.0753
   68MOL   C43444788   4.696   2.587   6.329 -0.5716  0.3801 -0.2335
   68MOL   C43544789   4.609   2.486   6.409  0.4504  0.5772 -0.0018
   68MOL   C43644790   4.656   2.485   6.557 -0.1142 -0.2447 -0.7521
   68MOL   C43744791   4.591   2.379   6.644 -0.1361 -1.1863  0.2934
   68MOL   C43844792   4.618   2.236   6.616  0.1365 -0.0441 -0.7915
   68MOL   C43944793   4.532   2.149   6.711  0.6276  0.2504 -0.5149
   68MOL   C44044794   4.535   2.001   6.677  0.2731  0.7169  0.2861
   68MOL   C44144795   4.481   1.920   6.788  0.1655 -0.5804 -0.3192
   68MOL   H44244796   4.921   2.695   6.227  0.4315 -0.7576 -0.2926
   68MOL   H44344797   4.914   2.653   6.060 -0.1452 -0.6674  0.7945
   68MOL   H44444798   4.673   2.820   6.164 -2.3536 -2.5131  0.8110
   68MOL   H44544799   4.548   2.644   6.190  0.5295  1.3053  2.5522
   68MOL   H44644800   4.653   2.531   6.126 -3.3170  0.5089 -0.8062
   68MOL   H44744801   4.698   2.684   6.377  0.7272  1.0345 -1.5913
   68MOL   H44844802   4.794   2.540   6.320 -1.5619 -1.8239  0.0262
   68MOL   H44944803   4.614   2.379   6.388  0.2754 -0.1023  3.1844
   68MOL   H45044804   4.507   2.526   6.407  1.4398  3.1476 -0.4383
   68MOL   H45144805   4.637   2.585   6.597 -0.7412 -1.1061  1.1829
   68MOL   H45244806   4.763   2.467   6.559  0.2352  1.8944  0.8024
   68MOL   H45344807   4.483   2.393   6.641  0.1124  1.1654  1.4518
   68MOL   H45444808   4.620   2.410   6.744 -0.1793 -1.3763  0.3642
   68MOL   H45544809   4.584   2.211   6.516  2.2672 -0.2376 -1.4751
   68MOL   H45644810   4.722   2.208   6.630 -0.0499  0.1620  1.2436
   68MOL   H45744811   4.429   2.183   6.714  1.1277  1.6694  0.9507
   68MOL   H45844812   4.561   2.158   6.815 -3.0050  0.4203  0.5407
   68MOL   H45944813   4.629   1.963   6.637 -0.3343 -0.2056 -0.2831
   68MOL   H46044814   4.472   1.975   6.592  1.7982 -1.6406 -0.1532
   68MOL   H46144815   4.373   1.924   6.806  0.3853 -0.1226  0.9586
   68MOL   H46244816   4.505   1.815   6.773  1.2139 -0.6385  1.6237
   68MOL   H46344817   4.524   1.955   6.882 -1.8823  3.4199 -0.7162
   68MOL   C46444818   4.685   2.733   5.967 -0.1980  0.3620  0.5160
   68MOL   C46544819   4.592   2.861   5.928  0.3731 -0.2476 -0.7179
   68MOL   C46644820   4.608   2.900   5.777 -0.1295 -0.7893  0.2962
   68MOL   C46744821   4.546   2.794   5.678 -0.0739 -0.2677  0.0326
   68MOL   C46844822   4.530   2.866   5.547  0.2404 -0.0508 -0.0554
   68MOL   C46944823   4.509   2.776   5.421 -0.8441  0.0636  0.7225
   68MOL   C47044824   4.532   2.860   5.284 -0.1405  0.3462 -0.4219
   68MOL   C47144825   4.507   2.769   5.163 -0.2068  0.3185  0.0314
   68MOL   C47244826   4.638   2.694   5.123  1.4613 -0.6772  0.5364
   68MOL   C47344827   4.738   2.790   5.052  0.0066 -0.2616  0.3651
   68MOL   C47444828   4.848   2.716   4.979  0.1741 -0.4598  0.2346
   68MOL   H47544829   4.631   2.647   5.928  0.7770 -0.3412  0.6863
   68MOL   H47644830   4.773   2.744   5.903  0.4574  0.1717  1.3674
   68MOL   H47744831   4.628   2.941   5.992 -0.5193 -1.1792  0.9977
   68MOL   H47844832   4.712   2.914   5.750 -0.1504 -0.2209  0.5014
   68MOL   H47944833   4.566   2.999   5.761 -1.3698 -1.4181 -0.4311
   68MOL   H48044834   4.610   2.706   5.680 -1.5908 -1.4140 -0.6212
   68MOL   H48144835   4.443   2.773   5.710 -0.7896  0.1518 -1.9329
   68MOL   H48244836   4.612   2.936   5.530 -0.5397  0.1831 -3.0927
   68MOL   H48344837   4.447   2.936   5.552  0.7046  0.4085  1.9444
   68MOL   H48444838   4.571   2.689   5.437 -3.0032 -1.6748 -0.1041
   68MOL   H48544839   4.408   2.735   5.432 -0.8937 -0.0099  0.0000
   68MOL   H48644840   4.482   2.957   5.282 -0.2574  0.2962  0.0063
   68MOL   H48744841   4.635   2.893   5.274  0.3564 -1.3460 -1.0874
   68MOL   H48844842   4.423   2.701   5.171  0.4951 -0.2451  3.6435
   68MOL   H48944843   4.481   2.845   5.090 -1.7112  0.0648  0.2943
   68MOL   H49044844   4.675   2.624   5.197  0.6868 -2.0031 -0.3181
   68MOL   H49144845   4.604   2.632   5.040  0.0878  2.9084 -1.7179
   68MOL   H49244846   4.684   2.853   4.981  0.9146  1.9814  1.6136
   68MOL   H49344847   4.796   2.852   5.120 -2.1777  1.3130  0.8593
   68MOL   H49444848   4.820   2.670   4.883 -2.7475  0.3479  0.6415
   68MOL   H49544849   4.894   2.644   5.046  0.9744 -0.4899 -0.3397
   68MOL   H49644850   4.934   2.780   4.958  1.0844 -1.8970 -0.5296
   68MOL   C49744851   4.444   2.833   5.968  0.0236  0.2675  0.0724
   68MOL   C49844852   4.339   2.938   5.928 -0.2332 -0.1136  0.1962
   68MOL   C49944853   4.364   3.077   5.998 -0.0066  0.1888  0.5771
   68MOL   C50044854   4.369   3.076   6.150  0.0994 -0.2925 -0.6865
   68MOL   C50144855   4.385   3.217   6.212  0.1528 -0.2947  0.3460
   68MOL   C50244856   4.308   3.330   6.146  0.6628 -0.0549 -0.1156
   68MOL   C50344857   4.164   3.354   6.185 -0.1795 -0.1353 -0.0110
   68MOL   C50444858   4.106   3.474   6.105  1.1923  0.0234 -0.1575
   68MOL   C50544859   3.959   3.501   6.145  0.8763 -0.0724 -0.0469
   68MOL   C50644860   3.901   3.635   6.107 -0.4818 -0.2697  0.0840
   68MOL   C50744861   3.755   3.638   6.159  0.0759 -0.1598  0.6297
   68MOL   H50844862   4.416   2.731   5.944 -0.6526  0.5433 -0.2887
   68MOL   H50944863   4.454   2.829   6.077 -0.8233  0.1360  0.1417
   68MOL   H51044864   4.351   2.954   5.821 -1.8614 -0.9090 -0.1252
   68MOL   H51144865   4.280   3.143   5.977  2.0714  3.0621  0.9355
   68MOL   H51244866   4.460   3.118   5.967 -0.2641  0.0131 -0.4593
   68MOL   H51344867   4.460   3.028   6.187  0.3352  2.6617  2.9317
   68MOL   H51444868   4.278   3.031   6.189  0.6885 -0.0727  0.9659
   68MOL   H51544869   4.359   3.222   6.318  0.3550 -1.7322  0.4838
   68MOL   H51644870   4.489   3.251   6.205 -0.8861  3.2844  1.4205
   68MOL   H51744871   4.359   3.423   6.171  3.8006 -1.4503 -1.0897
   68MOL   H51844872   4.318   3.335   6.037  1.9220 -0.1593 -0.0113
   68MOL   H51944873   4.112   3.261   6.159 -1.7519  0.6819  0.1533
   68MOL   H52044874   4.167   3.374   6.292  0.3121 -1.5037  0.2437
   68MOL   H52144875   4.092   3.461   5.998 -1.7759  3.3619 -0.2622
   68MOL   H52244876   4.171   3.560   6.122 -0.6912  1.2637  0.9856
   68MOL   H52344877   3.950   3.494   6.253 -1.0273  0.9264 -0.1195
   68MOL   H52444878   3.902   3.424   6.092  0.2118 -0.1763  0.8062
   68MOL   H52544879   3.911   3.656   6.000  2.7883 -1.2525  0.1504
   68MOL   H52644880   3.956   3.718   6.152 -2.3195 -0.1679  2.2617
   68MOL   H52744881   3.686   3.564   6.120 -0.2718  0.5055 -0.0368
   68MOL   H52844882   3.708   3.735   6.142 -0.5973 -0.6525 -0.3279
   68MOL   H52944883   3.739   3.616   6.265 -0.7505 -0.8683  0.3565
   68MOL   C53044884   4.190   2.888   5.948 -0.2913 -0.4816  0.3501
   68MOL   C53144885   4.156   2.774   5.845  0.2394  0.2321 -0.0754
   68MOL   C53244886   4.118   2.838   5.708 -0.1939 -0.1927 -0.6903
   68MOL   C53344887   4.128   2.734   5.594 -0.3213  0.0439 -0.5508
   68MOL   C53444888   4.059   2.787   5.471 -0.9427 -0.8922  0.2538
   68MOL   C53544889   4.140   2.902   5.401 -0.2226 -0.0916  0.0338
   68MOL   C53644890   4.119   2.924   5.252 -0.4282  0.2409 -0.0731
   68MOL   C53744891   3.983   2.979   5.224  0.1138  0.1537  0.8780
   68MOL   C53844892   3.963   3.009   5.077 -0.3797  0.0473 -0.4932
   68MOL   C53944893   3.811   3.013   5.040  0.7386 -0.1000  0.7224
   68MOL   C54044894   3.734   2.882   5.046  0.6727  0.0461  0.4847
   68MOL   H54144895   4.178   2.848   6.048  1.2594  2.1453  1.6113
   68MOL   H54244896   4.118   2.969   5.935 -0.8408 -0.9513  0.4012
   68MOL   H54344897   4.245   2.716   5.823  0.1085  0.4766 -1.3067
   68MOL   H54444898   4.182   2.922   5.679  2.0908 -1.3325  0.8623
   68MOL   H54544899   4.021   2.886   5.698  0.4976  1.2876 -0.4152
   68MOL   H54644900   4.083   2.643   5.634  0.7534 -0.0370  0.4823
   68MOL   H54744901   4.232   2.712   5.571 -0.3276 -1.5287  0.8500
   68MOL   H54844902   3.955   2.814   5.486 -1.2707  0.6018 -3.9970
   68MOL   H54944903   4.055   2.708   5.396 -0.2563 -0.5995 -0.1006
   68MOL   H55044904   4.247   2.896   5.420 -0.3121 -0.9022  0.3098
   68MOL   H55144905   4.125   2.999   5.448 -0.5156 -1.6529  3.3316
   68MOL   H55244906   4.129   2.829   5.201  1.5796 -0.7039  1.9752
   68MOL   H55344907   4.192   2.991   5.205 -2.2236  2.0321 -0.3968
   68MOL   H55444908   3.963   3.066   5.287  1.5486  0.8425  0.4098
   68MOL   H55544909   3.918   2.900   5.262 -1.1499  0.0382 -1.4231
   68MOL   H55644910   4.019   2.946   5.008 -0.0698  0.5080 -0.6677
   68MOL   H55744911   4.013   3.103   5.057  0.0908 -0.8011 -3.4738
   68MOL   H55844912   3.816   3.051   4.938  0.7037 -2.5523 -0.2038
   68MOL   H55944913   3.767   3.090   5.104  3.4462  0.6965  1.7430
   68MOL   H56044914   3.746   2.820   4.957  0.3267  1.8378 -0.8539
   68MOL   H56144915   3.747   2.813   5.129 -4.3433 -1.5762  0.1020
   68MOL   H56244916   3.628   2.905   5.042  0.7884  0.6177  0.7227
   68MOL   C56344917   4.037   2.694   5.906  0.3202 -0.4110  0.5272
   68MOL   C56444918   4.048   2.545   5.951  0.0225  0.1095  0.6028
   68MOL   C56544919   3.914   2.480   5.987  0.4828  0.1457  0.1380
   68MOL   C56644920   3.831   2.442   5.863 -0.3916 -0.3685  0.3267
   68MOL   C56744921   3.707   2.368   5.899 -0.0985  0.2848  0.2638
   68MOL   C56844922   3.615   2.325   5.776  0.0658 -1.1891 -1.0740
   68MOL   C56944923   3.496   2.236   5.821  0.1205 -0.1438 -0.6958
   68MOL   C57044924   3.411   2.197   5.699 -0.3866 -0.7531 -0.2067
   68MOL   C57144925   3.291   2.110   5.744  0.5058  0.4298 -0.0036
   68MOL   C57244926   3.200   2.052   5.636  0.1460  0.0741 -0.2048
   68MOL   C57344927   3.260   1.925   5.573 -0.2899 -0.0536 -0.2716
   68MOL   H57444928   3.962   2.696   5.826  0.4903  0.1943  0.3752
   68MOL   H57544929   3.990   2.749   5.987 -1.9577  0.9640 -1.6399
   68MOL   H57644930   4.096   2.489   5.870 -1.5733 -0.9678  0.3883
   68MOL   H57744931   3.859   2.551   6.048 -0.3164 -0.5558  0.2336
   68MOL   H57844932   3.931   2.390   6.046 -0.5959  0.1505  0.4504
   68MOL   H57944933   3.885   2.378   5.792 -1.4393 -0.1035 -0.7222
   68MOL   H58044934   3.808   2.520   5.791 -0.2728 -0.5412  0.0969
   68MOL   H58144935   3.653   2.429   5.971 -2.1195 -1.4831  0.3003
   68MOL   H58244936   3.725   2.274   5.951 -0.0350 -0.2215 -0.6701
   68MOL   H58344937   3.587   2.420   5.731 -0.8575 -0.8510  0.1893
   68MOL   H58444938   3.672   2.272   5.700  0.8736 -1.9801  0.0621
   68MOL   H58544939   3.524   2.149   5.881 -3.1067 -0.3639  0.6170
   68MOL   H58644940   3.428   2.288   5.888 -0.3227  0.2569 -1.4594
   68MOL   H58744941   3.477   2.142   5.634 -0.5233 -0.0014 -0.9940
   68MOL   H58844942   3.379   2.282   5.638 -0.6258 -0.7014 -0.0124
   68MOL   H58944943   3.234   2.180   5.805  0.3693 -0.1144  0.4957
   68MOL   H59044944   3.323   2.027   5.807 -1.6443  1.1082  2.0836
   68MOL   H59144945   3.194   2.131   5.560  1.7425  1.2989  0.9070
   68MOL   H59244946   3.104   2.030   5.680  0.5213 -0.2636  0.4512
   68MOL   H59344947   3.200   1.897   5.487 -1.1864 -1.0282  0.6403
   68MOL   H59444948   3.367   1.934   5.552 -0.1737  0.5152  0.5421
   68MOL   H59544949   3.259   1.844   5.647  1.7214 -0.2685 -0.4513
   68MOL   C59644950   4.146   2.544   6.074  0.0131  0.0680 -0.2899
   68MOL   C59744951   4.228   2.417   6.092  0.2817  0.3051  0.2724
   68MOL   C59844952   4.271   2.412   6.239 -0.0607  0.1545 -0.3471
   68MOL   C59944953   4.176   2.332   6.329  0.1239  0.4094  0.5818
   68MOL   C60044954   4.221   2.341   6.481 -0.0612 -0.0950  0.5373
   68MOL   C60144955   4.139   2.263   6.585 -0.1640 -0.1999  0.0490
   68MOL   C60244956   4.153   2.314   6.724  0.4519 -0.0382  0.1448
   68MOL   C60344957   4.077   2.239   6.837  0.1390 -0.4502  0.2845
   68MOL   C60444958   4.072   2.090   6.808  0.3124  0.0621  0.6123
   68MOL   C60544959   4.018   2.007   6.929 -0.0397 -0.1880 -0.0607
   68MOL   C60644960   3.880   2.064   6.971 -0.0134 -0.6224 -0.6142
   68MOL   H60744961   4.221   2.624   6.072 -1.7756  1.7480 -2.0058
   68MOL   H60844962   4.087   2.567   6.163  2.7968  2.5543  1.0261
   68MOL   H60944963   4.164   2.332   6.069  3.3466 -2.1117  0.3571
   68MOL   H61044964   4.299   2.514   6.266  0.2987  0.1629 -0.7378
   68MOL   H61144965   4.368   2.362   6.247 -0.4741 -0.4164  1.2042
   68MOL   H61244966   4.179   2.226   6.303 -1.1796  0.4746  0.1237
   68MOL   H61344967   4.072   2.363   6.320  0.8557  2.7225 -0.4428
   68MOL   H61444968   4.196   2.445   6.500 -0.7373 -0.0752 -0.4261
   68MOL   H61544969   4.327   2.332   6.506 -0.3907 -0.6154  1.7913
   68MOL   H61644970   4.036   2.246   6.556 -0.8462  2.3923  0.8501
   68MOL   H61744971   4.192   2.168   6.590 -0.0668 -0.1166  0.5971
   68MOL   H61844972   4.132   2.420   6.727 -0.9460 -0.3016  0.1688
   68MOL   H61944973   4.259   2.319   6.749  0.8909 -1.0143 -1.4306
   68MOL   H62044974   3.980   2.284   6.857  0.8589  1.2634 -0.0063
   68MOL   H62144975   4.129   2.255   6.932  1.5255 -3.1848  0.0456
   68MOL   H62244976   3.998   2.072   6.729  1.4544 -1.9864 -0.0487
   68MOL   H62344977   4.171   2.061   6.774  1.0691  1.4992  1.5675
   68MOL   H62444978   4.084   2.023   7.014  0.4349 -1.0575 -0.2625
   68MOL   H62544979   4.010   1.901   6.909 -2.6073  0.2008 -1.2599
   68MOL   H62644980   3.831   2.110   6.885 -1.0141 -1.4117 -0.4804
   68MOL   H62744981   3.822   1.999   7.037  1.1087 -0.3124  0.6886
   68MOL   H62844982   3.898   2.153   7.031  1.4283 -1.2178 -0.1449
   68MOL   C62944983   4.351   2.412   5.998  0.2950  0.9696 -0.1154
   68MOL   C63044984   4.399   2.271   5.957 -0.5086 -0.0153  0.2237
   68MOL   C63144985   4.531   2.275   5.881  0.0755  0.2922 -0.3321
   68MOL   C63244986   4.528   2.334   5.732  0.0324  0.3506 -1.3261
   68MOL   C63344987   4.668   2.336   5.665 -0.0145 -0.1371 -0.4424
   68MOL   C63444988   4.645   2.407   5.533 -0.2099  0.0096  0.2853
   68MOL   C63544989   4.771   2.403   5.440 -0.5953 -0.2514  0.7143
   68MOL   C63644990   4.801   2.262   5.381  0.4335 -0.8803 -0.1749
   68MOL   C63744991   4.950   2.256   5.331 -0.0516  0.3820  0.3212
   68MOL   C63844992   5.058   2.304   5.424 -0.0632 -0.6561  0.6991
   68MOL   C63944993   5.186   2.230   5.397  0.4203  0.4446  0.3917
   68MOL   H64044994   4.339   2.475   5.910  1.2668  0.0627 -0.9032
   68MOL   H64144995   4.436   2.461   6.046  2.0433 -1.6311 -0.4503
   68MOL   H64244996   4.413   2.212   6.047  0.6026 -1.2357 -0.7283
   68MOL   H64344997   4.615   2.319   5.935 -0.2563 -0.6346  0.9722
   68MOL   H64444998   4.562   2.171   5.868  0.6829  0.0561  2.5747
   68MOL   H64544999   4.492   2.437   5.730 -1.9263 -0.2605  0.7891
   68MOL   H64645000   4.452   2.274   5.682 -0.8702 -1.3861  1.9444
   68MOL   H64745001   4.684   2.232   5.639 -0.5624  0.3647 -2.9171
   68MOL   H64845002   4.757   2.371   5.717  0.4680 -0.9774 -0.6933
   68MOL   H64945003   4.612   2.510   5.548 -3.2364 -1.2789  3.1785
   68MOL   H65045004   4.566   2.354   5.480 -0.6399  1.7678 -0.8512
   68MOL   H65145005   4.850   2.446   5.502 -1.4168 -0.8175  2.1808
   68MOL   H65245006   4.740   2.465   5.356  1.2814 -0.5150 -0.1866
   68MOL   H65345007   4.728   2.243   5.303  0.8943  0.8420 -1.0519
   68MOL   H65445008   4.801   2.182   5.456 -0.9201 -0.0660  0.7205
   68MOL   H65545009   4.967   2.316   5.242 -0.8564  1.0637  0.6177
   68MOL   H65645010   4.978   2.153   5.307  0.0986  0.6758 -0.7635
   68MOL   H65745011   5.035   2.282   5.528  0.1541  0.9207  1.0991
   68MOL   H65845012   5.079   2.412   5.424 -0.5127 -0.4964 -2.6967
   68MOL   H65945013   5.214   2.236   5.291  0.7043  0.8381  0.4886
   68MOL   H66045014   5.176   2.126   5.426  2.0065  0.0573 -0.3940
   68MOL   H66145015   5.273   2.260   5.457  0.5720  2.4955 -0.7771
   68MOL   H66245016   4.321   2.232   5.892  0.4690  0.7443 -1.4536
   69MOL     C145017   3.278   4.431   2.083  0.3319  1.0182  0.6119
   69MOL     C245018   3.361   4.346   2.182  0.1960  0.9439 -0.0370
   69MOL     C345019   3.277   4.305   2.308  0.5393  0.2911 -0.4134
   69MOL     C445020   3.356   4.242   2.421  0.0741 -0.1729 -0.5659
   69MOL     C545021   3.261   4.199   2.535  0.6560 -0.0441 -1.0877
   69MOL     C645022   3.329   4.146   2.667 -0.6125 -0.5992 -0.7775
   69MOL     C745023   3.235   4.057   2.746 -0.6853  0.6698  0.5342
   69MOL     C845024   3.115   4.134   2.813  0.2795  0.1075  0.5542
   69MOL     C945025   3.155   4.206   2.939 -0.0364 -0.1716  0.1441
   69MOL    C1045026   3.064   4.316   2.994  0.1841  0.2937  0.3275
   69MOL    C1145027   3.118   4.373   3.129  0.4226 -0.0333 -0.2684
   69MOL    H1245028   3.340   4.481   2.009 -3.1360 -0.3755 -3.4071
   69MOL    H1345029   3.219   4.503   2.140 -1.8121  0.2085 -0.5451
   69MOL    H1445030   3.440   4.411   2.219  1.6334 -1.1138  0.6522
   69MOL    H1545031   3.192   4.241   2.281  1.7056 -0.5544 -2.1969
   69MOL    H1645032   3.221   4.388   2.350  1.5697 -0.0305  1.6412
   69MOL    H1745033   3.433   4.308   2.461 -0.0703 -0.4407  0.1466
   69MOL    H1845034   3.404   4.151   2.385  2.4315  0.9491 -0.3076
   69MOL    H1945035   3.195   4.282   2.555  1.2736 -0.1033  1.3226
   69MOL    H2045036   3.200   4.118   2.493 -2.1976  2.0140 -1.0411
   69MOL    H2145037   3.339   4.237   2.726 -3.0074  0.6411 -2.1963
   69MOL    H2245038   3.422   4.092   2.650  0.2548  0.9371 -1.0707
   69MOL    H2345039   3.183   3.985   2.683  0.4559  2.1889 -2.2333
   69MOL    H2445040   3.285   4.012   2.832  2.3892 -0.5688 -1.8245
   69MOL    H2545041   3.030   4.069   2.834  1.6261 -1.3864  1.5502
   69MOL    H2645042   3.082   4.215   2.748  1.6781 -1.8220 -2.6557
   69MOL    H2745043   3.256   4.243   2.922 -0.3578  0.2555 -0.8611
   69MOL    H2845044   3.160   4.122   3.009 -1.6603 -0.7171 -0.3570
   69MOL    H2945045   2.960   4.288   3.010  0.5115 -0.2979  1.4902
   69MOL    H3045046   3.058   4.391   2.915 -0.3078 -0.0995 -0.0151
   69MOL    H3145047   3.119   4.299   3.209 -2.4035  1.7752  1.5304
   69MOL    H3245048   3.225   4.394   3.121  1.3523 -3.6487  1.7157
   69MOL    H3345049   3.056   4.458   3.159 -2.0036 -1.1109 -2.0761
   69MOL    H3445050   3.197   4.378   2.033  1.4492  1.2265 -1.4793
   69MOL    C3545051   3.422   4.224   2.102  0.1888 -0.3962 -0.1003
   69MOL    C3645052   3.526   4.256   1.992 -1.1841  0.3409  0.3542
   69MOL    C3745053   3.660   4.321   2.048 -0.7231  0.1831  0.3677
   69MOL    C3845054   3.682   4.465   2.009  0.0897 -0.2405  0.7166
   69MOL    C3945055   3.813   4.523   2.060  0.8043  0.1883  0.3567
   69MOL    C4045056   3.941   4.477   2.002 -0.5305  0.2814  0.6911
   69MOL    C4145057   4.054   4.524   2.102 -0.1863  0.4430 -0.4663
   69MOL    C4245058   4.197   4.516   2.045  0.2336  0.3624 -1.1030
   69MOL    C4345059   4.298   4.595   2.136 -0.4145 -0.5980 -0.0921
   69MOL    C4445060   4.435   4.639   2.067  0.4805 -0.2775  0.0599
   69MOL    C4545061   4.512   4.518   2.022  0.4086 -0.3376  0.3358
   69MOL    H4645062   3.343   4.157   2.067  0.1689 -0.9362  0.9432
   69MOL    H4745063   3.480   4.157   2.166  1.3162 -0.8804 -1.6038
   69MOL    H4845064   3.482   4.320   1.916  0.5316 -0.8020 -1.6519
   69MOL    H4945065   3.665   4.319   2.157 -1.7087  1.3659  0.4469
   69MOL    H5045066   3.748   4.266   2.015 -0.5526 -0.3044  1.5921
   69MOL    H5145067   3.606   4.532   2.049 -0.5024 -1.5860  1.8475
   69MOL    H5245068   3.652   4.480   1.905  0.0426 -1.9177  0.4842
   69MOL    H5345069   3.818   4.503   2.167  0.6136 -0.8204  0.1865
   69MOL    H5445070   3.807   4.632   2.066 -2.1394  0.0761  0.4776
   69MOL    H5545071   3.950   4.529   1.906  1.6532 -1.9180 -0.3668
   69MOL    H5645072   3.939   4.369   1.989 -0.9734  0.2934  0.6557
   69MOL    H5745073   4.034   4.623   2.143 -1.9116 -0.1937  0.3000
   69MOL    H5845074   4.057   4.474   2.199 -0.1389 -0.1699 -0.7792
   69MOL    H5945075   4.194   4.546   1.940 -1.1519 -2.0932 -1.8215
   69MOL    H6045076   4.237   4.415   2.033 -0.3156 -0.1843  1.3358
   69MOL    H6145077   4.317   4.533   2.223 -0.7216 -2.3571 -1.2653
   69MOL    H6245078   4.250   4.689   2.164  2.4738  1.2201 -1.0570
   69MOL    H6345079   4.412   4.705   1.984  1.4594  1.3033  1.0227
   69MOL    H6445080   4.488   4.690   2.147  1.3595  0.3765 -0.9401
   69MOL    H6545081   4.472   4.476   1.930  3.0135 -2.0275 -0.0727
   69MOL    H6645082   4.612   4.544   1.989 -0.0490  2.1422  0.7953
   69MOL    H6745083   4.516   4.447   2.105  1.1797 -0.6037  0.0786
   69MOL    C6845084   3.550   4.115   1.917 -0.0188  0.6371 -0.3378
   69MOL    C6945085   3.451   4.082   1.802  0.0152 -0.2490 -0.2621
   69MOL    C7045086   3.448   4.181   1.691 -0.0615  0.4912  0.2210
   69MOL    C7145087   3.573   4.200   1.602 -0.6785 -0.1722  0.0500
   69MOL    C7245088   3.680   4.300   1.652  0.3617  0.4487  0.5168
   69MOL    C7345089   3.786   4.337   1.549  0.3073  0.0000  0.0825
   69MOL    C7445090   3.883   4.220   1.533 -0.2099  0.3254  0.7144
   69MOL    C7545091   4.022   4.268   1.492  0.4770  0.0063 -1.1998
   69MOL    C7645092   4.025   4.305   1.342 -0.0323  0.1428  0.3036
   69MOL    C7745093   4.152   4.367   1.280 -0.4568 -0.1728  0.0862
   69MOL    C7845094   4.253   4.257   1.245 -0.0433  0.1917 -0.7705
   69MOL    H7945095   3.554   4.031   1.986 -1.8213  1.0672  0.3284
   69MOL    H8045096   3.653   4.110   1.882  0.5995 -0.6211  1.5832
   69MOL    H8145097   3.360   4.082   1.863  0.1087  0.6079 -0.1116
   69MOL    H8245098   3.409   4.279   1.719  1.7366  1.2881 -0.0184
   69MOL    H8345099   3.385   4.135   1.615  1.5085  2.0347 -2.0480
   69MOL    H8445100   3.620   4.107   1.571 -1.1715 -0.1765 -0.6867
   69MOL    H8545101   3.542   4.248   1.509 -0.7522 -1.0277 -0.3664
   69MOL    H8645102   3.733   4.255   1.736  0.2678 -0.8972 -0.1266
   69MOL    H8745103   3.616   4.377   1.695  0.2875  0.2617  0.7474
   69MOL    H8845104   3.739   4.357   1.452  0.2151 -0.9297 -0.0676
   69MOL    H8945105   3.832   4.429   1.584 -0.8242  0.6458 -0.0824
   69MOL    H9045106   3.851   4.152   1.454  1.9092 -1.4544  1.3500
   69MOL    H9145107   3.894   4.173   1.631 -1.3772  0.6260  0.9926
   69MOL    H9245108   4.059   4.354   1.548  2.2491 -0.9424 -0.8549
   69MOL    H9345109   4.108   4.205   1.515  0.2206 -0.3012 -1.0974
   69MOL    H9445110   3.983   4.218   1.291  0.5199  0.8081 -1.3152
   69MOL    H9545111   3.954   4.387   1.327 -0.0656 -0.0089 -0.3772
   69MOL    H9645112   4.126   4.436   1.200 -2.4375  1.9136  2.4565
   69MOL    H9745113   4.200   4.439   1.347  1.3847  0.4180 -1.7817
   69MOL    H9845114   4.208   4.160   1.222 -0.9582  0.0381  1.5345
   69MOL    H9945115   4.319   4.239   1.331 -1.8607 -0.4967  0.5193
   69MOL   H10045116   4.324   4.282   1.167 -0.1526  1.1518 -0.5738
   69MOL   C10145117   3.477   3.940   1.751  0.3727  0.0837  0.2446
   69MOL   C10245118   3.476   3.815   1.848  0.2709  0.0334 -0.2988
   69MOL   C10345119   3.557   3.700   1.767 -0.4421  0.0501  0.0075
   69MOL   C10445120   3.598   3.585   1.861  0.1002  0.2639  0.3487
   69MOL   C10545121   3.659   3.463   1.804 -0.5058  0.3489 -0.9587
   69MOL   C10645122   3.567   3.335   1.818 -0.0698  0.0191  0.1660
   69MOL   C10745123   3.459   3.330   1.715  0.4182  1.4308 -0.2107
   69MOL   C10845124   3.350   3.223   1.726  0.2439 -0.3630 -0.2131
   69MOL   C10945125   3.254   3.258   1.838 -0.5349 -0.1739  0.5560
   69MOL   C11045126   3.158   3.147   1.878  0.1905  0.7751 -0.1197
   69MOL   C11145127   3.066   3.204   1.978 -0.6680  0.2154 -0.2213
   69MOL   H11245128   3.412   3.919   1.666  0.7471  4.2874 -1.1951
   69MOL   H11345129   3.581   3.943   1.719  0.4850 -1.0805  0.4875
   69MOL   H11445130   3.539   3.838   1.934  1.8430  1.2956 -1.7457
   69MOL   H11545131   3.512   3.663   1.674  1.7161  0.7731 -1.3522
   69MOL   H11645132   3.652   3.738   1.730 -0.1830  0.3205  0.9393
   69MOL   H11745133   3.670   3.614   1.938  1.5635  0.2308 -0.9908
   69MOL   H11845134   3.504   3.555   1.907 -1.1888  2.5462 -0.6922
   69MOL   H11945135   3.687   3.475   1.700  0.9982  0.7178 -0.5228
   69MOL   H12045136   3.755   3.444   1.851 -1.2555  3.6183  2.1675
   69MOL   H12145137   3.639   3.255   1.801  1.1602  1.1836 -0.1353
   69MOL   H12245138   3.541   3.311   1.921 -0.9192 -0.0392 -0.0529
   69MOL   H12345139   3.511   3.314   1.621  0.4092 -0.5782  0.0960
   69MOL   H12445140   3.409   3.425   1.696 -2.7960 -0.0528  0.4691
   69MOL   H12545141   3.293   3.210   1.635  0.7278 -2.1007 -0.2932
   69MOL   H12645142   3.393   3.126   1.752 -1.5657 -0.5714  2.2676
   69MOL   H12745143   3.313   3.293   1.923 -1.3829  1.6492  0.4115
   69MOL   H12845144   3.203   3.353   1.820 -1.3116 -0.6398  0.3079
   69MOL   H12945145   3.219   3.070   1.926  1.2560  0.1559 -2.4142
   69MOL   H13045146   3.106   3.104   1.793  3.4507 -0.0287 -1.7609
   69MOL   H13145147   3.127   3.247   2.057  1.5476 -0.5793 -1.4375
   69MOL   H13245148   2.997   3.279   1.941  0.3087  1.6161  0.7669
   69MOL   H13345149   3.001   3.125   2.015  2.9166 -3.5008 -1.4293
   69MOL   C13445150   3.328   3.767   1.880 -0.2697  0.6915  0.3980
   69MOL   C13545151   3.265   3.820   2.010  0.3878 -0.7263  0.3208
   69MOL   C13645152   3.352   3.763   2.129  0.7430  0.5816 -0.9420
   69MOL   C13745153   3.297   3.813   2.264  0.1987 -0.1775  0.0419
   69MOL   C13845154   3.405   3.782   2.370 -0.2091  0.4920  0.3178
   69MOL   C13945155   3.343   3.794   2.505 -1.3214  0.2912  0.1964
   69MOL   C14045156   3.427   3.768   2.632 -0.2467 -0.6346  0.0024
   69MOL   C14145157   3.476   3.631   2.654 -0.0239  0.2005 -0.2185
   69MOL   C14245158   3.547   3.607   2.785  0.1797 -0.4337 -0.0104
   69MOL   C14345159   3.449   3.589   2.899  0.3508  0.3933  0.1278
   69MOL   C14445160   3.516   3.549   3.029 -0.2925  0.0545  0.1195
   69MOL   H14545161   3.260   3.795   1.798 -0.8675  0.2251  0.7247
   69MOL   H14645162   3.315   3.659   1.879  1.5557  0.4713 -0.8650
   69MOL   H14745163   3.270   3.929   2.016 -1.2224 -0.7278  1.9748
   69MOL   H14845164   3.456   3.791   2.115  1.1771  0.1167  1.1798
   69MOL   H14945165   3.347   3.654   2.125 -1.2172  0.5347  1.4651
   69MOL   H15045166   3.272   3.919   2.264  0.3828 -0.1270  1.0821
   69MOL   H15145167   3.205   3.764   2.296 -0.0122  0.9541  1.2671
   69MOL   H15245168   3.451   3.684   2.358  0.4083  0.9278 -0.9286
   69MOL   H15345169   3.492   3.848   2.370  0.7975 -0.8352 -0.6436
   69MOL   H15445170   3.306   3.897   2.515  0.8765  1.2260 -1.0998
   69MOL   H15545171   3.258   3.725   2.505 -1.2733  0.2185  1.3778
   69MOL   H15645172   3.515   3.831   2.616 -0.1395 -0.2033  2.1012
   69MOL   H15745173   3.367   3.801   2.717  1.0767 -2.1686  1.5672
   69MOL   H15845174   3.398   3.561   2.623  1.0063 -0.3403 -1.6253
   69MOL   H15945175   3.559   3.621   2.584 -0.3525  3.8960 -1.2335
   69MOL   H16045176   3.623   3.529   2.784  0.7050  0.0648 -2.0978
   69MOL   H16145177   3.607   3.695   2.809 -0.8664  0.0658  0.8371
   69MOL   H16245178   3.402   3.686   2.914  2.5455  1.5328 -0.1533
   69MOL   H16345179   3.371   3.517   2.874  1.7856 -0.7380 -1.1069
   69MOL   H16445180   3.584   3.615   3.084  0.5108  0.0161 -0.8078
   69MOL   H16545181   3.574   3.460   3.007  2.5374  1.6014  1.0139
   69MOL   H16645182   3.441   3.517   3.102  1.1386 -1.4056  0.9784
   69MOL   C16745183   3.112   3.775   2.025 -0.0940 -0.0080  0.0244
   69MOL   C16845184   3.012   3.815   1.922  0.1859  0.1697  0.1671
   69MOL   C16945185   3.018   3.973   1.886 -0.4129  0.3625 -0.4434
   69MOL   C17045186   2.982   4.072   2.002 -0.0091  0.0178 -0.1022
   69MOL   C17145187   2.978   4.220   1.952  0.3096 -0.1353 -0.1624
   69MOL   C17245188   2.921   4.317   2.061  0.1953  0.1435  0.0393
   69MOL   C17345189   2.901   4.449   1.987  0.3328  0.0967 -0.1163
   69MOL   C17445190   2.862   4.573   2.071 -0.4941 -0.0904  0.0347
   69MOL   C17545191   2.891   4.715   2.019 -0.8849 -0.6585 -0.0180
   69MOL   C17645192   3.039   4.752   2.029 -0.5610 -0.5905 -0.6179
   69MOL   C17745193   3.063   4.907   2.011  0.1729  0.2306  0.1848
   69MOL   H17845194   3.113   3.666   2.030  0.2772  0.1040  3.4202
   69MOL   H17945195   3.073   3.804   2.123 -0.8259 -1.3022  0.1372
   69MOL   H18045196   3.049   3.757   1.837 -1.7227  2.5486 -2.3494
   69MOL   H18145197   2.953   4.000   1.803 -0.0612 -1.2579 -1.2830
   69MOL   H18245198   3.121   3.981   1.853 -0.9780  1.9209 -1.8832
   69MOL   H18345199   2.889   4.047   2.053  0.7651 -0.5939  1.0239
   69MOL   H18445200   3.052   4.068   2.085  1.3089 -1.1808 -1.2545
   69MOL   H18545201   2.914   4.222   1.864  0.8062  0.6105 -0.5020
   69MOL   H18645202   3.073   4.249   1.909 -1.7442  1.5202 -3.7467
   69MOL   H18745203   2.829   4.279   2.106  1.0434 -0.5697  1.2235
   69MOL   H18845204   2.985   4.331   2.149  1.7660  3.3422 -1.5289
   69MOL   H18945205   2.831   4.448   1.903 -1.5121  2.3651  1.3444
   69MOL   H19045206   3.000   4.467   1.945  0.0834  1.8219 -0.0194
   69MOL   H19145207   2.753   4.570   2.072 -0.5687  1.0858 -1.5348
   69MOL   H19245208   2.889   4.556   2.175 -0.8679 -1.6627 -0.1127
   69MOL   H19345209   2.822   4.779   2.073 -0.8604 -0.2038 -0.5285
   69MOL   H19445210   2.862   4.730   1.915  1.2808 -1.4759 -0.7733
   69MOL   H19545211   3.093   4.697   1.952 -2.2308 -1.8231 -0.9369
   69MOL   H19645212   3.084   4.726   2.125 -0.1440  0.7437 -0.4455
   69MOL   H19745213   3.169   4.929   2.006  0.5735 -1.3674  1.2110
   69MOL   H19845214   3.028   4.958   2.101  0.1262 -0.9893  0.8695
   69MOL   H19945215   3.005   4.953   1.930 -2.4984 -1.7949  0.8543
   69MOL   C20045216   2.876   3.771   1.960  0.9530  0.3800  0.3921
   69MOL   C20145217   2.764   3.804   1.861 -0.0923 -0.1905  0.6625
   69MOL   C20245218   2.622   3.768   1.924  0.6598 -0.0900  0.9653
   69MOL   C20345219   2.560   3.860   2.031 -0.8397 -0.4361  0.2664
   69MOL   C20445220   2.478   3.974   1.971 -0.1411  0.4482 -0.0442
   69MOL   C20545221   2.572   4.097   1.927  0.5882 -0.5079 -0.3387
   69MOL   C20645222   2.478   4.220   1.910  0.2193  0.6204 -0.0991
   69MOL   C20745223   2.536   4.323   1.810 -0.2883  0.0368 -0.8088
   69MOL   C20845224   2.452   4.452   1.787  0.3127  0.2489  0.0294
   69MOL   C20945225   2.511   4.537   1.669 -0.0778 -0.0314 -0.5466
   69MOL   C21045226   2.538   4.482   1.526  1.1679 -0.0029  0.3031
   69MOL   H21145227   2.883   3.663   1.977  0.7167  0.2866 -0.0974
   69MOL   H21245228   2.850   3.803   2.061  2.1140  2.1559  0.1449
   69MOL   H21345229   2.763   3.911   1.846 -0.9522 -0.1454  0.9715
   69MOL   H21445230   2.641   3.671   1.969 -0.6062 -0.0232  1.6793
   69MOL   H21545231   2.540   3.751   1.854  0.9856  1.6826  0.1258
   69MOL   H21645232   2.642   3.902   2.089 -1.6293  1.5178  0.0225
   69MOL   H21745233   2.492   3.805   2.095 -1.8550 -1.3746 -1.5806
   69MOL   H21845234   2.410   4.010   2.048  0.6203 -0.1063  0.9049
   69MOL   H21945235   2.410   3.939   1.894 -2.0154 -0.3512  1.9348
   69MOL   H22045236   2.640   4.122   2.008 -0.3545 -0.5250  0.4645
   69MOL   H22145237   2.624   4.068   1.836  0.8844 -0.9106 -0.0390
   69MOL   H22245238   2.456   4.267   2.006 -1.1687 -1.4453  0.6289
   69MOL   H22345239   2.383   4.195   1.862  0.6660 -2.2657  0.4385
   69MOL   H22445240   2.559   4.292   1.708  1.1078 -0.4040 -0.3682
   69MOL   H22545241   2.632   4.368   1.837 -0.3454  0.0993 -0.7142
   69MOL   H22645242   2.446   4.509   1.880  2.8139 -1.0586  1.0307
   69MOL   H22745243   2.346   4.435   1.766  0.3304  0.3980 -0.1891
   69MOL   H22845244   2.453   4.629   1.660 -0.3077 -0.0152  1.0010
   69MOL   H22945245   2.610   4.571   1.701 -0.7186  0.8701  0.5036
   69MOL   H23045246   2.614   4.404   1.521 -2.6849 -3.8286 -2.5631
   69MOL   H23145247   2.564   4.565   1.460 -2.5633 -0.4180 -1.8116
   69MOL   H23245248   2.446   4.447   1.479  0.0873 -0.2507  2.5748
   69MOL   C23345249   2.782   3.738   1.720 -0.3026  0.2743 -1.2068
   69MOL   C23445250   2.775   3.583   1.718 -0.5213 -0.1766  0.5030
   69MOL   C23545251   2.920   3.533   1.673 -0.3546  0.1818  1.1640
   69MOL   C23645252   2.965   3.548   1.525  0.6627 -0.6679  0.1985
   69MOL   C23745253   3.093   3.481   1.496  0.9580  0.2482 -0.4261
   69MOL   C23845254   3.128   3.491   1.347  0.7645  0.3219  0.3351
   69MOL   C23945255   3.259   3.418   1.306 -0.0823  0.3158  0.3741
   69MOL   C24045256   3.375   3.487   1.367  0.5834 -1.0303 -0.0932
   69MOL   C24145257   3.508   3.431   1.314 -0.0950 -0.5784  0.5663
   69MOL   C24245258   3.631   3.510   1.367 -0.2724 -0.0376  0.6494
   69MOL   C24345259   3.753   3.456   1.286 -0.3188 -0.1168 -0.7509
   69MOL   H24445260   2.877   3.770   1.677  2.0113 -2.5965  1.5554
   69MOL   H24545261   2.703   3.775   1.654 -0.0509  1.8244 -0.6630
   69MOL   H24645262   2.762   3.550   1.821  1.0860  1.0604  1.1291
   69MOL   H24745263   3.005   3.575   1.727 -0.2307  0.5265  0.7070
   69MOL   H24845264   2.940   3.429   1.701 -1.7414 -0.6224 -0.6817
   69MOL   H24945265   2.973   3.650   1.490 -1.4160 -1.1872 -1.8598
   69MOL   H25045266   2.891   3.505   1.458  1.4030 -1.8335  0.1087
   69MOL   H25145267   3.082   3.373   1.507  0.7468  0.2945 -0.1645
   69MOL   H25245268   3.175   3.509   1.562  0.2857  3.3812 -0.8414
   69MOL   H25345269   3.151   3.590   1.308 -0.4047  1.4730  2.4365
   69MOL   H25445270   3.051   3.451   1.282  1.1548 -0.8163  0.5593
   69MOL   H25545271   3.269   3.313   1.331  2.2139  0.5041  0.2801
   69MOL   H25645272   3.263   3.420   1.197 -1.4740  0.0678  0.3050
   69MOL   H25745273   3.369   3.596   1.363  0.0362 -1.0422  0.3028
   69MOL   H25845274   3.381   3.471   1.475 -0.1324 -0.8108 -0.0155
   69MOL   H25945275   3.518   3.325   1.339 -0.2916 -1.3751 -2.5596
   69MOL   H26045276   3.511   3.441   1.206  2.9421 -0.6623  0.6032
   69MOL   H26145277   3.653   3.485   1.470 -0.6749 -3.0079  0.0506
   69MOL   H26245278   3.615   3.615   1.344 -1.7347 -0.6470 -1.3070
   69MOL   H26345279   3.733   3.465   1.179 -0.0022 -0.6115 -0.8541
   69MOL   H26445280   3.788   3.354   1.299 -3.3087 -1.2086 -0.8912
   69MOL   H26545281   3.836   3.522   1.313  0.1454 -1.1959  0.5300
   69MOL   C26645282   2.666   3.514   1.630 -0.0721 -0.0508 -0.3113
   69MOL   C26745283   2.649   3.362   1.656 -0.5277  0.4691  0.5715
   69MOL   C26845284   2.670   3.288   1.524  0.7525 -0.4441 -0.8138
   69MOL   C26945285   2.696   3.137   1.540  0.6231  0.0242  0.2471
   69MOL   C27045286   2.832   3.091   1.593 -0.2234  0.1442 -0.5001
   69MOL   C27145287   2.863   2.945   1.556  0.0161 -0.2910 -1.0357
   69MOL   C27245288   3.005   2.895   1.599 -0.7532  0.5113  0.2161
   69MOL   C27345289   3.107   2.956   1.506 -0.4713  0.3299 -0.8013
   69MOL   C27445290   3.241   2.887   1.503 -0.5616  0.0556  0.8808
   69MOL   C27545291   3.239   2.754   1.429 -0.3545  0.0916 -0.1264
   69MOL   C27645292   3.181   2.747   1.281 -0.4142 -0.6738  0.0098
   69MOL   H27745293   2.673   3.547   1.526  2.1851  1.7189  0.3618
   69MOL   H27845294   2.571   3.564   1.651 -0.6675 -1.1267 -0.4160
   69MOL   H27945295   2.728   3.337   1.726  1.6310  1.5074 -1.3994
   69MOL   H28045296   2.579   3.299   1.465  1.3054  1.5644 -1.3286
   69MOL   H28145297   2.740   3.351   1.470  0.8356  0.9451  0.8459
   69MOL   H28245298   2.701   3.099   1.438  0.2622 -0.0404  0.2533
   69MOL   H28345299   2.609   3.082   1.576 -0.6963  0.5134 -2.1076
   69MOL   H28445300   2.838   3.110   1.700 -0.0943 -0.6266 -0.3638
   69MOL   H28545301   2.913   3.153   1.554 -0.2895 -0.3617 -1.4764
   69MOL   H28645302   2.856   2.919   1.450 -0.7320  1.8967 -1.5479
   69MOL   H28745303   2.788   2.890   1.612  0.0498  2.9180  2.3498
   69MOL   H28845304   3.023   2.895   1.706 -0.6629 -1.3964  0.2182
   69MOL   H28945305   3.002   2.789   1.570 -0.0990  0.6737 -0.4686
   69MOL   H29045306   3.122   3.063   1.526 -0.0151  0.0247  0.5762
   69MOL   H29145307   3.064   2.942   1.407 -0.7845 -0.8808 -0.4956
   69MOL   H29245308   3.306   2.957   1.451 -1.4399  0.3792  0.2190
   69MOL   H29345309   3.283   2.878   1.604  1.6626 -0.2631 -0.0476
   69MOL   H29445310   3.181   2.680   1.484  0.7601  1.0577  2.4519
   69MOL   H29545311   3.340   2.714   1.426 -0.2531  0.1028  1.9615
   69MOL   H29645312   3.214   2.654   1.235 -0.7042 -0.8840  0.2258
   69MOL   H29745313   3.225   2.833   1.230  1.7991 -1.0958  1.1849
   69MOL   H29845314   3.073   2.765   1.284 -0.0027  1.9195  0.4461
   69MOL   C29945315   2.514   3.333   1.719  0.1124  0.3434 -0.3179
   69MOL   C30045316   2.491   3.403   1.861 -0.1401  0.5108  0.2152
   69MOL   C30145317   2.584   3.349   1.973 -0.2858  0.7217 -0.2596
   69MOL   C30245318   2.567   3.423   2.110 -0.2071  0.2718  0.4036
   69MOL   C30345319   2.691   3.453   2.191 -0.0751 -0.4697 -0.9560
   69MOL   C30445320   2.691   3.503   2.332  0.5531 -0.3123 -0.3519
   69MOL   C30545321   2.832   3.507   2.399  0.0207 -0.2496  0.0376
   69MOL   C30645322   2.822   3.559   2.545  0.1667 -0.5274  0.0011
   69MOL   C30745323   2.949   3.616   2.604 -0.1440  0.5304 -0.8733
   69MOL   C30845324   2.930   3.680   2.747  0.2030  0.3513  0.5439
   69MOL   C30945325   3.062   3.729   2.807  0.1197  0.4311 -1.0307
   69MOL   H31045326   2.511   3.228   1.749  1.0307 -0.3149 -2.4801
   69MOL   H31145327   2.437   3.352   1.645  0.5242  2.2799 -0.2649
   69MOL   H31245328   2.514   3.509   1.852  3.6258 -0.2985 -0.2971
   69MOL   H31345329   2.584   3.240   1.980  2.1815  0.7144  0.1962
   69MOL   H31445330   2.686   3.359   1.935  0.2009 -2.8798 -0.1178
   69MOL   H31545331   2.508   3.514   2.105 -1.8320 -0.7494  0.8062
   69MOL   H31645332   2.506   3.354   2.168 -0.4444  0.3022  0.1859
   69MOL   H31745333   2.751   3.361   2.190  0.3284 -0.2156  0.0137
   69MOL   H31845334   2.758   3.514   2.131  1.5079  0.2180  1.4380
   69MOL   H31945335   2.628   3.433   2.385  2.2856 -1.1518  0.6602
   69MOL   H32045336   2.657   3.607   2.330  0.6476 -0.2554  0.9015
   69MOL   H32145337   2.888   3.413   2.395  1.2134  0.5196 -1.6171
   69MOL   H32245338   2.894   3.572   2.337  0.9475 -2.6912 -1.6596
   69MOL   H32345339   2.803   3.471   2.607 -1.9542 -0.3234 -0.3004
   69MOL   H32445340   2.741   3.633   2.552  1.7373  1.2387 -0.0479
   69MOL   H32545341   2.991   3.684   2.530 -0.0696  0.5081 -0.8523
   69MOL   H32645342   3.022   3.535   2.608 -3.2476 -2.3753 -1.3204
   69MOL   H32745343   2.893   3.595   2.805  0.4057  0.1391  0.3647
   69MOL   H32845344   2.852   3.755   2.739  1.0135  1.1793  0.2976
   69MOL   H32945345   3.133   3.649   2.828  1.1127  1.6582  0.3837
   69MOL   H33045346   3.098   3.804   2.737  0.3954  0.9941 -0.2944
   69MOL   H33145347   3.046   3.773   2.905 -0.3616 -0.5854 -0.6418
   69MOL   C33245348   2.349   3.388   1.902  0.0199 -0.0449 -0.3928
   69MOL   C33345349   2.232   3.431   1.805  0.1165 -0.6220 -0.7594
   69MOL   C33445350   2.232   3.588   1.787  0.4164  0.4034 -0.4318
   69MOL   C33545351   2.157   3.651   1.671  0.2395 -0.4915 -0.1358
   69MOL   C33645352   2.163   3.798   1.679  0.9551  0.0006 -0.1142
   69MOL   C33745353   2.110   3.861   1.553  0.0356 -0.5087 -0.1194
   69MOL   C33845354   2.134   4.015   1.535 -0.1751 -0.3632  0.3015
   69MOL   C33945355   2.045   4.067   1.424 -0.5114 -0.7353  0.4533
   69MOL   C34045356   2.058   4.213   1.407  0.1034  0.0541  0.1383
   69MOL   C34145357   1.954   4.271   1.315 -0.5041 -0.0224  0.1837
   69MOL   C34245358   1.937   4.423   1.338 -0.0772  0.0330  0.3379
   69MOL   H34345359   2.325   3.283   1.919  0.6389 -0.2450 -0.7381
   69MOL   H34445360   2.330   3.426   2.002 -1.1952  0.2301 -0.7152
   69MOL   H34545361   2.252   3.391   1.705  1.2595 -1.8488 -0.0478
   69MOL   H34645362   2.335   3.616   1.766  0.3435 -0.8853 -2.6260
   69MOL   H34745363   2.193   3.624   1.882  4.0719  0.9162  0.9561
   69MOL   H34845364   2.207   3.597   1.591 -1.1024 -1.6372 -0.2219
   69MOL   H34945365   2.054   3.615   1.670 -0.0158  0.2519 -1.0963
   69MOL   H35045366   2.106   3.839   1.762 -1.2059 -1.0581 -1.0226
   69MOL   H35145367   2.269   3.822   1.687  1.0862 -0.6130  0.0268
   69MOL   H35245368   2.005   3.835   1.544  0.2355 -0.7410 -1.9291
   69MOL   H35345369   2.170   3.816   1.473  3.0210  0.5377  1.4602
   69MOL   H35445370   2.234   4.041   1.502  0.7180  1.0640  3.8682
   69MOL   H35545371   2.118   4.064   1.631  1.1842  0.3872  0.1613
   69MOL   H35645372   2.084   4.023   1.333 -0.9490 -1.2498  0.5120
   69MOL   H35745373   1.943   4.031   1.434 -0.7383 -0.8130 -1.8841
   69MOL   H35845374   2.148   4.241   1.352 -1.0218 -2.7980 -3.3148
   69MOL   H35945375   2.058   4.262   1.504  0.6733  0.4883 -0.0811
   69MOL   H36045376   1.862   4.221   1.345 -1.5464  1.4554 -0.5358
   69MOL   H36145377   1.972   4.248   1.210 -0.9439  0.1070  0.0800
   69MOL   H36245378   1.886   4.480   1.261 -2.2784 -0.6520  1.2430
   69MOL   H36345379   1.879   4.439   1.429 -2.1625 -1.5722 -0.6695
   69MOL   H36445380   2.035   4.471   1.349 -0.0522 -0.4855  2.5915
   69MOL   C36545381   2.099   3.375   1.863  0.7412  0.4833  0.0714
   69MOL   C36645382   2.058   3.235   1.826 -0.4645 -0.5661 -0.1816
   69MOL   C36745383   1.972   3.171   1.936  0.3011  0.1426 -0.3746
   69MOL   C36845384   1.851   3.263   1.985  0.6764  0.9561 -0.2296
   69MOL   C36945385   1.747   3.191   2.067  0.4843  0.2233  0.0260
   69MOL   C37045386   1.659   3.100   1.976  0.3890 -0.1934 -0.0071
   69MOL   C37145387   1.586   2.989   2.061  0.2503  0.1622 -0.2997
   69MOL   C37245388   1.538   2.863   1.981 -0.1702  0.0749 -0.4087
   69MOL   C37345389   1.448   2.763   2.054 -0.1009 -0.1332 -0.4214
   69MOL   C37445390   1.424   2.628   1.983  0.2647  0.2650 -0.1886
   69MOL   C37545391   1.337   2.533   2.078 -0.4712 -0.0868 -0.2753
   69MOL   H37645392   2.099   3.390   1.971  0.7543 -0.3751  0.1990
   69MOL   H37745393   2.026   3.448   1.830  1.1054 -0.0337 -1.9181
   69MOL   H37845394   2.144   3.169   1.821 -0.3739 -0.5615  1.1154
   69MOL   H37945395   2.040   3.152   2.019 -0.7173  1.1319  0.7171
   69MOL   H38045396   1.928   3.078   1.901 -1.3762  0.3631  1.0314
   69MOL   H38145397   1.809   3.325   1.907  0.3252  0.5028 -0.4048
   69MOL   H38245398   1.895   3.344   2.043 -0.0985 -0.2597  2.1389
   69MOL   H38345399   1.676   3.255   2.120  0.1572  0.7678 -1.0406
   69MOL   H38445400   1.805   3.133   2.139  1.0527  0.7644  0.0044
   69MOL   H38545401   1.724   3.035   1.917  0.1627 -2.4698  2.1408
   69MOL   H38645402   1.593   3.163   1.916 -1.0980 -0.4428  1.3356
   69MOL   H38745403   1.659   2.950   2.132  0.4932 -0.6123 -0.9688
   69MOL   H38845404   1.502   3.025   2.120 -0.0180  1.0876 -1.2135
   69MOL   H38945405   1.630   2.809   1.957 -0.2279 -1.0018  1.6533
   69MOL   H39045406   1.492   2.891   1.886 -1.1015 -0.3380 -0.0863
   69MOL   H39145407   1.501   2.727   2.142  0.6742  2.0990  0.0611
   69MOL   H39245408   1.355   2.808   2.088  0.9058  0.1148  2.0715
   69MOL   H39345409   1.381   2.642   1.884  0.5137  1.2275 -0.1713
   69MOL   H39445410   1.511   2.567   1.960 -0.1649 -0.7144  0.7785
   69MOL   H39545411   1.401   2.495   2.158 -0.2722  0.5605 -0.1252
   69MOL   H39645412   1.300   2.453   2.014 -2.3784  1.8634 -1.7198
   69MOL   H39745413   1.251   2.581   2.125 -2.0775 -3.7103  0.6496
   69MOL   C39845414   1.991   3.236   1.686  0.7937  0.3435 -0.2692
   69MOL   C39945415   2.014   3.099   1.614 -1.0930 -0.2769  0.1990
   69MOL   C40045416   2.148   3.084   1.543  0.1497 -0.2895 -0.0756
   69MOL   C40145417   2.167   2.938   1.490 -0.6265  0.2321 -0.3461
   69MOL   C40245418   2.305   2.917   1.435 -0.4567  0.0317  0.1333
   69MOL   C40345419   2.326   2.770   1.401 -0.9296  0.1384  0.7459
   69MOL   C40445420   2.460   2.756   1.324  0.4882  0.1514  0.1729
   69MOL   C40545421   2.500   2.613   1.315  0.0431 -0.1002 -0.5770
   69MOL   C40645422   2.588   2.580   1.193  0.4227 -0.8385 -0.0160
   69MOL   C40745423   2.737   2.620   1.205 -0.5211 -0.6346 -0.3412
   69MOL   C40845424   2.826   2.581   1.090 -0.5660 -0.1986 -0.7227
   69MOL   H40945425   2.018   3.319   1.620  0.1318  1.0196  0.2990
   69MOL   H41045426   1.884   3.251   1.698  0.5017 -1.0559 -1.0069
   69MOL   H41145427   2.024   3.018   1.685 -0.3849  0.0936  0.5242
   69MOL   H41245428   2.221   3.125   1.612  0.7608  1.5023 -1.7623
   69MOL   H41345429   2.147   3.164   1.470  4.3911  0.1034  0.1969
   69MOL   H41445430   2.144   2.870   1.572  0.3175  0.3065 -0.0170
   69MOL   H41545431   2.109   2.919   1.400  1.5821 -1.8244 -1.3735
   69MOL   H41645432   2.335   2.983   1.353 -0.6911 -0.6648 -0.5114
   69MOL   H41745433   2.378   2.936   1.514  2.0247  0.6974 -2.2708
   69MOL   H41845434   2.247   2.741   1.332  0.4559 -1.8049 -0.0746
   69MOL   H41945435   2.319   2.704   1.487 -0.3012  2.2290  2.4477
   69MOL   H42045436   2.457   2.803   1.226  2.8300  0.6684  0.3158
   69MOL   H42145437   2.545   2.812   1.365  2.3176 -1.8656 -0.7363
   69MOL   H42245438   2.410   2.555   1.297 -0.4199  0.6923 -0.8091
   69MOL   H42345439   2.546   2.576   1.407  0.2451  2.4181  0.3756
   69MOL   H42445440   2.584   2.473   1.171  0.4616 -0.4313 -2.1449
   69MOL   H42545441   2.542   2.616   1.100 -0.9438  1.8155  1.6404
   69MOL   H42645442   2.763   2.578   1.302  0.0540 -0.3744 -0.3806
   69MOL   H42745443   2.750   2.726   1.227  1.0779 -0.5604 -1.5627
   69MOL   H42845444   2.802   2.477   1.065 -1.2710 -0.0415 -0.6999
   69MOL   H42945445   2.928   2.579   1.129 -1.0356 -1.0843  0.4859
   69MOL   H43045446   2.826   2.638   0.997  1.5122  2.0074  0.5651
   69MOL   C43145447   1.900   3.080   1.514  0.4031 -0.2788 -0.1204
   69MOL   C43245448   1.754   3.040   1.571  0.3227  0.2554 -0.2501
   69MOL   C43345449   1.759   2.902   1.633  0.0670  0.1005 -0.1003
   69MOL   C43445450   1.807   2.784   1.545  0.2824 -0.4273  0.2886
   69MOL   C43545451   1.787   2.653   1.620  0.5804  0.2153  0.3327
   69MOL   C43645452   1.812   2.526   1.543  0.4923 -0.1401 -0.6074
   69MOL   C43745453   1.807   2.393   1.618  0.2815  0.5133 -0.1987
   69MOL   C43845454   1.812   2.268   1.525  0.1811 -0.4275  0.3701
   69MOL   C43945455   1.863   2.147   1.602 -0.4860  0.0640  0.7923
   69MOL   C44045456   1.869   2.015   1.512 -0.1735  0.2063  0.2325
   69MOL   C44145457   1.894   1.896   1.598  0.3265 -0.3512 -0.1844
   69MOL   H44245458   1.940   3.011   1.440 -0.2272 -0.8590  0.0758
   69MOL   H44345459   1.885   3.174   1.461  2.0922 -0.9372 -1.8091
   69MOL   H44445460   1.728   3.115   1.645 -1.8505 -0.7540  0.0637
   69MOL   H44545461   1.827   2.905   1.718  2.6604  1.3251 -2.1688
   69MOL   H44645462   1.670   2.873   1.689  1.3699 -3.1070  0.4129
   69MOL   H44745463   1.913   2.798   1.523 -0.1107  2.9709  0.2103
   69MOL   H44845464   1.751   2.779   1.452  0.7304 -3.9378  0.1671
   69MOL   H44945465   1.694   2.654   1.676 -0.5748 -2.8036 -1.3840
   69MOL   H45045466   1.860   2.653   1.701 -0.6709  0.7471  1.4675
   69MOL   H45145467   1.906   2.536   1.490  1.7198 -0.4977  1.4343
   69MOL   H45245468   1.739   2.508   1.464 -0.7187  0.3534  0.3821
   69MOL   H45345469   1.718   2.384   1.680  0.6343  1.2745  0.4145
   69MOL   H45445470   1.893   2.377   1.682 -0.4061 -0.7833  0.4098
   69MOL   H45545471   1.711   2.246   1.492  0.1480  2.4405 -1.7057
   69MOL   H45645472   1.857   2.288   1.427 -2.6208 -0.6273 -0.9944
   69MOL   H45745473   1.802   2.128   1.691  1.2157 -1.2162  1.7110
   69MOL   H45845474   1.959   2.171   1.647  0.6233  1.6760 -2.3125
   69MOL   H45945475   1.938   2.013   1.428  0.0408  0.2681  0.4054
   69MOL   H46045476   1.778   2.001   1.453  0.5410  1.1347 -1.0936
   69MOL   H46145477   1.982   1.900   1.663 -1.3292 -1.7357  2.2650
   69MOL   H46245478   1.804   1.871   1.655  0.1106  0.7029 -0.0611
   69MOL   H46345479   1.911   1.811   1.531 -0.7508 -1.2545  0.6583
   69MOL   C46445480   1.651   3.060   1.455 -0.4748 -0.1378  0.5975
   69MOL   C46545481   1.504   3.057   1.504 -0.1669  0.2706  0.0330
   69MOL   C46645482   1.451   3.200   1.547  0.1565 -0.3820 -0.8267
   69MOL   C46745483   1.417   3.300   1.435  0.5722  0.0634  0.0640
   69MOL   C46845484   1.359   3.428   1.482  1.2278 -0.4547 -0.3030
   69MOL   C46945485   1.302   3.513   1.364 -0.5149 -0.0796  0.2517
   69MOL   C47045486   1.231   3.644   1.415 -0.6107  0.0725  0.2871
   69MOL   C47145487   1.194   3.730   1.289 -0.1374 -0.1976  0.1518
   69MOL   C47245488   1.112   3.848   1.341 -0.1136 -0.7755 -0.0112
   69MOL   C47345489   1.098   3.944   1.224 -0.7465 -0.1326 -0.1049
   69MOL   C47445490   1.037   4.074   1.272  0.5859 -0.3308 -0.4261
   69MOL   H47545491   1.672   2.984   1.380 -0.9282 -0.5488  0.8888
   69MOL   H47645492   1.680   3.151   1.402  1.0787 -1.0506 -0.1487
   69MOL   H47745493   1.487   2.995   1.592 -0.7131 -0.4600 -0.5810
   69MOL   H47845494   1.534   3.240   1.606 -1.3682  1.0644  0.3900
   69MOL   H47945495   1.364   3.195   1.612  0.8331 -0.7185  0.0561
   69MOL   H48045496   1.499   3.321   1.367  0.2810 -2.0669 -1.0226
   69MOL   H48145497   1.335   3.252   1.380  2.2722  0.5103 -2.9747
   69MOL   H48245498   1.427   3.503   1.524  1.2237 -0.4701 -0.2696
   69MOL   H48345499   1.278   3.412   1.553 -0.1184  4.3448 -0.5361
   69MOL   H48445500   1.380   3.547   1.295  0.8974 -3.5359  0.0480
   69MOL   H48545501   1.235   3.454   1.302  0.2185  1.2942 -1.9152
   69MOL   H48645502   1.140   3.624   1.470 -1.1955  1.7271 -0.0413
   69MOL   H48745503   1.285   3.698   1.493 -0.0050  1.6928 -1.2136
   69MOL   H48845504   1.283   3.740   1.228 -0.5247 -2.7221 -0.8529
   69MOL   H48945505   1.136   3.668   1.221  3.0923 -0.6669 -2.2833
   69MOL   H49045506   1.012   3.809   1.362  0.8836 -3.3264  0.2440
   69MOL   H49145507   1.160   3.903   1.422 -1.6888  0.1396  0.3171
   69MOL   H49245508   1.197   3.975   1.193 -0.8406  0.4498  0.1674
   69MOL   H49345509   1.046   3.902   1.138 -0.0083 -1.2297 -0.0276
   69MOL   H49445510   1.064   4.156   1.205  0.1325  0.1683 -0.0027
   69MOL   H49545511   1.075   4.109   1.367  0.5595  1.3314 -1.0111
   69MOL   H49645512   0.931   4.089   1.292  0.7892 -0.4929  0.7990
   69MOL   C49745513   1.404   2.995   1.405  0.0307  0.1144  0.1885
   69MOL   C49845514   1.269   2.946   1.448 -0.3956 -0.1840 -0.6973
   69MOL   C49945515   1.261   2.828   1.548 -0.4034 -0.4485  0.2998
   69MOL   C50045516   1.318   2.694   1.491  0.2108  0.8882  0.3954
   69MOL   C50145517   1.304   2.574   1.581  0.9877 -0.5012 -0.0929
   69MOL   C50245518   1.340   2.438   1.517  0.2245 -0.1827 -0.5157
   69MOL   C50345519   1.333   2.320   1.615 -0.3844 -0.4264  0.6438
   69MOL   C50445520   1.380   2.184   1.553 -0.3784  0.1414  0.1586
   69MOL   C50545521   1.403   2.075   1.652  0.2215 -0.2619  0.1804
   69MOL   C50645522   1.427   1.946   1.576 -0.2055 -0.1982  0.6890
   69MOL   C50745523   1.450   1.825   1.662 -0.6669  0.2368  0.5212
   69MOL   H50845524   1.398   3.047   1.309 -0.4254 -1.3900 -0.6231
   69MOL   H50945525   1.459   2.906   1.374  2.2758  0.5890  2.6475
   69MOL   H51045526   1.224   3.028   1.504  0.5243  0.3616 -0.7577
   69MOL   H51145527   1.159   2.806   1.581 -1.2805 -1.7039 -2.9530
   69MOL   H51245528   1.311   2.848   1.642  0.1924  0.6913 -0.2524
   69MOL   H51345529   1.420   2.713   1.460  0.0157  2.6207  0.7744
   69MOL   H51445530   1.269   2.666   1.397  0.2960  0.2346  0.5455
   69MOL   H51545531   1.347   2.586   1.680  2.7898  1.6958 -1.1243
   69MOL   H51645532   1.198   2.564   1.606  0.5780  0.5767 -1.3511
   69MOL   H51745533   1.281   2.416   1.428  1.0250 -2.4214 -0.5089
   69MOL   H51845534   1.444   2.455   1.486  0.4356 -1.2807 -0.4333
   69MOL   H51945535   1.402   2.345   1.696 -1.8259 -1.6138  2.2925
   69MOL   H52045536   1.237   2.317   1.666 -0.1859  2.9208  1.2892
   69MOL   H52145537   1.467   2.179   1.487 -1.1881  0.7353 -0.9807
   69MOL   H52245538   1.308   2.149   1.479  0.4460  1.8670 -1.5012
   69MOL   H52345539   1.324   2.063   1.726 -1.0795  0.2136 -1.1249
   69MOL   H52445540   1.494   2.082   1.713  0.8226  0.7202 -0.8036
   69MOL   H52545541   1.523   1.958   1.526  0.2307  2.0744  1.9967
   69MOL   H52645542   1.349   1.935   1.501 -0.0354  1.8063  0.2107
   69MOL   H52745543   1.365   1.803   1.727 -2.2835  1.2378 -1.1815
   69MOL   H52845544   1.538   1.849   1.721  1.7561 -1.0765 -2.3920
   69MOL   H52945545   1.473   1.739   1.599 -1.2063  0.9884 -0.7206
   69MOL   C53045546   1.177   2.914   1.329 -0.0585  0.6049 -0.4960
   69MOL   C53145547   1.119   3.037   1.260 -0.8728  0.1202 -0.6269
   69MOL   C53245548   0.993   3.067   1.334  0.4884 -0.3665 -0.3691
   69MOL   C53345549   0.975   3.222   1.341 -0.4366 -0.3047  0.0252
   69MOL   C53445550   0.855   3.252   1.422 -0.4113  0.2424  0.5798
   69MOL   C53545551   0.828   3.405   1.420  0.0605 -0.8503  0.2606
   69MOL   C53645552   0.768   3.452   1.286 -0.6555  0.0978  0.7594
   69MOL   C53745553   0.756   3.607   1.284 -0.0138 -0.1173 -0.4040
   69MOL   C53845554   0.645   3.657   1.197 -0.1171  0.4307  0.1025
   69MOL   C53945555   0.617   3.804   1.208  0.1370 -0.0325 -0.7532
   69MOL   C54045556   0.726   3.888   1.138  0.0395 -0.2516 -0.3065
   69MOL   H54145557   1.233   2.856   1.256  0.2184 -0.4301  0.5208
   69MOL   H54245558   1.090   2.855   1.359  1.2565 -0.7673  0.7389
   69MOL   H54345559   1.178   3.128   1.276 -0.1583 -0.5076  0.4008
   69MOL   H54445560   1.004   3.041   1.439 -0.7282 -0.4515 -0.2515
   69MOL   H54545561   0.906   3.011   1.298  0.9592 -1.5255  0.3022
   69MOL   H54645562   0.976   3.274   1.246  0.2759  1.6502  1.0634
   69MOL   H54745563   1.056   3.273   1.394 -0.8720  1.1429 -0.6707
   69MOL   H54845564   0.873   3.203   1.518 -1.0962 -1.2839 -0.0540
   69MOL   H54945565   0.769   3.203   1.379 -0.5975  1.0681  0.0082
   69MOL   H55045566   0.921   3.458   1.437  0.4198 -1.9252  1.8194
   69MOL   H55145567   0.752   3.409   1.499  1.6215 -0.0891  1.7587
   69MOL   H55245568   0.670   3.408   1.273 -1.4262  2.2505 -1.0033
   69MOL   H55345569   0.835   3.420   1.206 -1.1079 -1.3983  0.9632
   69MOL   H55445570   0.850   3.657   1.259  0.2180  0.4017  1.4094
   69MOL   H55545571   0.728   3.634   1.386 -2.0619 -2.4039 -0.3106
   69MOL   H55645572   0.550   3.612   1.226 -0.6012  0.6477 -1.1237
   69MOL   H55745573   0.661   3.631   1.093 -0.9839  1.5952 -0.3309
   69MOL   H55845574   0.619   3.829   1.315 -3.1307 -0.2004 -0.5949
   69MOL   H55945575   0.517   3.818   1.169 -0.5071 -1.3062  0.4205
   69MOL   H56045576   0.706   3.995   1.141  0.6165 -0.1021 -1.5828
   69MOL   H56145577   0.821   3.869   1.189 -0.2831  0.6068  0.6384
   69MOL   H56245578   0.734   3.854   1.035  1.4302  0.2244 -0.3591
   69MOL   C56345579   1.104   3.006   1.109  0.2332 -0.0916 -0.3367
   69MOL   C56445580   1.229   3.062   1.030 -0.3198 -0.6734  0.5074
   69MOL   C56545581   1.226   3.221   1.014 -0.7143  0.4869  0.0624
   69MOL   C56645582   1.368   3.277   1.044 -0.0656  0.3985 -0.1860
   69MOL   C56745583   1.360   3.432   1.013 -0.2352 -0.3593  0.9788
   69MOL   C56845584   1.497   3.485   1.055 -0.3366  0.0702  0.2928
   69MOL   C56945585   1.509   3.638   1.047  0.6639 -0.1373 -0.2283
   69MOL   C57045586   1.643   3.687   1.025 -0.4090  0.1722 -0.3088
   69MOL   C57145587   1.687   3.830   1.054 -0.0564 -0.3818  0.3607
   69MOL   C57245588   1.835   3.869   1.025  0.6626  0.0546  0.6844
   69MOL   C57345589   1.859   4.009   1.072 -0.1603  0.0902  0.1295
   69MOL   H57445590   1.022   3.053   1.055  0.8364  0.7506 -0.5469
   69MOL   H57545591   1.083   2.900   1.102 -1.5574  0.3369 -1.7399
   69MOL   H57645592   1.318   3.030   1.083  1.4296  2.0727 -0.6589
   69MOL   H57745593   1.157   3.276   1.079  0.9173 -0.8477  3.0190
   69MOL   H57845594   1.191   3.244   0.913  1.1552  0.1763 -0.6913
   69MOL   H57945595   1.442   3.222   0.986  0.0144  0.3530 -0.0406
   69MOL   H58045596   1.394   3.271   1.150 -3.2133  0.2459  0.6513
   69MOL   H58145597   1.283   3.498   1.054  1.8761  1.9204  1.4144
   69MOL   H58245598   1.332   3.443   0.908 -1.1138 -1.8198  1.0427
   69MOL   H58345599   1.521   3.456   1.157 -1.3237  2.1342  1.1281
   69MOL   H58445600   1.579   3.441   0.997 -0.6788  1.4699 -1.3179
   69MOL   H58545601   1.451   3.672   0.961 -0.9638 -3.1252 -0.3651
   69MOL   H58645602   1.469   3.668   1.145  3.1782  2.3333  0.1146
   69MOL   H58745603   1.664   3.650   0.925 -0.8327  1.7140 -0.9966
   69MOL   H58845604   1.703   3.634   1.098  0.3196  1.2487 -0.1258
   69MOL   H58945605   1.665   3.864   1.156  1.2150  1.2996  0.0974
   69MOL   H59045606   1.628   3.897   0.992 -0.1929 -0.6409  0.2110
   69MOL   H59145607   1.844   3.863   0.916 -2.1442 -1.0023  0.4776
   69MOL   H59245608   1.897   3.790   1.067 -0.2912 -2.0284 -1.6698
   69MOL   H59345609   1.846   4.082   0.993 -1.9988 -2.1474 -1.6949
   69MOL   H59445610   1.795   4.040   1.155 -0.8456  0.9361 -0.7157
   69MOL   H59545611   1.960   4.022   1.112  1.9753  0.6401 -5.1074
   69MOL   C59645612   1.240   3.000   0.895 -0.6581 -1.1086  0.0346
   69MOL   C59745613   1.293   2.849   0.886 -0.1005  0.0799  0.4854
   69MOL   C59845614   1.450   2.850   0.903  0.1840 -0.0800 -0.1904
   69MOL   C59945615   1.527   2.711   0.919  0.0997 -0.2604  0.1327
   69MOL   C60045616   1.487   2.632   1.040 -0.5198 -1.1480  0.6367
   69MOL   C60145617   1.564   2.495   1.040  0.5903 -0.0292 -0.1307
   69MOL   C60245618   1.509   2.388   1.135  0.2599  0.1043  0.0057
   69MOL   C60345619   1.606   2.272   1.176 -0.2157  0.0170 -1.0439
   69MOL   C60445620   1.655   2.203   1.052  0.1249 -0.3719 -0.1356
   69MOL   C60545621   1.762   2.097   1.074  0.2554  0.4009  0.5422
   69MOL   C60645622   1.704   1.970   1.141  0.6768 -0.0260 -1.1225
   69MOL   H60745623   1.143   3.005   0.845 -1.2271 -0.1366  1.2081
   69MOL   H60845624   1.304   3.061   0.831 -0.3623 -0.5524  0.8613
   69MOL   H60945625   1.256   2.792   0.971 -0.4605 -0.8084 -0.2564
   69MOL   H61045626   1.472   2.910   0.992  0.6468 -0.9203  0.2657
   69MOL   H61145627   1.480   2.910   0.818 -1.2374  0.8271 -0.0881
   69MOL   H61245628   1.635   2.722   0.918  0.1506 -0.6716  0.9148
   69MOL   H61345629   1.512   2.650   0.830 -1.6285 -0.6886  0.6868
   69MOL   H61445630   1.381   2.608   1.045 -0.7647  0.1648  2.0559
   69MOL   H61545631   1.516   2.685   1.131 -1.3131  1.8164 -0.7626
   69MOL   H61645632   1.563   2.460   0.937 -0.3449  1.1567 -0.5386
   69MOL   H61745633   1.668   2.518   1.063  0.9355 -0.9540 -0.6876
   69MOL   H61845634   1.419   2.353   1.084  0.0135 -0.2522  0.6823
   69MOL   H61945635   1.487   2.441   1.228 -0.1295 -0.4786  0.2491
   69MOL   H62045636   1.560   2.198   1.243 -3.3700  0.0276 -3.1144
   69MOL   H62145637   1.686   2.316   1.236 -1.2744 -2.0085  2.0252
   69MOL   H62245638   1.574   2.158   0.995  0.6204  1.7180 -2.5854
   69MOL   H62345639   1.692   2.263   0.969  1.2734 -3.1871 -1.7236
   69MOL   H62445640   1.853   2.129   1.126  1.2142  0.9088 -1.4014
   69MOL   H62545641   1.804   2.080   0.974 -1.3081  3.6385 -0.7069
   69MOL   H62645642   1.697   1.988   1.248 -0.3258 -0.8122 -1.0490
   69MOL   H62745643   1.610   1.946   1.091  0.7855 -2.2830 -0.2983
   69MOL   H62845644   1.781   1.892   1.140 -0.2012 -0.9364  0.5622
   69MOL   C62945645   1.253   2.765   0.759  0.4149  0.6791 -0.8327
   69MOL   C63045646   1.239   2.619   0.790 -0.4858 -0.3731 -0.0794
   69MOL   C63145647   1.165   2.554   0.671 -0.5497 -0.0333  0.0572
   69MOL   C63245648   1.129   2.401   0.698  0.1371 -0.2970  0.1055
   69MOL   C63345649   1.033   2.354   0.585  0.1981 -0.1094  0.8588
   69MOL   C63445650   1.091   2.311   0.457  0.1838 -0.7222 -0.2077
   69MOL   C63545651   0.982   2.273   0.356  0.0762  0.4087 -0.2519
   69MOL   C63645652   1.020   2.260   0.210  0.7132  0.0605  0.2286
   69MOL   C63745653   0.896   2.247   0.118 -0.0962  0.5613  0.2389
   69MOL   C63845654   0.939   2.250   7.674  0.0995  0.3215  0.3445
   69MOL   C63945655   0.815   2.251   7.587  0.9326 -0.2517 -0.5463
   69MOL   H64045656   1.162   2.814   0.726 -0.9609 -0.1264  1.6407
   69MOL   H64145657   1.330   2.775   0.683  1.5125  0.2998  0.1938
   69MOL   H64245658   1.327   2.559   0.812 -0.5992 -0.2461  0.7085
   69MOL   H64345659   1.072   2.610   0.665 -0.6470  0.0075  1.5721
   69MOL   H64445660   1.222   2.559   0.578 -1.9772 -0.1251 -0.8282
   69MOL   H64545661   1.070   2.402   0.790  1.1142 -2.4282  0.7953
   69MOL   H64645662   1.213   2.335   0.723  0.6543 -0.5934 -2.2567
   69MOL   H64745663   0.967   2.437   0.561 -1.0818 -1.2067  0.5440
   69MOL   H64845664   0.963   2.277   0.617  0.5342 -1.0966 -0.7466
   69MOL   H64945665   1.153   2.223   0.472 -0.6225 -1.2536  0.0274
   69MOL   H65045666   1.159   2.388   0.419 -0.2850  0.3550  1.0709
   69MOL   H65145667   0.908   2.352   0.366 -1.4800 -1.1064  0.4238
   69MOL   H65245668   0.927   2.185   0.389 -2.0832  2.3301  1.3779
   69MOL   H65345669   1.086   2.175   0.191  1.1313  0.1883  1.1110
   69MOL   H65445670   1.083   2.341   0.173 -1.4617  1.2329 -1.0319
   69MOL   H65545671   0.835   2.333   0.146 -0.7133 -0.4011  1.9519
   69MOL   H65645672   0.846   2.152   0.137  0.9405  0.0095  0.2533
   69MOL   H65745673   1.004   2.165   7.651 -2.2811 -1.1638 -1.1024
   69MOL   H65845674   1.001   2.336   7.649 -0.1478  0.5114  0.3882
   69MOL   H65945675   0.753   2.340   7.595  1.3553 -0.1204  1.5978
   69MOL   H66045676   0.763   2.162   7.622  1.2823  0.1186  0.9496
   69MOL   H66145677   0.836   2.230   7.482  0.6206 -0.2565 -0.6083
   69MOL   H66245678   1.188   2.613   0.886 -1.1527 -0.4419 -0.4371
   70MOL     C145679   7.681   5.749   7.197 -0.3631 -0.6183  0.5217
   70MOL     C245680   7.666   5.832   7.324  0.0111 -0.1864 -0.0749
   70MOL     C345681   0.088   5.926   7.334 -0.3906  0.1052 -0.5822
   70MOL     C445682   0.205   5.839   7.381 -0.4665  0.0821  0.0140
   70MOL     C545683   0.336   5.924   7.400 -0.6812 -0.1043  0.0768
   70MOL     C645684   0.454   5.848   7.454 -0.0897  0.0092  0.0277
   70MOL     C745685   0.587   5.928   7.482 -0.3185 -0.6392  0.4700
   70MOL     C845686   0.680   5.974   7.363 -0.1836  0.0603  0.2255
   70MOL     C945687   0.685   5.861   7.256  0.4226  0.4484 -0.8146
   70MOL    C1045688   0.758   5.735   7.313  0.0403  0.6071 -0.2257
   70MOL    C1145689   0.780   5.626   7.207  0.0608  0.5111 -0.8111
   70MOL    H1245690   7.579   5.723   7.167 -0.9698 -0.4269  2.3776
   70MOL    H1345691   0.047   5.667   7.214 -0.5536 -0.4801  2.0371
   70MOL    H1445692   7.658   5.767   7.411 -0.8076  1.7741  1.3593
   70MOL    H1545693   0.074   5.995   7.417  0.8676  0.1929 -0.4368
   70MOL    H1645694   0.110   5.986   7.246 -0.0792 -0.0801 -0.6343
   70MOL    H1745695   0.213   5.751   7.318  0.7578  0.0797  0.1553
   70MOL    H1845696   0.186   5.796   7.479 -0.2696 -0.1067 -0.0302
   70MOL    H1945697   0.353   5.984   7.311 -0.4728 -0.6469 -0.2526
   70MOL    H2045698   0.307   5.998   7.474  1.1691  0.5813  0.1383
   70MOL    H2145699   0.471   5.757   7.396 -1.7833 -1.0194  1.0685
   70MOL    H2245700   0.413   5.806   7.546  1.9529 -0.1286  0.8951
   70MOL    H2345701   0.562   6.004   7.557 -0.2687  0.4008 -0.5459
   70MOL    H2445702   0.653   5.854   7.525  2.2625  1.1872 -0.2430
   70MOL    H2545703   0.777   5.993   7.409  0.1084 -1.5166  0.2884
   70MOL    H2645704   0.642   6.064   7.315 -0.4483 -0.9411 -1.5165
   70MOL    H2745705   0.727   5.896   7.161 -1.6874 -0.2504 -2.0375
   70MOL    H2845706   0.581   5.840   7.231  0.7108 -2.0090 -0.0620
   70MOL    H2945707   0.711   5.684   7.397  0.9639  0.3263  0.1347
   70MOL    H3045708   0.860   5.760   7.342  0.1819 -1.6339  1.3636
   70MOL    H3145709   0.828   5.665   7.117 -0.6090 -2.1148 -2.3598
   70MOL    H3245710   0.856   5.557   7.245 -0.7085 -0.6526 -1.3515
   70MOL    H3345711   0.689   5.573   7.179 -0.6896  2.2101 -1.6507
   70MOL    H3445712   0.008   5.817   7.117 -0.6318  0.6432  1.4716
   70MOL    C3545713   7.535   5.914   7.312 -0.2734 -0.0586 -0.5580
   70MOL    C3645714   7.401   5.839   7.355 -0.4794 -0.5644 -0.5844
   70MOL    C3745715   7.392   5.804   7.504  0.2059 -0.0906  0.4652
   70MOL    C3845716   7.417   5.922   7.600 -0.0032  0.2775 -0.0134
   70MOL    C3945717   7.403   5.888   0.049  0.3424 -0.0700  0.7358
   70MOL    C4045718   7.487   5.974   0.149 -0.0497  0.2360  0.0209
   70MOL    C4145719   7.469   5.937   0.299 -0.4130  0.4983  0.0873
   70MOL    C4245720   7.569   6.022   0.376 -0.2507  0.1339 -0.1865
   70MOL    C4345721   7.556   5.983   0.524 -0.4323 -0.3682 -0.3654
   70MOL    C4445722   7.650   6.051   0.619  0.2039 -1.0244  0.8903
   70MOL    C4545723   7.622   6.013   0.764 -0.1727  0.1629  0.3399
   70MOL    H4645724   7.525   5.938   7.206  0.2573  0.2063 -0.5457
   70MOL    H4745725   7.543   6.012   7.358  0.4971 -0.1701 -0.4445
   70MOL    H4845726   7.400   5.743   7.303 -2.7890 -0.5967 -0.5336
   70MOL    H4945727   7.288   5.778   7.524 -0.1083  0.9444  0.1998
   70MOL    H5045728   7.445   5.709   7.515 -0.1815 -0.6005 -1.6869
   70MOL    H5145729   7.349   6.001   7.569 -0.6540  0.2912  1.3979
   70MOL    H5245730   7.520   5.951   7.580 -0.0811 -0.0849 -0.9639
   70MOL    H5345731   7.430   5.784   0.070  2.4184 -0.1448 -2.0756
   70MOL    H5445732   7.296   5.884   0.069  0.3471 -0.6822  0.6627
   70MOL    H5545733   7.458   6.079   0.142 -1.7314 -0.3399 -2.0659
   70MOL    H5645734   7.591   5.967   0.115  0.5831  1.3421  1.6654
   70MOL    H5745735   7.369   5.969   0.326 -0.1424  2.6260 -1.3345
   70MOL    H5845736   7.487   5.830   0.316  2.7687  0.6870 -1.5725
   70MOL    H5945737   7.555   6.129   0.359  1.2782  0.5450  1.0328
   70MOL    H6045738   7.667   5.996   0.336  0.2760  0.9552  0.5550
   70MOL    H6145739   7.580   5.877   0.529 -1.5339 -0.6452 -0.7180
   70MOL    H6245740   7.453   5.985   0.560 -0.2076 -1.1059  0.3409
   70MOL    H6345741   0.049   6.029   0.591  0.4700 -0.4753  1.4142
   70MOL    H6445742   7.642   6.160   0.608  1.7958 -1.0208 -0.4414
   70MOL    H6545743   7.524   6.047   0.794 -1.5600 -3.0296 -0.3174
   70MOL    H6645744   7.618   5.906   0.788 -1.8340  0.0818 -0.2792
   70MOL    H6745745   7.694   6.057   0.833  0.0212  0.5731 -0.1216
   70MOL    C6845746   7.279   5.916   7.299  0.1559  0.2596  0.8926
   70MOL    C6945747   7.242   5.867   7.152  0.2259 -0.2169 -0.6102
   70MOL    C7045748   7.141   5.750   7.144  0.4704 -0.5498 -0.5093
   70MOL    C7145749   7.188   5.615   7.203 -0.2340 -0.6587  0.2519
   70MOL    C7245750   7.279   5.545   7.098 -0.0634 -0.2920 -0.6158
   70MOL    C7345751   7.351   5.415   7.134 -0.2453  0.5603 -0.3647
   70MOL    C7445752   7.473   5.388   7.048 -0.1317 -0.0339 -0.0876
   70MOL    C7545753   7.504   5.240   7.054  0.8779 -0.2753 -0.1297
   70MOL    C7645754   7.643   5.204   7.012  0.0691 -0.5656  0.7796
   70MOL    C7745755   7.671   5.054   6.992 -0.0421 -1.2216 -0.7339
   70MOL    C7845756   7.621   4.992   6.858  1.0105 -0.5917 -1.0536
   70MOL    H7945757   7.301   6.023   7.294  0.2597  0.1833 -0.7343
   70MOL    H8045758   7.192   5.896   7.362  0.5925 -0.4665  1.2716
   70MOL    H8145759   7.327   5.833   7.093  1.7308  0.7367  0.9360
   70MOL    H8245760   7.090   5.734   7.049 -0.6559 -3.2254  0.4802
   70MOL    H8345761   7.055   5.785   7.202  0.0165 -1.6661 -0.4953
   70MOL    H8445762   7.242   5.629   7.296  0.5556  1.4339 -0.4964
   70MOL    H8545763   7.101   5.556   7.230  0.0664 -0.8387  0.8191
   70MOL    H8645764   7.354   5.620   7.072  0.5626 -1.6241 -2.8236
   70MOL    H8745765   7.219   5.528   7.008 -1.6262 -1.9996  0.7184
   70MOL    H8845766   7.383   5.422   7.238 -0.6188  0.6198 -0.2543
   70MOL    H8945767   7.282   5.332   7.122 -0.3111  0.6692 -0.7463
   70MOL    H9045768   7.559   5.441   7.088 -0.6279  0.0754  0.8365
   70MOL    H9145769   7.461   5.432   6.949  0.6828 -0.2040 -0.2698
   70MOL    H9245770   7.476   5.197   7.150  1.0659 -0.0114  0.0444
   70MOL    H9345771   7.439   5.195   6.979 -2.1757  0.1672  2.1889
   70MOL    H9445772   7.671   5.277   6.936  0.6685 -0.9544  0.6239
   70MOL    H9545773   0.009   5.230   7.092  0.7322 -1.2629  0.4404
   70MOL    H9645774   0.076   5.041   6.994  0.0225 -1.0576 -2.3487
   70MOL    H9745775   7.614   5.001   7.069 -0.1675  2.9485  2.1786
   70MOL    H9845776   7.660   4.891   6.849  1.1763 -0.2912 -4.0478
   70MOL    H9945777   7.651   5.050   6.771  1.4798  0.6137 -0.0979
   70MOL   H10045778   7.512   4.980   6.858  0.8053  1.0134  0.4163
   70MOL   C10145779   7.179   5.995   7.081 -0.1891 -0.3350  0.0258
   70MOL   C10245780   7.165   5.992   6.927 -0.1500  0.1966 -0.3991
   70MOL   C10345781   7.299   6.009   6.854 -0.7691 -0.2772 -0.9525
   70MOL   C10445782   7.372   6.141   6.857  0.4813  0.5072  0.3009
   70MOL   C10545783   7.505   6.134   6.771 -0.6034 -0.5013  0.3608
   70MOL   C10645784   7.622   6.063   6.829 -1.0202 -0.6213  0.0365
   70MOL   C10745785   0.052   6.131   6.800 -0.0924 -0.1830  0.0806
   70MOL   C10845786   0.175   6.044   6.816  0.9814 -0.5142  0.5050
   70MOL   C10945787   0.284   6.113   6.895 -0.9376 -0.0157 -0.2442
   70MOL   C11045788   0.418   6.032   6.902  0.0574 -0.2614  0.3518
   70MOL   C11145789   0.417   5.905   6.987  0.0623 -0.1583  0.0762
   70MOL   H11245790   7.078   6.011   7.119  0.1311 -1.5398  1.4387
   70MOL   H11345791   7.229   6.091   7.097 -0.5238 -0.2163  0.3725
   70MOL   H11445792   7.120   5.899   6.892  0.4829 -0.2390 -0.0694
   70MOL   H11545793   7.360   5.932   6.902 -0.6553 -0.9314 -2.1085
   70MOL   H11645794   7.280   5.973   6.753 -2.2844  1.7099 -1.3981
   70MOL   H11745795   7.322   6.226   6.811  0.2723  1.1639  1.7313
   70MOL   H11845796   7.388   6.158   6.964 -0.4747  0.5099  0.4477
   70MOL   H11945797   7.486   6.107   6.668 -0.7304 -2.3306  0.8472
   70MOL   H12045798   7.531   6.240   6.765 -3.4414  0.2044 -0.0720
   70MOL   H12145799   7.623   6.062   6.938 -1.2636 -1.5325  0.0425
   70MOL   H12245800   7.627   5.963   6.784  0.2176 -0.4300 -0.2626
   70MOL   H12345801   0.074   6.220   6.859  0.2548 -0.3983  0.2809
   70MOL   H12445802   0.045   6.162   6.696 -1.9905 -3.0021 -0.6987
   70MOL   H12545803   0.147   5.960   6.880 -1.1725  0.6090  1.0789
   70MOL   H12645804   0.219   6.014   6.720 -1.7606 -0.9394 -0.6739
   70MOL   H12745805   0.311   6.210   6.852 -0.4546 -1.3713 -3.1493
   70MOL   H12845806   0.249   6.134   6.996 -0.7916 -2.4996  0.3573
   70MOL   H12945807   0.494   6.091   6.952  0.5706 -0.2346 -0.4496
   70MOL   H13045808   0.430   5.992   6.801 -0.0452 -1.0087  0.6338
   70MOL   H13145809   0.385   5.909   7.092  0.2888 -0.1569  0.1442
   70MOL   H13245810   0.336   5.851   6.939  0.0524  0.0848 -0.1850
   70MOL   H13345811   0.511   5.852   6.973 -0.6393 -0.7590 -2.5511
   70MOL   C13445812   7.067   6.100   6.874  0.2578  0.0240 -0.6406
   70MOL   C13545813   6.913   6.078   6.899 -0.4288  0.1455 -0.1040
   70MOL   C13645814   6.850   5.957   6.828  0.0775  0.1708 -0.2596
   70MOL   C13745815   6.709   5.925   6.869  0.4582  0.0287  0.2849
   70MOL   C13845816   6.664   5.774   6.861 -0.5875 -0.3929  0.6932
   70MOL   C13945817   6.511   5.758   6.891  0.2091 -0.4805 -0.1687
   70MOL   C14045818   6.468   5.815   7.022  0.4658 -0.0126  0.8842
   70MOL   C14145819   6.533   5.744   7.142 -0.2117  0.7061 -0.1267
   70MOL   C14245820   6.490   5.781   7.287  0.0209 -0.6119  0.0283
   70MOL   C14345821   6.548   5.909   7.344  0.5196  0.0804 -0.4232
   70MOL   C14445822   6.531   5.908   7.496  1.0023 -0.5412  0.1479
   70MOL   H14545823   7.097   6.193   6.923  0.2983 -1.6900  2.7612
   70MOL   H14645824   7.108   6.112   6.774  0.5502  0.3094 -0.4890
   70MOL   H14745825   6.887   6.070   7.005 -0.8430  3.1274  0.0512
   70MOL   H14845826   6.914   5.877   6.865 -2.2575 -2.0214 -0.8014
   70MOL   H14945827   6.883   5.949   6.724  1.7269 -0.3044  0.2816
   70MOL   H15045828   6.693   5.957   6.972 -1.0343  0.7591 -0.1614
   70MOL   H15145829   6.644   5.992   6.813 -1.2271  0.1953  2.3555
   70MOL   H15245830   6.669   5.722   6.765 -0.3785  1.3403 -0.2656
   70MOL   H15345831   6.725   5.711   6.924  2.6970  2.2381  0.2786
   70MOL   H15445832   6.463   5.800   6.803 -1.3306  1.0904  1.3912
   70MOL   H15545833   6.493   5.652   6.875  0.0831 -0.7823  1.9307
   70MOL   H15645834   6.470   5.924   7.022 -3.2381  0.1343  0.8770
   70MOL   H15745835   6.361   5.792   7.025  0.6442 -0.8066  1.2149
   70MOL   H15845836   6.510   5.641   7.117  0.0676  1.1530 -2.3981
   70MOL   H15945837   6.641   5.735   7.132 -0.2895 -1.7500  0.9318
   70MOL   H16045838   6.382   5.780   7.298 -0.1299 -1.6581 -1.4435
   70MOL   H16145839   6.525   5.695   7.343 -0.4814 -1.7807 -1.4451
   70MOL   H16245840   6.652   5.920   7.311  0.2558 -0.0027 -1.3083
   70MOL   H16345841   6.495   5.996   7.305 -1.4327 -0.4663  0.9710
   70MOL   H16445842   6.433   5.882   7.537  0.1655  0.3477 -1.2302
   70MOL   H16545843   6.557   6.002   7.545 -0.1790  0.4264 -1.0282
   70MOL   H16645844   6.593   5.834   7.545  1.0339 -1.6535 -1.5149
   70MOL   C16745845   6.840   6.211   6.862  0.1254 -0.2712 -0.5371
   70MOL   C16845846   6.871   6.323   6.966  0.0893 -0.6830  0.0106
   70MOL   C16945847   6.754   6.332   7.074  0.1558  0.1678  0.1064
   70MOL   C17045848   6.750   6.224   7.181  0.1060 -0.1000 -0.2121
   70MOL   C17145849   6.869   6.227   7.276  0.0538  0.2365  0.8996
   70MOL   C17245850   6.857   6.108   7.362  0.2173  0.9899  0.3055
   70MOL   C17345851   6.972   6.098   7.458 -0.1004  0.0753 -0.4846
   70MOL   C17445852   6.980   6.210   7.562 -0.5250  0.6132  0.1944
   70MOL   C17545853   7.080   6.179   7.677 -0.0601  0.0513 -0.1162
   70MOL   C17645854   7.099   6.287   0.076 -0.1167 -0.3684 -0.4511
   70MOL   C17745855   7.245   6.288   0.139  0.7847  0.2784  0.1524
   70MOL   H17845856   6.861   6.238   6.758 -0.4576  2.7768  0.0937
   70MOL   H17945857   6.732   6.199   6.862  0.0438  0.4351  0.1437
   70MOL   H18045858   6.962   6.313   7.026  1.3858 -2.7395 -2.1992
   70MOL   H18145859   6.656   6.340   7.026 -0.2908  1.6472  1.2238
   70MOL   H18245860   6.758   6.426   7.129 -0.0402 -0.4637  1.2261
   70MOL   H18345861   6.663   6.252   7.240  0.5301  0.0805  0.3314
   70MOL   H18445862   6.724   6.126   7.140 -1.8924 -0.0307  0.8304
   70MOL   H18545863   6.873   6.310   7.346 -3.3697 -1.0485  2.7093
   70MOL   H18645864   6.963   6.223   7.220  0.6357  0.0794  1.8822
   70MOL   H18745865   6.768   6.111   7.425  0.0432 -0.8742  0.1717
   70MOL   H18845866   6.848   6.018   7.302  0.5952  0.7858  0.5558
   70MOL   H18945867   7.057   6.100   7.390  0.3597 -0.9211  0.0488
   70MOL   H19045868   6.969   5.995   7.493 -0.5848 -0.8594 -3.1044
   70MOL   H19145869   7.005   6.299   7.504  0.9738  0.1770  0.1342
   70MOL   H19245870   6.887   6.238   7.610 -0.9907  1.1913 -1.0514
   70MOL   H19345871   7.180   6.160   7.640  0.0041  0.8450 -0.3638
   70MOL   H19445872   7.053   6.081   0.013 -0.6054 -0.3977 -1.5662
   70MOL   H19545873   7.021   6.304   0.151  1.0348 -1.0236  0.9118
   70MOL   H19645874   7.099   6.376   0.012  0.3101 -0.5691 -0.7322
   70MOL   H19745875   7.259   6.370   0.209  0.2655 -0.0115  0.5897
   70MOL   H19845876   7.308   6.301   0.050  1.7615  1.6424  1.0241
   70MOL   H19945877   7.257   6.194   0.192  0.9197  0.3042  0.1673
   70MOL   C20045878   6.889   6.460   6.895  0.4929 -0.3926 -0.2899
   70MOL   C20145879   7.020   6.476   6.815 -0.0587 -0.6448 -0.0035
   70MOL   C20245880   7.141   6.520   6.914  0.2319 -0.5090 -0.4472
   70MOL   C20345881   7.275   6.523   6.843 -0.1257 -0.1177 -0.0479
   70MOL   C20445882   7.397   6.505   6.938 -0.1136  0.0409  0.7051
   70MOL   C20545883   7.529   6.529   6.868  0.0156 -0.0230 -0.0074
   70MOL   C20645884   7.656   6.495   6.953 -0.3159  0.6423 -0.1084
   70MOL   C20745885   0.086   6.513   6.884  0.1189  0.0179  0.2634
   70MOL   C20845886   0.206   6.510   6.983  0.4072  0.2617 -0.2451
   70MOL   C20945887   0.345   6.529   6.917  0.1578  0.5859  0.0575
   70MOL   C21045888   0.375   6.669   6.891 -0.2903 -0.3288 -0.6354
   70MOL   H21145889   6.792   6.474   6.847 -1.8662 -2.1236  3.6934
   70MOL   H21245890   6.893   6.544   6.965 -0.8793  0.0152 -0.6873
   70MOL   H21345891   7.051   6.378   6.779  0.5130  0.0494 -1.4184
   70MOL   H21445892   7.137   6.453   7.000  2.1919  1.9705  1.6497
   70MOL   H21545893   7.122   6.616   6.961  0.3747 -1.3338  1.3384
   70MOL   H21645894   7.282   6.620   6.793  0.2238  1.2277  2.5646
   70MOL   H21745895   7.286   6.438   6.775  1.1254  0.4009 -0.5154
   70MOL   H21845896   7.382   6.408   6.986 -0.4128 -0.2359  0.0585
   70MOL   H21945897   7.378   6.575   7.019 -0.4247  1.1311 -0.2961
   70MOL   H22045898   7.532   6.482   6.770 -1.8947 -0.4540  0.1190
   70MOL   H22145899   7.534   6.631   6.832  1.1997 -0.4359 -1.0466
   70MOL   H22245900   7.654   6.392   6.988  1.5052  0.5771 -0.1663
   70MOL   H22345901   7.646   6.556   7.043 -2.2290  2.9800 -1.8379
   70MOL   H22445902   0.080   6.618   6.853  0.0602 -0.3130 -0.8477
   70MOL   H22545903   0.101   6.446   6.800  0.2391 -1.6720  1.6123
   70MOL   H22645904   0.208   6.409   7.024  2.1682  0.8533  1.1428
   70MOL   H22745905   0.196   6.580   7.066  0.5155 -0.7187  0.6165
   70MOL   H22845906   0.424   6.475   6.969 -1.1825  0.3578  1.9055
   70MOL   H22945907   0.352   6.486   6.817 -1.7320  2.9017 -1.1019
   70MOL   H23045908   0.300   6.703   6.818  0.7298  0.5172 -1.3085
   70MOL   H23145909   0.472   6.673   6.842  0.6926 -0.3510  1.2625
   70MOL   H23245910   0.384   6.732   6.980  2.6234 -0.5339 -0.7336
   70MOL   C23345911   7.016   6.558   6.682  0.0417 -0.0996 -0.6742
   70MOL   C23445912   6.942   6.494   6.564  0.6941  0.2047  0.1692
   70MOL   C23545913   7.039   6.465   6.450  0.5351  0.2670  0.4732
   70MOL   C23645914   7.142   6.350   6.460 -1.0674  1.1525 -0.1490
   70MOL   C23745915   7.091   6.205   6.446  0.2398 -0.5357  0.5954
   70MOL   C23845916   7.203   6.094   6.453 -0.1463 -0.2665 -0.4690
   70MOL   C23945917   7.281   6.074   6.319  0.0718 -0.1930 -0.0284
   70MOL   C24045918   7.297   5.931   6.278 -0.0634  0.2766  0.0857
   70MOL   C24145919   7.383   5.925   6.146 -0.2379 -0.2161  0.7050
   70MOL   C24245920   7.388   5.779   6.106 -0.0653  0.2884 -0.9429
   70MOL   C24345921   7.453   5.744   5.974  0.0328  0.1375  0.4556
   70MOL   H24445922   7.118   6.577   6.648  0.1813  1.6097  0.6553
   70MOL   H24545923   6.973   6.656   6.702 -1.1429 -0.6163 -0.6343
   70MOL   H24645924   6.894   6.401   6.592  1.4497 -0.0348  0.7015
   70MOL   H24745925   6.979   6.454   6.360  2.6986  1.2344 -1.1347
   70MOL   H24845926   7.095   6.557   6.433  1.1056 -0.2838 -0.6742
   70MOL   H24945927   7.199   6.346   6.553 -0.6137 -1.4301 -0.4847
   70MOL   H25045928   7.209   6.359   6.374  1.1691  0.4346  1.4677
   70MOL   H25145929   7.033   6.187   6.355 -0.0386  1.8099  0.2767
   70MOL   H25245930   7.017   6.186   6.524 -0.4122 -2.7498 -0.5128
   70MOL   H25345931   7.165   6.001   6.494 -0.7749 -0.3409 -1.2193
   70MOL   H25445932   7.263   6.133   6.536 -0.6222  0.1610 -0.3192
   70MOL   H25545933   7.240   6.133   6.238  0.4277  0.1783  0.0585
   70MOL   H25645934   7.380   6.120   6.322  0.7261 -1.5791 -0.2062
   70MOL   H25745935   7.356   5.870   6.347 -1.4421 -1.2103 -0.0298
   70MOL   H25845936   7.202   5.881   6.267 -0.1364  0.4578 -0.1062
   70MOL   H25945937   7.330   5.984   6.072  2.3554 -0.1624 -1.1755
   70MOL   H26045938   7.488   5.954   6.160  0.3341 -2.0212  0.3219
   70MOL   H26145939   7.291   5.729   6.109 -0.3341  0.7648 -1.6576
   70MOL   H26245940   7.440   5.730   6.188  0.8065  1.5201 -0.7469
   70MOL   H26345941   7.434   5.642   5.940  0.8612  0.3468 -0.6661
   70MOL   H26445942   7.559   5.754   5.994  0.2495 -1.4621  0.1545
   70MOL   H26545943   7.423   5.811   5.893  2.3439 -1.8961 -2.2067
   70MOL   C26645944   6.828   6.591   6.517  0.4209  0.5053 -0.2806
   70MOL   C26745945   6.707   6.531   6.437  0.0102  0.1499 -0.3214
   70MOL   C26845946   6.633   6.645   6.369  0.3775 -0.6501  0.6278
   70MOL   C26945947   6.700   6.677   6.231  0.4575 -0.0791  0.0038
   70MOL   C27045948   6.661   6.814   6.174 -0.2418 -0.3612  0.8738
   70MOL   C27145949   6.729   6.839   6.041  0.1999 -0.6049 -0.2009
   70MOL   C27245950   6.659   6.941   5.952  0.6230  1.0342  0.3468
   70MOL   C27345951   6.654   7.080   6.016  0.3865  0.1391 -0.2404
   70MOL   C27445952   6.593   7.178   5.919  0.2892  0.5123 -0.1762
   70MOL   C27545953   6.561   7.311   5.986  0.2451  0.0905  0.0044
   70MOL   C27645954   6.508   7.422   5.891  0.5604 -0.4272 -0.1733
   70MOL   H27745955   6.870   6.676   6.463  1.2705  0.6054  0.5264
   70MOL   H27845956   6.780   6.625   6.609  1.2997 -1.4903  0.9383
   70MOL   H27945957   6.739   6.472   6.350  1.4980  1.2882 -0.5792
   70MOL   H28045958   6.527   6.627   6.350  0.4129  1.1161 -1.3508
   70MOL   H28145959   6.641   6.732   6.433 -1.4430 -0.6696  0.9073
   70MOL   H28245960   6.675   6.592   6.168 -0.4772 -0.8142  1.3542
   70MOL   H28345961   6.809   6.673   6.241  0.1863 -1.0997  3.1327
   70MOL   H28445962   6.713   6.884   6.240  0.3051  2.9066 -2.8574
   70MOL   H28545963   6.554   6.837   6.176 -0.4440 -0.8704 -2.1995
   70MOL   H28645964   6.742   6.750   5.980  1.6238 -1.1657  0.8979
   70MOL   H28745965   6.835   6.859   6.052  0.1497 -0.8368  0.6889
   70MOL   H28845966   6.712   6.938   5.857 -0.8964  3.8906 -0.6727
   70MOL   H28945967   6.559   6.902   5.933  2.4786 -3.4344 -0.8332
   70MOL   H29045968   6.758   7.096   6.043  0.1054  1.5599  0.0176
   70MOL   H29145969   6.596   7.087   6.108  1.9249  1.8552  0.6199
   70MOL   H29245970   6.680   7.204   5.859  1.3106 -0.6138  0.7864
   70MOL   H29345971   6.512   7.136   5.859 -0.0250  2.0193 -0.8219
   70MOL   H29445972   6.651   7.350   6.034 -0.9176  0.5088  1.8597
   70MOL   H29545973   6.492   7.296   6.068  2.8595 -0.8616  2.0960
   70MOL   H29645974   6.490   7.509   5.955 -0.3497 -0.0250 -0.9420
   70MOL   H29745975   6.411   7.408   5.842  0.1102  0.5501  0.4165
   70MOL   H29845976   6.580   7.446   5.813 -1.7613  0.1787 -2.2162
   70MOL   C29945977   6.607   6.448   6.522  0.7786  0.4137 -0.0118
   70MOL   C30045978   6.547   6.322   6.446  0.2617  0.0467 -1.0016
   70MOL   C30145979   6.406   6.292   6.499 -0.0624  0.0372  0.3244
   70MOL   C30245980   6.416   6.223   6.638  0.4113 -0.7531  0.6705
   70MOL   C30345981   6.279   6.197   6.704  0.2774  0.2932  0.3595
   70MOL   C30445982   6.288   6.162   6.854 -0.1085 -0.9948  0.6792
   70MOL   C30545983   6.323   6.282   6.944  0.0178 -0.2191  0.2525
   70MOL   C30645984   6.306   6.255   7.092 -0.4103  0.4004  0.2770
   70MOL   C30745985   6.386   6.350   7.188 -0.1267 -0.4233  0.5262
   70MOL   C30845986   6.372   6.316   7.341 -0.1176 -0.4424  0.6501
   70MOL   C30945987   6.482   6.377   7.430  0.4938  0.2972  0.0004
   70MOL   H31045988   6.534   6.515   6.567  1.0403 -0.1167  1.2158
   70MOL   H31145989   6.660   6.408   6.608 -2.4722 -2.3867  0.8299
   70MOL   H31245990   6.529   6.359   6.345  1.2653 -1.1732 -1.6495
   70MOL   H31345991   6.348   6.384   6.503  0.5019  0.4366 -0.4272
   70MOL   H31445992   6.346   6.237   6.427 -0.5934 -0.7394  1.3506
   70MOL   H31545993   6.470   6.130   6.621 -1.1886 -1.6762  0.5444
   70MOL   H31645994   6.482   6.281   6.702  1.5167  0.5237 -1.5563
   70MOL   H31745995   6.232   6.292   6.681 -1.0058 -0.4183  0.0480
   70MOL   H31845996   6.229   6.109   6.663 -0.8392  1.3079 -0.4792
   70MOL   H31945997   6.365   6.086   6.867 -0.8744 -2.0415 -0.7016
   70MOL   H32045998   6.195   6.115   6.884 -1.0712  0.0139 -0.6288
   70MOL   H32145999   6.428   6.309   6.933  0.6388 -2.0061  1.5376
   70MOL   H32246000   6.275   6.376   6.917 -1.8234 -0.8702  1.1223
   70MOL   H32346001   6.334   6.151   7.107 -1.3162  0.2006  0.6146
   70MOL   H32446002   6.201   6.269   7.114 -0.3140  1.1860  0.2462
   70MOL   H32546003   6.360   6.454   7.170 -0.9414 -1.0171 -1.9100
   70MOL   H32646004   6.491   6.337   7.164  0.4891  1.1675  2.2582
   70MOL   H32746005   6.366   6.207   7.345  0.3622 -0.5083 -0.4040
   70MOL   H32846006   6.277   6.357   7.376 -0.1178 -1.5378  1.9656
   70MOL   H32946007   6.495   6.480   7.397  0.4694 -0.1123 -1.3327
   70MOL   H33046008   6.438   6.383   7.529  0.7299  1.0636  0.0642
   70MOL   H33146009   6.580   6.330   7.424  0.7145  0.6343  0.8810
   70MOL   C33246010   6.656   6.207   6.436 -0.5526  0.0674 -0.1179
   70MOL   C33346011   6.640   6.102   6.326  0.1758  0.0307 -0.5185
   70MOL   C33446012   6.608   6.150   6.185  0.9991  0.4779 -0.6999
   70MOL   C33546013   6.722   6.226   6.120 -0.9706  0.2173  0.5408
   70MOL   C33646014   6.710   6.220   5.961  0.5046  0.3335 -0.3539
   70MOL   C33746015   6.843   6.258   5.894 -0.2107  0.6499  0.2329
   70MOL   C33846016   6.843   6.245   5.739  0.7343  0.0707 -0.4646
   70MOL   C33946017   6.987   6.261   5.687 -0.1446 -0.5177  1.1604
   70MOL   C34046018   6.987   6.252   5.531  0.3992  0.0157 -0.0016
   70MOL   C34146019   7.135   6.227   5.484 -0.3373  0.0248 -0.3762
   70MOL   C34246020   7.237   6.339   5.499 -0.8448 -1.5152 -0.2963
   70MOL   H34346021   6.754   6.250   6.420  0.1072 -0.3460  2.6728
   70MOL   H34446022   6.667   6.158   6.532  2.3158  1.7296  0.4572
   70MOL   H34546023   6.739   6.057   6.317  0.6109  1.1146 -1.2391
   70MOL   H34646024   6.522   6.216   6.179  0.5496 -0.1726 -1.5532
   70MOL   H34746025   6.586   6.065   6.121  1.8017 -0.2869  0.0293
   70MOL   H34846026   6.732   6.327   6.161 -1.5006  0.4963 -0.0108
   70MOL   H34946027   6.803   6.159   6.150 -1.8730 -1.6002 -1.0041
   70MOL   H35046028   6.685   6.120   5.927 -0.9566  0.8004 -0.6853
   70MOL   H35146029   6.625   6.285   5.939 -1.5473 -1.9539  0.6321
   70MOL   H35246030   6.927   6.208   5.942 -0.2952 -0.1494 -0.4385
   70MOL   H35346031   6.852   6.366   5.906 -0.0606  0.4533  2.0338
   70MOL   H35446032   6.762   6.303   5.694 -0.0672  1.0576  2.1589
   70MOL   H35546033   6.818   6.141   5.717  0.8751  0.2967 -1.7430
   70MOL   H35646034   7.034   6.352   5.724  0.4811 -0.0428 -0.7613
   70MOL   H35746035   7.046   6.182   5.734  0.7932 -0.5982 -0.1313
   70MOL   H35846036   6.950   6.350   5.500 -1.2249  0.4041  3.0098
   70MOL   H35946037   6.924   6.171   5.494 -2.9317  2.7198 -0.5415
   70MOL   H36046038   7.137   6.200   5.378 -1.7535 -1.4319 -0.0555
   70MOL   H36146039   7.183   6.137   5.521 -0.7174  0.4937  1.2793
   70MOL   H36246040   7.194   6.422   5.444  0.7851  0.4924  1.3666
   70MOL   H36346041   7.247   6.374   5.602 -0.9227 -1.5112 -0.2906
   70MOL   H36446042   7.340   6.316   5.470  0.6009  0.5106  2.8645
   70MOL   C36546043   6.534   5.995   6.372 -0.3266 -0.2250 -0.1750
   70MOL   C36646044   6.598   5.855   6.353  0.0853 -0.6396 -0.2149
   70MOL   C36746045   6.691   5.831   6.474 -0.3414 -0.3148  0.3067
   70MOL   C36846046   6.788   5.713   6.454  0.2868  0.4992 -0.2400
   70MOL   C36946047   6.920   5.724   6.539 -1.7993 -0.1432 -0.2002
   70MOL   C37046048   7.025   5.614   6.512  0.6807  0.0836  0.3883
   70MOL   C37146049   7.152   5.634   6.590  0.2618  0.0071 -0.3224
   70MOL   C37246050   7.256   5.523   6.582 -0.3291  0.0857 -0.4389
   70MOL   C37346051   7.388   5.565   6.511 -0.5521  0.1757  0.8778
   70MOL   C37446052   7.461   5.678   6.580 -0.2013 -0.1646  0.4003
   70MOL   C37546053   7.518   5.660   6.724 -0.3593  0.5956 -0.2340
   70MOL   H37646054   6.495   6.002   6.473 -2.9036 -1.6917 -1.0337
   70MOL   H37746055   6.442   5.993   6.315 -0.2070 -0.3747 -0.3645
   70MOL   H37846056   6.665   5.850   6.267 -0.4178 -0.7779 -0.6040
   70MOL   H37946057   6.631   5.813   6.563  1.2658  0.6801  1.6249
   70MOL   H38046058   6.749   5.921   6.493 -0.1387 -0.0411 -1.4820
   70MOL   H38146059   6.820   5.705   6.350  0.7844  2.0553 -0.2108
   70MOL   H38246060   6.752   5.610   6.458  1.5084  0.0945  0.4445
   70MOL   H38346061   6.906   5.717   6.647  0.1216 -1.3997  0.0030
   70MOL   H38446062   6.968   5.820   6.523 -0.3437 -0.8103  0.0547
   70MOL   H38546063   7.060   5.602   6.409  0.8913  0.9624  0.3596
   70MOL   H38646064   6.983   5.521   6.549  0.4959 -0.1785 -0.4573
   70MOL   H38746065   7.194   5.726   6.550 -2.2144  0.9764 -0.7189
   70MOL   H38846066   7.126   5.642   6.696  2.5199  0.9287  0.2100
   70MOL   H38946067   7.215   5.431   6.538 -0.3800 -0.2669  0.3414
   70MOL   H39046068   7.287   5.496   6.683  0.7285  0.9601 -0.5257
   70MOL   H39146069   7.459   5.483   6.516 -0.5801  0.0659 -0.3965
   70MOL   H39246070   7.364   5.583   6.406 -0.9261  1.0834  1.1082
   70MOL   H39346071   7.550   5.703   6.523  0.7517 -0.8040  1.5871
   70MOL   H39446072   7.414   5.775   6.568  0.7750  0.2000 -0.4823
   70MOL   H39546073   7.445   5.691   6.799 -0.3176 -1.5042  0.7026
   70MOL   H39646074   7.605   5.722   6.746 -1.4903  2.1093  0.0645
   70MOL   H39746075   7.541   5.554   6.738 -3.4385 -0.0907 -0.1936
   70MOL   C39846076   6.489   5.746   6.350  0.8386 -0.0940 -0.1955
   70MOL   C39946077   6.400   5.739   6.220 -0.2282 -0.5961 -1.1309
   70MOL   C40046078   6.272   5.658   6.241 -0.4162  0.8281 -0.1995
   70MOL   C40146079   6.154   5.753   6.281  0.0817  0.8910 -0.2342
   70MOL   C40246080   6.023   5.676   6.294 -0.5148  0.4638 -0.6538
   70MOL   C40346081   5.906   5.771   6.315 -0.0807 -0.0722  0.1839
   70MOL   C40446082   5.780   5.685   6.343 -0.4563 -0.5618  0.2371
   70MOL   C40546083   5.655   5.767   6.365  0.4038 -0.3869  0.3726
   70MOL   C40646084   5.537   5.684   6.406  0.1780 -0.8009 -0.4454
   70MOL   C40746085   5.408   5.774   6.411  0.7034 -0.1702  0.4743
   70MOL   C40846086   5.289   5.694   6.460  0.6429 -0.0629 -0.3437
   70MOL   H40946087   6.413   5.768   6.425  0.7744 -0.7397 -0.0772
   70MOL   H41046088   6.535   5.651   6.376  0.3721 -0.1708  0.3531
   70MOL   H41146089   6.368   5.842   6.200 -1.7263 -1.3041 -2.5931
   70MOL   H41246090   6.288   5.581   6.317 -1.4818 -0.7001 -1.4668
   70MOL   H41346091   6.242   5.609   6.148 -2.1334  0.3241  0.5990
   70MOL   H41446092   6.168   5.799   6.379 -1.8715  1.1948 -0.0735
   70MOL   H41546093   6.142   5.831   6.207  2.5342 -0.2845 -1.9375
   70MOL   H41646094   6.011   5.606   6.211  1.0592  0.2430 -0.7195
   70MOL   H41746095   6.048   5.617   6.382 -0.8983 -0.5620 -1.2270
   70MOL   H41846096   5.907   5.828   6.222  2.3996 -2.8057 -1.5723
   70MOL   H41946097   5.930   5.840   6.395 -0.1134 -0.1645  0.2722
   70MOL   H42046098   5.776   5.626   6.252 -0.7751 -1.2550  0.6983
   70MOL   H42146099   5.786   5.627   6.435 -2.5646  1.2389  1.5421
   70MOL   H42246100   5.634   5.824   6.274  1.9566  0.0512  0.2680
   70MOL   H42346101   5.674   5.831   6.451  1.3425 -1.8008  1.2317
   70MOL   H42446102   5.524   5.604   6.332  0.7423 -1.9746  0.7064
   70MOL   H42546103   5.553   5.645   6.506  0.9273 -1.6898 -0.8928
   70MOL   H42646104   5.380   5.815   6.314 -1.6094 -0.6384  0.9137
   70MOL   H42746105   5.423   5.857   6.480  0.2143 -0.4562  0.9267
   70MOL   H42846106   5.207   5.766   6.467  1.0942  0.7592 -2.9144
   70MOL   H42946107   5.298   5.653   6.560  1.0456 -1.4231 -0.9227
   70MOL   H43046108   5.270   5.604   6.401 -1.1771 -0.5413  0.9249
   70MOL   C43146109   6.475   5.692   6.084 -0.3272  0.1442  0.4441
   70MOL   C43246110   6.420   5.742   5.955 -0.4265  0.0153  0.8078
   70MOL   C43346111   6.481   5.657   5.838  0.7797  0.7733 -0.2358
   70MOL   C43446112   6.634   5.642   5.814  0.2310 -0.2053 -0.0783
   70MOL   C43546113   6.658   5.532   5.706 -0.1276 -0.0281 -0.2366
   70MOL   C43646114   6.592   5.553   5.568  0.3006 -0.1113 -0.4306
   70MOL   C43746115   6.652   5.471   5.451 -0.1309 -0.2389  0.2466
   70MOL   C43846116   6.587   5.516   5.327  0.2339  0.1898 -0.1827
   70MOL   C43946117   6.642   5.444   5.202 -0.0177 -0.3413  0.6796
   70MOL   C44046118   6.603   5.499   5.065 -0.3218  0.1716  0.5865
   70MOL   C44146119   6.678   5.627   5.032  0.4803 -0.5257 -0.5705
   70MOL   H44246120   6.478   5.583   6.087  1.4979  0.1986  1.0717
   70MOL   H44346121   6.581   5.715   6.093 -0.4076  0.7482 -0.1090
   70MOL   H44446122   6.315   5.717   5.967  0.0009 -0.6160  3.4759
   70MOL   H44546123   6.443   5.555   5.847  2.8262 -0.0485 -0.4973
   70MOL   H44646124   6.429   5.683   5.746 -0.8031 -0.6194  0.2401
   70MOL   H44746125   6.687   5.629   5.908 -1.7332 -0.6878  0.9735
   70MOL   H44846126   6.669   5.741   5.784  1.4063 -0.5410  0.1635
   70MOL   H44946127   6.633   5.431   5.736 -0.1995  0.2803  0.7839
   70MOL   H45046128   6.767   5.522   5.706 -0.0436  0.7920 -0.9102
   70MOL   H45146129   6.596   5.660   5.543  0.5788  0.1438  0.6920
   70MOL   H45246130   6.486   5.539   5.589  0.4613  0.0096  0.4794
   70MOL   H45346131   6.638   5.365   5.471  2.7444 -0.1192  3.4645
   70MOL   H45446132   6.760   5.485   5.447 -0.0659 -0.9916 -0.7444
   70MOL   H45546133   6.481   5.492   5.335 -0.3615  1.8441 -2.6200
   70MOL   H45646134   6.588   5.623   5.310 -0.1459  0.3184  0.5786
   70MOL   H45746135   6.634   5.335   5.207 -1.7415 -0.2027  1.3104
   70MOL   H45846136   6.750   5.458   5.210 -0.1156  1.0008 -0.2637
   70MOL   H45946137   6.494   5.503   5.063 -0.5365 -1.5888  4.2492
   70MOL   H46046138   6.635   5.421   4.995 -2.1582 -1.6377  1.7041
   70MOL   H46146139   6.657   5.709   5.101  1.6109 -1.3372  0.7705
   70MOL   H46246140   6.786   5.614   5.034  0.1406 -3.6335  1.1050
   70MOL   H46346141   6.648   5.663   4.934  3.1483  0.1343 -1.1752
   70MOL   C46446142   6.449   5.896   5.930 -0.0195  0.1310 -0.1993
   70MOL   C46546143   6.348   5.965   5.828 -0.0208  1.0517  0.2655
   70MOL   C46646144   6.221   6.034   5.893  0.0677  0.3169  0.2811
   70MOL   C46746145   6.092   5.973   5.851 -0.0630 -0.3896 -0.0517
   70MOL   C46846146   5.963   6.024   5.919  0.6734 -0.1862 -0.1327
   70MOL   C46946147   5.828   5.997   5.858 -0.0405 -0.0006  0.5092
   70MOL   C47046148   5.718   6.026   5.957  0.0920  0.8768  0.0712
   70MOL   C47146149   5.573   6.020   5.898  0.1402  0.4687 -0.0859
   70MOL   C47246150   5.462   6.066   5.993 -0.3603 -0.4696 -0.1931
   70MOL   C47346151   5.317   6.064   5.937 -0.5894  0.0013 -0.2624
   70MOL   C47446152   5.218   6.118   6.040  0.1851 -0.4251  0.5224
   70MOL   H47546153   6.554   5.902   5.900  0.5963  1.2889  2.0604
   70MOL   H47646154   6.437   5.951   6.023 -1.9361  0.5103 -0.6576
   70MOL   H47746155   6.302   5.884   5.771  0.6879 -0.9966  2.4728
   70MOL   H47846156   6.220   6.138   5.861  0.8934 -0.2364 -1.6133
   70MOL   H47946157   6.226   6.029   6.001 -0.5996 -0.5844  0.2778
   70MOL   H48046158   6.083   5.988   5.744  0.5263 -0.3548 -0.0962
   70MOL   H48146159   6.091   5.866   5.872 -0.1140 -0.4329 -0.2743
   70MOL   H48246160   5.963   6.133   5.914 -1.2505 -0.0452  2.1451
   70MOL   H48346161   5.971   5.995   6.023 -0.6815 -0.1747 -0.0203
   70MOL   H48446162   5.825   6.044   5.760  1.0142  0.4586  0.6884
   70MOL   H48546163   5.822   5.891   5.833 -0.5741 -0.1191  1.1291
   70MOL   H48646164   5.708   5.959   6.042  0.1753  1.4845  0.5605
   70MOL   H48746165   5.738   6.124   6.000  0.3572  0.6956  0.3550
   70MOL   H48846166   5.561   6.076   5.806 -2.9843  2.8642  1.6796
   70MOL   H48946167   5.570   5.917   5.861 -3.2162  0.4571 -0.0034
   70MOL   H49046168   5.468   5.997   6.077 -0.8531  0.7874  0.8951
   70MOL   H49146169   5.493   6.164   6.030  1.1724 -0.9032 -0.2870
   70MOL   H49246170   5.319   6.119   5.843 -2.0259 -0.3358 -0.4993
   70MOL   H49346171   5.290   5.962   5.911 -0.5507  0.4181 -1.9671
   70MOL   H49446172   5.254   6.216   6.073  0.7489 -0.3907 -0.1797
   70MOL   H49546173   5.220   6.045   6.121  0.5910 -0.8760  0.1074
   70MOL   H49646174   5.113   6.141   6.026 -0.5609 -3.2746  1.1928
   70MOL   C49746175   6.421   6.064   5.742  0.1119  0.0795  0.4339
   70MOL   C49846176   6.364   6.086   5.603  0.4573 -0.1530  0.1250
   70MOL   C49946177   6.402   5.972   5.509  0.5855 -0.2042  0.7675
   70MOL   C50046178   6.297   5.955   5.398  0.0269 -0.2493  0.1331
   70MOL   C50146179   6.336   5.838   5.300  0.1952  0.4070 -0.0717
   70MOL   C50246180   6.240   5.808   5.182  0.1750  0.0067  0.9434
   70MOL   C50346181   6.288   5.681   5.114  0.8298 -0.0140  0.5626
   70MOL   C50446182   6.189   5.639   5.001  0.2832 -0.2815  0.1242
   70MOL   C50546183   6.237   5.501   4.939  0.6119  0.3375 -0.2107
   70MOL   C50646184   6.164   5.465   4.810 -0.0311  0.4425  0.0616
   70MOL   C50746185   6.223   5.334   4.751  0.5623  0.5351 -0.7586
   70MOL   H50846186   6.429   6.153   5.804 -3.6746  0.7567  0.0583
   70MOL   H50946187   6.523   6.024   5.736 -1.0314 -2.9355 -0.0607
   70MOL   H51046188   6.255   6.082   5.611  0.3839  0.1989 -0.6140
   70MOL   H51146189   6.405   5.877   5.563 -1.7176 -0.7368  0.0178
   70MOL   H51246190   6.503   5.982   5.470 -0.3672  1.5156 -1.4096
   70MOL   H51346191   6.281   6.043   5.337  0.3447 -0.7618 -0.7008
   70MOL   H51446192   6.205   5.928   5.450 -0.4705  0.1474 -0.5285
   70MOL   H51546193   6.436   5.855   5.261 -1.0385  1.2926 -3.0254
   70MOL   H51646194   6.327   5.747   5.360 -0.2883 -0.0032 -0.7568
   70MOL   H51746195   6.138   5.786   5.215 -0.5162  0.7061 -0.6658
   70MOL   H51846196   6.226   5.898   5.123  1.1282 -0.4992 -0.0644
   70MOL   H51946197   6.384   5.686   5.063  0.4475  0.1258 -0.1447
   70MOL   H52046198   6.282   5.605   5.192 -0.2985  0.7618  1.2460
   70MOL   H52146199   6.190   5.716   4.925 -1.5560  2.0957  2.4212
   70MOL   H52246200   6.084   5.632   5.030  0.1909  0.9692  0.0898
   70MOL   H52346201   6.240   5.425   5.017 -0.7526  0.1304 -0.3422
   70MOL   H52446202   6.339   5.519   4.906  0.8620 -1.2017 -0.3402
   70MOL   H52546203   6.168   5.548   4.739  0.0806 -0.6766 -1.2675
   70MOL   H52646204   6.062   5.436   4.836 -0.2127 -0.4375 -1.5615
   70MOL   H52746205   6.170   5.323   4.656 -0.9050 -1.1949  0.2209
   70MOL   H52846206   6.195   5.241   4.801  0.3035  1.4953  0.9313
   70MOL   H52946207   6.328   5.349   4.730  0.9434  0.9555  1.3766
   70MOL   C53046208   6.402   6.216   5.547 -0.3433  0.3363  0.8123
   70MOL   C53146209   6.353   6.348   5.623  0.6633  0.1415 -0.0904
   70MOL   C53246210   6.255   6.422   5.540  0.2828  0.3501 -0.1774
   70MOL   C53346211   6.117   6.343   5.532 -0.0042  0.6888 -0.5792
   70MOL   C53446212   6.039   6.326   5.666  0.3666  0.2463 -0.5426
   70MOL   C53546213   5.889   6.375   5.656  0.1899  0.0654 -0.0496
   70MOL   C53646214   5.872   6.527   5.665  0.5074  0.8034 -0.8842
   70MOL   C53746215   5.863   6.576   5.812  0.5338 -0.1955 -0.4846
   70MOL   C53846216   5.856   6.732   5.817  0.5406  0.3595 -0.5012
   70MOL   C53946217   5.810   6.788   5.952  1.0635 -0.3688 -0.7133
   70MOL   C54046218   5.737   6.920   5.949  0.0334  0.3904 -0.8531
   70MOL   H54146219   6.511   6.213   5.545 -0.2112  3.5251  0.0421
   70MOL   H54246220   6.372   6.221   5.442 -0.4301  1.9510  0.8951
   70MOL   H54346221   6.305   6.317   5.716  1.2749  1.3792  0.6654
   70MOL   H54446222   6.290   6.430   5.437  0.6164 -0.6998 -0.1472
   70MOL   H54546223   6.242   6.520   5.585  0.9181  0.8431 -1.0585
   70MOL   H54646224   6.141   6.241   5.501  0.1593  0.2241  1.0473
   70MOL   H54746225   6.056   6.398   5.460 -0.4584 -0.8384 -1.4010
   70MOL   H54846226   6.082   6.373   5.754 -1.0039 -0.1017  0.3259
   70MOL   H54946227   6.053   6.224   5.701  0.5684 -0.5531 -2.8912
   70MOL   H55046228   5.839   6.327   5.740 -0.4689 -0.5728 -0.7888
   70MOL   H55146229   5.840   6.340   5.565  0.0256 -0.4261  0.2259
   70MOL   H55246230   5.788   6.565   5.608 -0.1715  1.9842  0.8713
   70MOL   H55346231   5.964   6.565   5.621 -0.4438  2.1727 -1.6955
   70MOL   H55446232   5.944   6.546   5.880 -0.3594 -0.4202  0.5016
   70MOL   H55546233   5.768   6.548   5.858 -1.0250  0.6896 -3.1029
   70MOL   H55646234   5.793   6.772   5.738  0.2642  1.6966  0.3765
   70MOL   H55746235   5.961   6.750   5.796  0.5893  1.1232  0.3508
   70MOL   H55846236   5.907   6.803   5.999 -0.9558  0.6334  3.4024
   70MOL   H55946237   5.759   6.716   6.016  1.0221  0.6378  0.3900
   70MOL   H56046238   5.791   6.983   5.878  1.1114 -1.2014 -1.4477
   70MOL   H56146239   5.639   6.914   5.902  0.2357  1.8958 -1.5109
   70MOL   H56246240   5.738   6.970   6.046 -3.3921  0.4178 -0.7730
   70MOL   C56346241   6.481   6.432   5.653  0.1217 -0.1357 -0.1153
   70MOL   C56446242   6.475   6.571   5.735 -0.7092 -0.0077  0.5830
   70MOL   C56546243   6.617   6.625   5.752  0.1914  0.6714 -0.2843
   70MOL   C56646244   6.697   6.636   5.617  1.0611 -0.0992 -0.1470
   70MOL   C56746245   6.817   6.737   5.621  0.0834  0.6710 -0.1593
   70MOL   C56846246   6.935   6.668   5.693  0.2933  0.3217  0.2865
   70MOL   C56946247   7.054   6.762   5.714  0.3782  0.1812  0.1291
   70MOL   C57046248   7.177   6.688   5.769 -0.0853 -0.1505 -0.2565
   70MOL   C57146249   7.212   6.695   5.924 -0.0809  0.0894 -0.4801
   70MOL   C57246250   7.121   6.626   6.022  0.0145  0.4296 -0.0530
   70MOL   C57346251   7.139   6.475   6.028  0.0611  0.0045  0.6049
   70MOL   H57446252   6.522   6.443   5.553 -2.1779  0.8598 -0.9946
   70MOL   H57546253   6.557   6.374   5.705 -1.3264 -1.6139  0.3784
   70MOL   H57646254   6.412   6.638   5.675  1.3394 -0.5981 -2.3573
   70MOL   H57746255   6.673   6.562   5.820  0.2685  0.8753 -0.1589
   70MOL   H57846256   6.626   6.723   5.799  0.3489  0.2773  0.5009
   70MOL   H57946257   6.637   6.665   5.530  0.8795  0.0872  0.0392
   70MOL   H58046258   6.732   6.538   5.586 -2.4151 -1.9372  1.4958
   70MOL   H58146259   6.790   6.830   5.671 -0.5294  1.0495 -1.1719
   70MOL   H58246260   6.842   6.762   5.518  1.3354 -2.7992 -0.7604
   70MOL   H58346261   6.913   6.625   5.790  0.7476  2.1664  1.2314
   70MOL   H58446262   6.971   6.586   5.630 -1.6876 -0.7885  0.5740
   70MOL   H58546263   7.079   6.805   5.617  3.1803 -1.4682  0.0714
   70MOL   H58646264   7.016   6.845   5.773  0.0656 -1.3083  2.1152
   70MOL   H58746265   7.256   6.728   5.706  0.0387 -1.5788 -1.0151
   70MOL   H58846266   7.184   6.581   5.751 -1.2789 -0.5097  1.2805
   70MOL   H58946267   7.224   6.800   5.949 -2.7347  0.6623 -1.4275
   70MOL   H59046268   7.310   6.647   5.933 -0.7399 -1.1143  0.3641
   70MOL   H59146269   7.019   6.658   5.998 -1.0697 -0.7112  2.8045
   70MOL   H59246270   7.138   6.652   6.126 -1.2172  0.9051  0.0366
   70MOL   H59346271   7.089   6.428   6.113  1.8395 -0.9990  1.1289
   70MOL   H59446272   7.107   6.436   5.931  0.4501 -2.0102  1.2639
   70MOL   H59546273   7.246   6.454   6.032  0.0358 -1.2529 -3.1075
   70MOL   C59646274   6.411   6.534   5.876 -0.1914 -0.0569 -0.6189
   70MOL   C59746275   6.393   6.655   5.975  0.3918  0.4799  0.3954
   70MOL   C59846276   6.344   6.593   6.108  0.5607 -0.7724 -0.3736
   70MOL   C59946277   6.205   6.535   6.112  1.2477  0.2215 -0.0533
   70MOL   C60046278   6.180   6.456   6.244 -0.6019  0.1461 -0.0642
   70MOL   C60146279   6.052   6.372   6.236 -0.0712 -0.1224 -0.2223
   70MOL   C60246280   6.058   6.260   6.344 -0.5304  0.3445 -0.2230
   70MOL   C60346281   5.943   6.158   6.338  1.1897 -0.6305 -0.0975
   70MOL   C60446282   5.809   6.223   6.380 -0.2601 -0.1903  0.5217
   70MOL   C60546283   5.699   6.121   6.398  0.3006  0.7783 -0.2783
   70MOL   C60646284   5.568   6.173   6.445  0.4120 -0.1427  0.3944
   70MOL   H60746285   6.315   6.492   5.845 -0.1728 -0.3434 -0.2878
   70MOL   H60846286   6.464   6.449   5.918  0.7930  1.3391  1.0008
   70MOL   H60946287   6.488   6.702   6.000  0.4120 -0.1599  1.5818
   70MOL   H61046288   6.344   6.672   6.183 -1.3512 -0.9679 -0.1366
   70MOL   H61146289   6.411   6.515   6.144  0.8245 -1.0749 -1.4994
   70MOL   H61246290   6.196   6.474   6.022 -2.0418 -1.1230  1.0885
   70MOL   H61346291   6.127   6.609   6.093 -0.9589 -1.7785  0.7967
   70MOL   H61446292   6.177   6.539   6.315  0.5215  1.2758 -1.2983
   70MOL   H61546293   6.265   6.397   6.277  0.0663 -0.1870 -2.3003
   70MOL   H61646294   5.960   6.431   6.228  0.6966  1.4326  1.6999
   70MOL   H61746295   6.064   6.327   6.138  0.5237 -0.3735 -0.0370
   70MOL   H61846296   6.054   6.300   6.445 -2.3947  1.6294 -0.7544
   70MOL   H61946297   6.150   6.207   6.321 -0.5613 -1.4669  3.5222
   70MOL   H62046298   5.974   6.081   6.409 -0.2426 -2.4701 -1.3947
   70MOL   H62146299   5.930   6.097   6.248  0.5022 -3.8397  2.0743
   70MOL   H62246300   5.826   6.265   6.479  0.7127  1.4695 -0.3208
   70MOL   H62346301   5.777   6.300   6.309 -0.2319  0.6620  1.4304
   70MOL   H62446302   5.738   6.049   6.470 -1.3660  1.4275  1.3294
   70MOL   H62546303   5.675   6.066   6.307 -3.1985 -1.6499  1.9895
   70MOL   H62646304   5.575   6.217   6.544 -1.1245 -0.1572  0.5141
   70MOL   H62746305   5.530   6.236   6.364  0.3185 -2.2310 -1.2354
   70MOL   H62846306   5.509   6.083   6.458 -0.2771 -0.0037 -1.6217
   70MOL   C62946307   6.295   6.760   5.919 -0.3700  0.3201 -0.3633
   70MOL   C63046308   6.266   6.876   6.008  0.8267  0.3337  0.3538
   70MOL   C63146309   6.186   6.988   5.943 -0.1063  0.2415  0.2130
   70MOL   C63246310   6.170   7.110   6.025  0.3882  0.1738  0.0872
   70MOL   C63346311   6.090   7.224   5.955 -0.4890  0.0454  0.2108
   70MOL   C63446312   6.080   7.341   6.046 -0.1441 -0.3136 -0.4744
   70MOL   C63546313   6.006   7.454   5.983  0.0111  0.4655 -0.1593
   70MOL   C63646314   6.020   7.583   6.056 -0.6319  0.7930 -0.3281
   70MOL   C63746315   5.952   0.003   5.993  0.2669  0.3288 -0.5869
   70MOL   C63846316   5.801   7.694   6.033  0.5454 -0.3084  0.0082
   70MOL   C63946317   5.726   0.132   6.018 -0.2240 -0.2271 -0.1805
   70MOL   H64046318   6.329   6.796   5.821 -0.6110 -2.2473 -1.4357
   70MOL   H64146319   6.199   6.713   5.901 -1.3924  1.4851  1.9177
   70MOL   H64246320   6.224   6.842   6.102  0.4590  1.1471  0.4903
   70MOL   H64346321   6.222   7.018   5.845  0.6360 -0.8281  0.1462
   70MOL   H64446322   6.089   6.947   5.914  0.0826 -0.1437  0.1223
   70MOL   H64546323   6.272   7.139   6.052  1.1517 -1.9335 -0.4654
   70MOL   H64646324   6.115   7.078   6.114  1.2960  1.1701  1.0369
   70MOL   H64746325   5.987   7.196   5.935 -0.4038  1.4853 -2.3834
   70MOL   H64846326   6.133   7.259   5.861 -1.3771  1.1674  0.2131
   70MOL   H64946327   6.183   7.376   6.057 -0.5303  0.7303 -0.0513
   70MOL   H65046328   6.054   7.326   6.151 -0.0399  0.3243 -0.3522
   70MOL   H65146329   5.900   7.432   5.990  0.0572  0.6059  1.1550
   70MOL   H65246330   6.027   7.461   5.876 -1.1438 -2.9354 -0.6861
   70MOL   H65346331   6.127   7.606   6.055  0.3044 -3.1568 -0.1820
   70MOL   H65446332   6.003   7.578   6.163 -0.7751  0.4526 -0.3655
   70MOL   H65546333   5.966   0.028   5.887  3.0291  2.0310  0.1450
   70MOL   H65646334   6.000   0.092   6.033  0.1312 -1.1601  3.0187
   70MOL   H65746335   5.796   7.660   6.136 -0.1542  0.4361  0.2267
   70MOL   H65846336   5.756   7.611   5.979  1.6376 -1.2485  0.5254
   70MOL   H65946337   5.728   0.173   5.917 -0.9979 -0.4055 -0.2715
   70MOL   H66046338   5.756   0.209   6.088  1.2244  1.5792 -2.6931
   70MOL   H66146339   5.620   0.123   6.042 -0.3091 -0.0073 -0.4702
   70MOL   H66246340   6.361   6.922   6.036 -0.1357  2.6810 -0.1043
   71MOL     C146341   4.240   2.862   3.212 -0.1639  0.3781 -0.1967
   71MOL     C246342   4.154   2.948   3.304 -0.7547 -0.1297  0.2569
   71MOL     C346343   4.162   3.096   3.270 -0.1554  0.5404  0.2521
   71MOL     C446344   4.270   3.178   3.330 -0.6009 -0.8741  0.2443
   71MOL     C546345   4.247   3.204   3.477 -0.7330  0.7400  0.3526
   71MOL     C646346   4.335   3.318   3.523  0.1501  0.1133 -0.2135
   71MOL     C746347   4.322   3.340   3.675 -0.7035 -0.0108 -0.3334
   71MOL     C846348   4.391   3.466   3.724 -0.2856 -0.7712 -0.4076
   71MOL     C946349   4.377   3.492   3.879  0.6322  0.2947 -0.1519
   71MOL    C1046350   4.490   3.568   3.938  0.3295 -0.0970  0.2626
   71MOL    C1146351   4.500   3.575   4.087 -0.4989 -0.5503 -0.2772
   71MOL    H1246352   4.201   2.873   3.111 -1.8737 -2.8364  0.0742
   71MOL    H1346353   4.236   2.758   3.242  0.9700  0.9506  2.1039
   71MOL    H1446354   4.206   2.932   3.398 -0.8780 -3.9899 -0.2438
   71MOL    H1546355   4.069   3.147   3.292 -0.4519 -0.0697  0.4287
   71MOL    H1646356   4.165   3.102   3.161  0.4134 -2.2164  0.0631
   71MOL    H1746357   4.268   3.272   3.275 -1.8407 -0.3476  1.1710
   71MOL    H1846358   4.362   3.120   3.330 -0.1511 -0.2403 -2.5054
   71MOL    H1946359   4.144   3.230   3.502 -0.5505 -0.4292  2.3926
   71MOL    H2046360   4.263   3.117   3.540  0.2833  0.3681 -0.4082
   71MOL    H2146361   4.304   3.408   3.469  0.5154  0.8852  0.8424
   71MOL    H2246362   4.437   3.309   3.487 -0.0210 -2.7983 -0.1013
   71MOL    H2346363   4.217   3.357   3.701 -0.2155  0.0984  1.6427
   71MOL    H2446364   4.365   3.252   3.722 -0.7887 -0.4324 -1.0478
   71MOL    H2546365   4.352   3.550   3.667 -1.6206 -0.0447  1.5166
   71MOL    H2646366   4.496   3.477   3.695  0.2043 -1.4188  1.0711
   71MOL    H2746367   4.380   3.390   3.918  2.4801  1.0541  1.8547
   71MOL    H2846368   4.283   3.536   3.911  0.1883  0.0476 -1.1191
   71MOL    H2946369   4.473   3.669   3.901 -1.7694 -1.9194 -4.1992
   71MOL    H3046370   4.580   3.527   3.893 -1.0934 -0.1674 -2.6926
   71MOL    H3146371   4.510   3.481   4.141  2.3701  0.1647  0.5286
   71MOL    H3246372   4.588   3.626   4.125 -1.5271 -1.1569  3.0250
   71MOL    H3346373   4.407   3.609   4.132 -0.2644 -0.8223  0.4183
   71MOL    H3446374   4.345   2.891   3.212 -0.3346  1.0005  0.0311
   71MOL    C3546375   4.007   2.890   3.305 -0.1737  0.3480  0.2081
   71MOL    C3646376   3.954   2.843   3.444 -0.5451  0.4690 -0.6063
   71MOL    C3746377   4.028   2.716   3.491  0.0809 -0.3490  0.2023
   71MOL    C3846378   3.997   2.585   3.409  0.0363  0.4560  0.4961
   71MOL    C3946379   4.095   2.465   3.439 -0.2674 -0.4850 -0.4014
   71MOL    C4046380   4.242   2.491   3.405 -0.3624 -0.6547  0.5354
   71MOL    C4146381   4.330   2.387   3.465 -0.3328  0.3520  0.3235
   71MOL    C4246382   4.477   2.418   3.452  0.4000 -0.4420 -0.3184
   71MOL    C4346383   4.556   2.302   3.500  0.3460 -0.7559 -0.0255
   71MOL    C4446384   4.704   2.325   3.461 -0.0186  0.7693  0.0466
   71MOL    C4546385   4.780   2.199   3.508 -0.1595 -0.0951  0.4999
   71MOL    H4646386   3.992   2.810   3.233  1.8555 -0.2277  0.4024
   71MOL    H4746387   3.934   2.965   3.274 -1.4616 -0.4958  1.1557
   71MOL    H4846388   3.848   2.820   3.443 -0.4197 -0.4536  2.5054
   71MOL    H4946389   4.135   2.734   3.489 -0.1075  0.6723 -0.8920
   71MOL    H5046390   3.991   2.711   3.594 -0.6059  1.3925  0.0586
   71MOL    H5146391   3.995   2.604   3.302 -3.3182 -2.2940  0.0116
   71MOL    H5246392   3.894   2.555   3.424  0.8554 -2.7206  0.0015
   71MOL    H5346393   4.061   2.373   3.391 -0.8508 -0.1026 -0.7201
   71MOL    H5446394   4.082   2.457   3.547 -0.3330  0.7252 -0.3174
   71MOL    H5546395   4.272   2.585   3.451  1.9193 -0.6689 -0.8786
   71MOL    H5646396   4.252   2.512   3.299 -0.2278 -1.5461  0.3654
   71MOL    H5746397   4.301   2.377   3.570 -1.8824 -1.0432 -0.2297
   71MOL    H5846398   4.310   2.288   3.424  0.3846 -0.1178  1.0859
   71MOL    H5946399   4.513   2.503   3.511  0.1663  0.6264 -1.6733
   71MOL    H6046400   4.500   2.433   3.347  1.0519  2.1259  0.1533
   71MOL    H6146401   4.521   2.210   3.454 -1.1486  0.7017 -1.8381
   71MOL    H6246402   4.553   2.290   3.609  0.1605 -2.6754 -0.2300
   71MOL    H6346403   4.712   2.340   3.354  1.0912 -0.9305 -0.1211
   71MOL    H6446404   4.740   2.417   3.509  1.6492  0.7610 -1.1469
   71MOL    H6546405   4.801   2.200   3.615  2.4208  0.5086  0.0233
   71MOL    H6646406   4.750   2.101   3.471 -1.2314  0.6143 -0.5317
   71MOL    H6746407   4.884   2.206   3.474 -0.5579 -0.6053 -0.8462
   71MOL    C6846408   3.963   2.965   3.544 -0.3298 -0.0957  0.7393
   71MOL    C6946409   3.900   2.946   3.680  0.1745 -0.5010  0.2869
   71MOL    C7046410   3.938   3.062   3.781  0.1407 -0.9385 -0.0671
   71MOL    C7146411   4.080   3.062   3.837 -0.0504  0.1195 -0.4469
   71MOL    C7246412   4.105   3.174   3.940  0.3591 -0.2650 -0.1166
   71MOL    C7346413   4.222   3.149   4.035 -0.3620 -0.1925 -0.4808
   71MOL    C7446414   4.208   3.243   4.162 -0.2153  0.6321  0.1487
   71MOL    C7546415   4.333   3.249   4.250 -0.0685  0.0929  0.1521
   71MOL    C7646416   4.302   3.318   4.386  0.1315  0.2833  0.2604
   71MOL    C7746417   4.407   3.348   4.489  0.4386  0.2122 -0.3434
   71MOL    C7846418   4.550   3.347   4.437 -0.3433  0.0930 -0.5914
   71MOL    H7946419   3.910   3.048   3.498 -1.2978  0.3757  2.6513
   71MOL    H8046420   4.066   2.999   3.561 -0.5439  1.0548 -0.2192
   71MOL    H8146421   3.950   2.860   3.723 -0.6439 -0.4469  1.3630
   71MOL    H8246422   3.865   3.056   3.862 -0.9046 -0.8536 -0.9976
   71MOL    H8346423   3.918   3.152   3.723 -3.6723 -0.0889  2.3711
   71MOL    H8446424   4.114   2.967   3.877  3.4372  0.5513 -2.1744
   71MOL    H8546425   4.155   3.072   3.758  1.1405  2.1553  0.8928
   71MOL    H8646426   4.007   3.180   3.988 -0.2220 -0.0947 -1.3075
   71MOL    H8746427   4.120   3.268   3.887  2.6399 -2.1326 -2.9439
   71MOL    H8846428   4.239   3.044   4.059  1.8208  0.4892  1.0914
   71MOL    H8946429   4.312   3.169   3.977  0.4271 -0.4774  0.6321
   71MOL    H9046430   4.113   3.214   4.207  0.4008 -1.2777  0.2636
   71MOL    H9146431   4.188   3.342   4.123 -1.1665  1.0661  1.7007
   71MOL    H9246432   4.358   3.144   4.267  1.0168  0.3926  0.4511
   71MOL    H9346433   4.413   3.303   4.198  0.1247  0.0340  0.3899
   71MOL    H9446434   4.252   3.412   4.362  2.1642  0.9595 -1.4624
   71MOL    H9546435   4.223   3.260   4.433  0.2739 -0.0439  0.0990
   71MOL    H9646436   4.388   3.446   4.532  1.5246  0.8563 -1.2970
   71MOL    H9746437   4.402   3.277   4.572  1.4049 -0.3991 -0.7990
   71MOL    H9846438   4.612   3.360   4.525  0.8524 -3.7448 -0.7983
   71MOL    H9946439   4.567   3.427   4.365 -1.9327  0.8584 -0.1463
   71MOL   H10046440   4.582   3.254   4.391 -2.5046 -1.2717  0.6041
   71MOL   C10146441   3.756   2.890   3.684 -0.0593  0.6465 -0.2176
   71MOL   C10246442   3.656   2.964   3.589  0.4451  0.0564 -0.5552
   71MOL   C10346443   3.616   3.100   3.643 -0.4072  0.0073 -0.1552
   71MOL   C10446444   3.527   3.183   3.548  0.3495  0.6582  0.2038
   71MOL   C10546445   3.526   3.325   3.600  0.0914 -0.2062  0.1356
   71MOL   C10646446   3.473   3.422   3.499 -0.1432 -0.1960  0.2810
   71MOL   C10746447   3.503   3.569   3.538  0.6196  0.0944 -0.6557
   71MOL   C10846448   3.471   3.672   3.430  0.8420 -0.3771  0.3526
   71MOL   C10946449   3.323   3.704   3.418 -0.4413 -0.2221  0.1740
   71MOL   C11046450   3.297   3.826   3.324  0.3577 -0.1368 -0.1538
   71MOL   C11146451   3.147   3.843   3.293  0.7051  0.2803 -0.1770
   71MOL   H11246452   3.763   2.783   3.663  0.5146  0.8836 -1.2871
   71MOL   H11346453   3.713   2.882   3.784  0.8952 -0.1520  0.1369
   71MOL   H11446454   3.709   2.974   3.494 -0.9356 -0.0658 -1.3503
   71MOL   H11546455   3.565   3.086   3.738  0.4652 -0.4852  0.2431
   71MOL   H11646456   3.710   3.153   3.655  0.4215 -1.5795  0.4321
   71MOL   H11746457   3.558   3.176   3.444 -1.6575 -1.6906 -0.2614
   71MOL   H11846458   3.426   3.145   3.561  0.0783  1.3068  0.0043
   71MOL   H11946459   3.475   3.342   3.694  0.3255 -0.0992  0.2435
   71MOL   H12046460   3.630   3.353   3.617 -0.4034  0.3567  2.2953
   71MOL   H12146461   3.516   3.402   3.401  0.5567 -0.3907  0.6240
   71MOL   H12246462   3.365   3.412   3.487 -0.1195  0.7459 -0.7793
   71MOL   H12346463   3.607   3.567   3.572  0.5835  2.5117 -0.2904
   71MOL   H12446464   3.454   3.595   3.632 -1.4902 -3.1539 -0.7873
   71MOL   H12546465   3.526   3.763   3.456 -2.3172  1.0917  2.2211
   71MOL   H12646466   3.503   3.645   3.329  0.1399 -0.4607  0.1447
   71MOL   H12746467   3.280   3.618   3.367 -1.2913  0.1543  0.2641
   71MOL   H12846468   3.260   3.702   3.506 -1.6148 -2.0895 -0.6674
   71MOL   H12946469   3.359   3.803   3.237 -0.5698 -0.2122 -0.7926
   71MOL   H13046470   3.334   3.910   3.383 -0.5925 -2.0773  3.3820
   71MOL   H13146471   3.101   3.841   3.391  1.5051 -0.5271  0.1934
   71MOL   H13246472   3.122   3.935   3.240  1.8754  0.0805 -1.1088
   71MOL   H13346473   3.107   3.764   3.231  0.5468 -0.2924  0.6490
   71MOL   C13446474   3.531   2.875   3.574 -0.3192  0.8126  0.1145
   71MOL   C13546475   3.548   2.738   3.499  0.1189  0.0098  0.1594
   71MOL   C13646476   3.538   2.760   3.352  0.1628  0.5403 -0.1326
   71MOL   C13746477   3.598   2.653   3.261 -0.2512  0.4297  0.5384
   71MOL   C13846478   3.568   2.677   3.110  0.4058  0.3372  0.1684
   71MOL   C13946479   3.633   2.572   3.013 -0.0937  0.5798 -0.3636
   71MOL   C14046480   3.787   2.580   3.005 -0.3684 -0.1544 -1.1858
   71MOL   C14146481   3.833   2.720   2.955 -0.2312 -0.9798 -0.1347
   71MOL   C14246482   3.959   2.692   2.871  0.4231 -0.7976  0.7544
   71MOL   C14346483   4.027   2.819   2.819 -0.5754 -0.0543  0.7526
   71MOL   C14446484   4.158   2.790   2.753 -0.3476  0.1671  0.4171
   71MOL   H14546485   3.501   2.851   3.676  0.9205  0.0806  0.3160
   71MOL   H14646486   3.441   2.919   3.530 -0.4482 -3.1727 -3.8770
   71MOL   H14746487   3.650   2.699   3.509  1.1591  1.9417 -2.1617
   71MOL   H14846488   3.584   2.856   3.328 -0.7158  1.0700  0.2632
   71MOL   H14946489   3.435   2.762   3.315 -0.4952 -1.1371  1.5701
   71MOL   H15046490   3.706   2.654   3.273  0.0572 -0.6642 -1.7923
   71MOL   H15146491   3.561   2.553   3.285 -0.3152 -0.0881 -1.5759
   71MOL   H15246492   3.463   2.684   3.084  0.1481 -0.8456  0.8721
   71MOL   H15346493   3.599   2.778   3.081 -2.6409  1.0365 -0.8470
   71MOL   H15446494   3.601   2.470   3.035  1.8332 -0.1398 -0.7555
   71MOL   H15546495   3.594   2.600   2.915 -1.4897 -0.3467 -0.0946
   71MOL   H15646496   3.832   2.555   3.101 -0.4381  0.4295 -0.9968
   71MOL   H15746497   3.825   2.496   2.947  4.6347  0.2561  1.2315
   71MOL   H15846498   3.758   2.773   2.896  0.1407  0.0637  0.3163
   71MOL   H15946499   3.860   2.789   3.035  2.0733 -1.8581 -0.1193
   71MOL   H16046500   4.038   2.635   2.921  0.3359 -1.5463  0.0603
   71MOL   H16146501   3.928   2.642   2.779  0.5579 -0.7487  0.6830
   71MOL   H16246502   3.957   2.872   2.754 -0.8611 -2.1914 -0.7386
   71MOL   H16346503   4.037   2.894   2.897 -1.2276 -2.4451  3.2074
   71MOL   H16446504   4.141   2.722   2.669  2.1363 -1.3418  1.0663
   71MOL   H16546505   4.227   2.741   2.822 -0.5925  0.4317  0.8516
   71MOL   H16646506   4.213   2.874   2.713  2.9432 -2.5617 -1.0611
   71MOL   C16746507   3.433   2.633   3.536  0.2127 -0.0033 -0.3027
   71MOL   C16846508   3.433   2.591   3.689  0.3771 -0.9947 -0.1910
   71MOL   C16946509   3.571   2.546   3.741  0.5067  0.2035 -0.4924
   71MOL   C17046510   3.634   2.414   3.689 -0.0452 -0.3705  0.3439
   71MOL   C17146511   3.778   2.387   3.737  0.3664 -0.1958  0.7057
   71MOL   C17246512   3.840   2.259   3.694  0.2078  0.1596 -0.5215
   71MOL   C17346513   3.982   2.247   3.760  0.0899 -0.0620  0.3555
   71MOL   C17446514   4.054   2.116   3.721 -0.0408  0.4801  0.1980
   71MOL   C17546515   4.194   2.101   3.785  0.0083 -0.0213 -0.5388
   71MOL   C17646516   4.266   1.964   3.764 -0.0328  0.2194  0.0379
   71MOL   C17746517   4.231   1.857   3.867  0.5318  0.6638 -0.1227
   71MOL   H17846518   3.337   2.660   3.494  1.3985  0.6690 -2.6328
   71MOL   H17946519   3.458   2.539   3.487  0.9125  0.0164 -0.0003
   71MOL   H18046520   3.397   2.673   3.750  3.2018 -0.0863  0.3344
   71MOL   H18146521   3.572   2.519   3.847  0.3918 -1.2570 -0.8486
   71MOL   H18246522   3.647   2.619   3.715  1.1928 -0.1246  0.5494
   71MOL   H18346523   3.569   2.329   3.712 -0.8125 -0.3409 -1.6762
   71MOL   H18446524   3.636   2.417   3.580 -0.1945 -0.0827  0.3488
   71MOL   H18546525   3.768   2.397   3.845 -2.7439 -0.0770  0.4298
   71MOL   H18646526   3.836   2.477   3.717  1.0550 -0.9007 -0.5319
   71MOL   H18746527   3.787   2.175   3.738  1.8934 -0.4136  0.4579
   71MOL   H18846528   3.846   2.256   3.585  1.6489 -2.5801 -0.4017
   71MOL   H18946529   3.981   2.234   3.868 -0.8658 -2.7329  0.0664
   71MOL   H19046530   4.040   2.334   3.730 -1.7358 -0.1656 -3.7636
   71MOL   H19146531   3.983   2.036   3.744  2.0351 -1.0465  1.4475
   71MOL   H19246532   4.060   2.114   3.612  0.3417 -0.9425  0.2261
   71MOL   H19346533   4.172   2.109   3.891 -0.7347  1.0126 -0.7658
   71MOL   H19446534   4.258   2.175   3.736  0.1890  0.2259  0.0702
   71MOL   H19546535   4.374   1.968   3.762  0.0475 -1.6603 -1.0906
   71MOL   H19646536   4.241   1.912   3.671 -1.6819 -1.7640  1.5280
   71MOL   H19746537   4.123   1.847   3.868  0.7030 -1.4457  1.6660
   71MOL   H19846538   4.265   1.876   3.969  2.1298  2.1589 -0.9000
   71MOL   H19946539   4.257   1.756   3.834  0.0851  0.9969 -1.5271
   71MOL   C20046540   3.331   2.480   3.722  0.1827  0.5148  0.4639
   71MOL   C20146541   3.179   2.514   3.719  0.4298  0.1707  0.0676
   71MOL   C20246542   3.149   2.585   3.847  0.1845  0.2286 -0.4111
   71MOL   C20346543   3.022   2.658   3.859 -0.4598 -0.2770  0.3340
   71MOL   C20446544   2.988   2.688   4.005  0.1468  0.6584  0.8674
   71MOL   C20546545   2.943   2.564   4.082 -0.2423  0.2594 -0.1580
   71MOL   C20646546   2.867   2.590   4.215 -0.2992  0.5216  0.0090
   71MOL   C20746547   2.953   2.659   4.321  0.8278 -0.6943 -0.1434
   71MOL   C20846548   2.903   2.627   4.463  0.1423 -0.4028 -0.0495
   71MOL   C20946549   2.970   2.682   4.583 -0.2621  0.5522 -0.1337
   71MOL   C21046550   2.919   2.637   4.721 -0.0533  0.6644  0.8721
   71MOL   H21146551   3.353   2.402   3.649 -0.0784  1.7207 -0.9343
   71MOL   H21246552   3.365   2.448   3.821  2.5824  0.5327 -0.3061
   71MOL   H21346553   3.169   2.592   3.644  2.6288 -0.1594 -0.5769
   71MOL   H21446554   3.220   2.661   3.881  0.4780 -0.1123 -0.2618
   71MOL   H21546555   3.155   2.507   3.923  3.0488 -1.4069 -2.2198
   71MOL   H21646556   2.948   2.595   3.811 -2.4763  1.2702  1.3101
   71MOL   H21746557   3.017   2.750   3.801  0.4575 -0.0648  0.5811
   71MOL   H21846558   2.892   2.738   4.000  0.0566  0.6593  2.4537
   71MOL   H21946559   3.065   2.744   4.059 -0.2609  3.5030 -1.3531
   71MOL   H22046560   2.875   2.499   4.027 -0.5647 -1.0396  1.7185
   71MOL   H22146561   3.037   2.513   4.104 -1.3877 -0.6949  2.7911
   71MOL   H22246562   2.833   2.493   4.251  0.6537  0.5074  0.8881
   71MOL   H22346563   2.778   2.652   4.205 -2.3117 -2.2382  0.3602
   71MOL   H22446564   2.934   2.766   4.311  1.3769 -0.8123 -3.1034
   71MOL   H22546565   3.056   2.635   4.295  0.9931 -0.0124 -0.1307
   71MOL   H22646566   2.900   2.518   4.457 -0.3215 -0.2974 -2.5344
   71MOL   H22746567   2.801   2.663   4.473  1.0632  1.9511  1.1538
   71MOL   H22846568   3.078   2.668   4.576 -0.1112 -0.1978  3.1187
   71MOL   H22946569   2.952   2.788   4.567  0.4247  0.3486 -2.3705
   71MOL   H23046570   2.958   2.701   4.800 -0.1723  0.4101  1.1393
   71MOL   H23146571   2.947   2.532   4.728  1.2040  0.8655 -0.8385
   71MOL   H23246572   2.810   2.639   4.724 -0.1217 -1.5814  0.5873
   71MOL   C23346573   3.102   2.381   3.697 -0.2978  0.2279 -0.2670
   71MOL   C23446574   3.071   2.360   3.540  0.4503 -0.2114  0.4517
   71MOL   C23546575   2.953   2.445   3.501  1.2898  0.1952  0.2329
   71MOL   C23646576   2.925   2.465   3.350  0.0794 -0.8095 -0.2160
   71MOL   C23746577   3.027   2.533   3.260 -0.1377  0.5357  0.0651
   71MOL   C23846578   3.047   2.675   3.296  0.0926 -0.1485 -0.4845
   71MOL   C23946579   3.146   2.754   3.213  1.1439 -0.0514  0.0588
   71MOL   C24046580   3.140   2.903   3.245 -0.2228 -0.4370 -0.1777
   71MOL   C24146581   3.228   2.988   3.152 -0.3627 -0.4342  0.0721
   71MOL   C24246582   3.267   3.125   3.216 -0.0646  0.0997  0.3561
   71MOL   C24346583   3.362   3.207   3.113 -0.2308 -0.0537 -0.0989
   71MOL   H24446584   3.005   2.377   3.746  0.5329 -0.8743  1.3231
   71MOL   H24546585   3.154   2.295   3.739 -0.5954  0.1123 -0.1299
   71MOL   H24646586   3.159   2.386   3.481 -0.1708  1.2894  0.1660
   71MOL   H24746587   2.859   2.411   3.544  0.9542 -0.6731 -1.1490
   71MOL   H24846588   2.972   2.545   3.539  0.3369  0.4550  0.0404
   71MOL   H24946589   2.830   2.517   3.346 -0.1438 -1.0325  1.7225
   71MOL   H25046590   2.904   2.371   3.298 -1.7414  0.8485 -2.5653
   71MOL   H25146591   2.998   2.525   3.156  0.4853  0.0547 -0.0795
   71MOL   H25246592   3.120   2.478   3.277  0.6966  2.9030  3.8590
   71MOL   H25346593   3.082   2.678   3.399 -0.1519  2.1026 -0.4508
   71MOL   H25446594   2.954   2.730   3.307  0.9136  0.7348  2.3936
   71MOL   H25546595   3.248   2.716   3.208  1.1601  0.3796 -3.7918
   71MOL   H25646596   3.105   2.748   3.113  3.7628 -2.1779 -0.9458
   71MOL   H25746597   3.041   2.943   3.225  0.6894  1.3724 -1.1592
   71MOL   H25846598   3.151   2.921   3.352 -0.9011 -1.0061 -0.0153
   71MOL   H25946599   3.316   2.935   3.116  1.1161  1.2359  1.1289
   71MOL   H26046600   3.178   2.999   3.055  3.1500 -0.5677 -1.8586
   71MOL   H26146601   3.334   3.094   3.297  0.0679 -1.4958 -0.3360
   71MOL   H26246602   3.174   3.174   3.243 -0.9120 -0.9822 -0.5418
   71MOL   H26346603   3.453   3.157   3.079 -0.7197 -1.0800  0.0794
   71MOL   H26446604   3.400   3.291   3.171 -0.5310 -1.9642  2.9741
   71MOL   H26546605   3.310   3.246   3.025 -1.4831  0.6836  0.9618
   71MOL   C26646606   3.034   2.215   3.502  0.4186  0.5299  0.1986
   71MOL   C26746607   3.158   2.120   3.519 -0.0231 -0.4353  0.3387
   71MOL   C26846608   3.247   2.148   3.400  0.5806  0.8040  0.6727
   71MOL   C26946609   3.393   2.170   3.434 -0.2140  0.5311  0.1284
   71MOL   C27046610   3.491   2.199   3.311  0.0747 -0.2397 -0.3748
   71MOL   C27146611   3.639   2.170   3.333  0.2581  0.5230  0.0588
   71MOL   C27246612   3.730   2.201   3.216  0.1524 -0.2167  0.1053
   71MOL   C27346613   3.878   2.169   3.231 -0.4650 -0.2600  0.2464
   71MOL   C27446614   3.954   2.220   3.110 -0.4322  0.9258 -0.5664
   71MOL   C27546615   4.096   2.173   3.120  0.6850 -0.1668  0.5280
   71MOL   C27646616   4.183   2.242   3.018  0.1108 -0.1800  0.6826
   71MOL   H27746617   2.997   2.205   3.400 -0.1741  0.4610  0.4172
   71MOL   H27846618   2.954   2.189   3.573 -1.6179  1.9507 -1.5078
   71MOL   H27946619   3.214   2.152   3.607  0.3578  0.9296 -0.3926
   71MOL   H28046620   3.239   2.063   3.332  0.3373  1.1658  0.2453
   71MOL   H28146621   3.216   2.225   3.329  1.9837  0.5000 -0.2910
   71MOL   H28246622   3.435   2.086   3.488 -0.9033 -0.9157 -1.5041
   71MOL   H28346623   3.394   2.250   3.508 -3.0075  1.5442 -0.8614
   71MOL   H28446624   3.478   2.304   3.285  0.8603  0.0281  0.2937
   71MOL   H28546625   3.455   2.145   3.223 -0.4934  0.5159 -0.6095
   71MOL   H28646626   3.648   2.063   3.352 -1.1953  0.4423  0.3212
   71MOL   H28746627   3.684   2.223   3.417  2.5490 -0.1550 -0.7119
   71MOL   H28846628   3.697   2.140   3.132 -0.6955  0.6654 -0.2155
   71MOL   H28946629   3.708   2.305   3.195 -1.8016 -0.7777 -0.8492
   71MOL   H29046630   3.897   2.062   3.241  0.0727 -0.2853 -0.9726
   71MOL   H29146631   3.922   2.217   3.319  1.3076 -0.0413 -0.7335
   71MOL   H29246632   3.907   2.167   3.027 -1.2982  0.8497 -0.0380
   71MOL   H29346633   3.946   2.328   3.098  1.9917  0.8909 -2.9780
   71MOL   H29446634   4.105   2.065   3.122 -1.5692 -0.4171 -0.4382
   71MOL   H29546635   4.136   2.201   3.217  0.1848 -0.5064  0.8324
   71MOL   H29646636   4.178   2.350   3.034 -1.2940 -0.0879 -0.3355
   71MOL   H29746637   4.152   2.220   2.916  1.2012  0.4463  0.2036
   71MOL   H29846638   4.284   2.201   3.017  1.1036  2.1876 -2.3905
   71MOL   C29946639   3.127   1.969   3.539 -0.2593  0.3335 -1.3284
   71MOL   C30046640   3.058   1.928   3.676  0.4169 -0.1312 -0.0037
   71MOL   C30146641   3.144   1.965   3.797 -0.1162  0.4969 -0.1819
   71MOL   C30246642   3.280   1.887   3.791 -0.0554  0.3245 -0.4830
   71MOL   C30346643   3.378   1.936   3.897 -0.0597  0.3547 -0.1857
   71MOL   C30446644   3.463   2.054   3.852  0.4697 -0.8136 -0.8519
   71MOL   C30546645   3.557   2.122   3.961  0.7564  0.1360  0.4358
   71MOL   C30646646   3.690   2.051   3.986 -0.6496 -0.3878 -0.0757
   71MOL   C30746647   3.783   2.122   4.076 -0.1839 -0.4096 -0.3274
   71MOL   C30846648   3.896   2.033   4.110 -0.1706 -0.7844  0.2647
   71MOL   C30946649   4.000   2.091   4.203 -0.0252 -0.2580 -0.0816
   71MOL   H31046650   3.211   1.902   3.525 -0.3242 -0.1435  0.4526
   71MOL   H31146651   3.061   1.937   3.458 -0.8483 -0.5423 -0.5180
   71MOL   H31246652   2.972   1.995   3.680 -2.0891 -3.3068  1.1616
   71MOL   H31346653   3.173   2.070   3.803  1.9806 -0.0883  0.1551
   71MOL   H31446654   3.093   1.956   3.893  1.2474  0.8169  0.5828
   71MOL   H31546655   3.268   1.779   3.803 -0.2031  0.5693  1.7101
   71MOL   H31646656   3.336   1.909   3.700 -2.2426 -1.3082 -2.2629
   71MOL   H31746657   3.330   1.974   3.987  0.9227  0.1911  0.4084
   71MOL   H31846658   3.449   1.859   3.927  1.5887  2.0931  0.4166
   71MOL   H31946659   3.395   2.137   3.830  1.2750  0.0129 -0.2832
   71MOL   H32046660   3.514   2.035   3.757  1.4290 -2.0748 -0.1023
   71MOL   H32146661   3.570   2.222   3.919  0.5339  0.8780  2.0928
   71MOL   H32246662   3.504   2.124   4.057  1.4294  3.1248  0.8194
   71MOL   H32346663   3.746   2.021   3.897 -2.3269  0.5525 -1.4575
   71MOL   H32446664   3.671   1.948   4.017  0.7196 -0.6763 -0.1197
   71MOL   H32546665   3.734   2.137   4.172  0.6990  0.2484  0.0337
   71MOL   H32646666   3.814   2.218   4.035 -0.7679  0.1257  0.4721
   71MOL   H32746667   3.941   2.006   4.014 -3.2309  0.9885 -1.7560
   71MOL   H32846668   3.860   1.941   4.157  3.6233 -1.3323  2.3497
   71MOL   H32946669   3.958   2.132   4.295  1.0462 -1.8318  1.1216
   71MOL   H33046670   4.067   2.012   4.236 -0.1897  0.5193  2.2256
   71MOL   H33146671   4.061   2.159   4.143  1.6942 -1.8217 -0.1308
   71MOL   C33246672   3.023   1.778   3.676 -0.3193 -0.2063  0.0177
   71MOL   C33346673   2.910   1.725   3.581 -0.4086 -0.2416 -0.0051
   71MOL   C33446674   2.775   1.806   3.598 -0.3653  0.2348 -0.5208
   71MOL   C33546675   2.666   1.772   3.501  0.2367  0.1228 -0.3819
   71MOL   C33646676   2.537   1.860   3.523 -0.9668 -0.0706  0.0821
   71MOL   C33746677   2.428   1.810   3.431 -0.5375  0.0251 -0.5482
   71MOL   C33846678   2.303   1.901   3.398 -0.2216 -0.4524 -0.6567
   71MOL   C33946679   2.205   1.846   3.298  0.3839  0.4174 -0.3636
   71MOL   C34046680   2.125   1.732   3.351 -0.0237  0.7001 -0.5065
   71MOL   C34146681   1.998   1.686   3.272  0.1064  0.3918  0.0746
   71MOL   C34246682   1.915   1.578   3.335  0.2276  0.2203  0.1976
   71MOL   H34346683   3.110   1.719   3.646 -0.6087 -1.1164  0.9525
   71MOL   H34446684   3.001   1.729   3.771 -0.0158  0.6774  0.5438
   71MOL   H34546685   2.923   1.733   3.473  0.9626 -2.3423 -0.0259
   71MOL   H34646686   2.794   1.912   3.587  0.5864  0.0767 -0.4679
   71MOL   H34746687   2.743   1.804   3.702 -0.0473  0.1989 -0.4215
   71MOL   H34846688   2.697   1.786   3.397 -2.6804  1.2688 -1.1511
   71MOL   H34946689   2.638   1.666   3.500 -0.6953  0.3528  1.0661
   71MOL   H35046690   2.514   1.838   3.627 -2.0012 -2.3707 -0.5981
   71MOL   H35146691   2.546   1.969   3.514  0.1048  0.0006  1.8795
   71MOL   H35246692   2.400   1.711   3.466 -0.7692 -0.4003 -1.9121
   71MOL   H35346693   2.472   1.805   3.332 -0.5187  0.9898 -0.5981
   71MOL   H35446694   2.347   1.998   3.373  1.5802 -1.1945 -0.4184
   71MOL   H35546695   2.256   1.924   3.493 -1.3567  1.0456 -1.5515
   71MOL   H35646696   2.132   1.922   3.268  0.8302  1.7036  1.6586
   71MOL   H35746697   2.255   1.814   3.207 -0.9774 -0.2606 -0.8886
   71MOL   H35846698   2.080   1.751   3.449  0.4957  0.5500 -0.2337
   71MOL   H35946699   2.198   1.652   3.364 -1.3716 -0.2101  1.9460
   71MOL   H36046700   2.022   1.651   3.171  1.6136  0.0240  0.5445
   71MOL   H36146701   1.934   1.774   3.269 -1.2989 -0.6046  0.2968
   71MOL   H36246702   1.893   1.614   3.436  0.9038  1.0808  0.0510
   71MOL   H36346703   1.820   1.550   3.291  0.7070 -0.9734 -0.1008
   71MOL   H36446704   1.960   1.478   3.332  0.8829  0.5037  0.3468
   71MOL   C36546705   2.890   1.563   3.599 -0.2706  0.0404 -0.5114
   71MOL   C36646706   2.975   1.473   3.501  0.2388 -0.5115  0.3741
   71MOL   C36746707   3.122   1.464   3.541 -0.8634  0.5662  0.4223
   71MOL   C36846708   3.226   1.555   3.468  0.2648  0.0297 -0.1416
   71MOL   C36946709   3.364   1.549   3.534 -0.0166 -0.5446 -0.1344
   71MOL   C37046710   3.463   1.632   3.458  0.1789  0.2210  0.0665
   71MOL   C37146711   3.574   1.689   3.553 -0.2515 -0.8263 -0.2769
   71MOL   C37246712   3.685   1.775   3.475  0.6970  0.5931 -0.3846
   71MOL   C37346713   3.780   1.857   3.571  0.0595 -0.5590  0.2671
   71MOL   C37446714   3.901   1.770   3.623 -0.5063 -0.3410  0.4276
   71MOL   C37546715   4.010   1.751   3.517 -0.2818  0.3641 -0.2674
   71MOL   H37646716   2.910   1.539   3.704 -0.6344  1.0375 -0.2060
   71MOL   H37746717   2.786   1.539   3.578 -0.0859  1.3247 -3.0340
   71MOL   H37846718   2.966   1.518   3.402 -0.9919 -0.9752  0.2618
   71MOL   H37946719   3.162   1.363   3.532  0.4471  1.1106  0.0288
   71MOL   H38046720   3.136   1.467   3.649  3.2925  0.3618 -0.0004
   71MOL   H38146721   3.200   1.661   3.459  0.0152  0.0231  0.5437
   71MOL   H38246722   3.248   1.523   3.366 -0.3974 -2.8611  0.5996
   71MOL   H38346723   3.400   1.446   3.531  0.4187 -0.3911 -0.0787
   71MOL   H38446724   3.351   1.598   3.631 -0.2969  0.0767 -0.4872
   71MOL   H38546725   3.417   1.721   3.416 -0.9384 -0.7728 -0.8287
   71MOL   H38646726   3.488   1.588   3.362  0.1367 -0.8233  0.5325
   71MOL   H38746727   3.526   1.768   3.610 -1.2037 -1.8773  0.3934
   71MOL   H38846728   3.613   1.620   3.627  0.6157  1.1492  1.1628
   71MOL   H38946729   3.637   1.843   3.404 -1.0434  2.2125  2.2849
   71MOL   H39046730   3.746   1.705   3.417  0.6878  0.3476 -0.0982
   71MOL   H39146731   3.809   1.952   3.526  0.9327 -1.1200 -0.3648
   71MOL   H39246732   3.715   1.890   3.652  1.3450  1.4635  0.5177
   71MOL   H39346733   3.942   1.822   3.709 -1.1877 -2.4944  2.1084
   71MOL   H39446734   3.865   1.670   3.647  2.0743 -1.3175  0.4523
   71MOL   H39546735   4.092   1.683   3.539 -0.7047  0.3856  1.4727
   71MOL   H39646736   4.056   1.850   3.506  0.2540  0.0738 -0.6654
   71MOL   H39746737   3.976   1.725   3.417  1.0136 -0.1939 -0.5705
   71MOL   C39846738   2.910   1.339   3.475  0.0013 -0.5752 -0.1244
   71MOL   C39946739   2.984   1.240   3.376 -0.5236  0.2953 -0.7082
   71MOL   C40046740   3.019   1.302   3.238  0.1237 -0.1574  0.8329
   71MOL   C40146741   2.889   1.325   3.146 -0.2897 -0.0323  0.1565
   71MOL   C40246742   2.924   1.408   3.016 -0.7039  0.7730  0.4574
   71MOL   C40346743   2.796   1.450   2.932  0.1755  0.4025  0.0438
   71MOL   C40446744   2.754   1.590   2.983  0.5820 -0.2254 -0.4846
   71MOL   C40546745   2.625   1.651   2.934 -0.0524 -0.0317 -0.3869
   71MOL   C40646746   2.596   1.780   3.004  0.4631  0.5121 -0.0570
   71MOL   C40746747   2.456   1.826   2.967 -0.6270 -0.1641 -0.5986
   71MOL   C40846748   2.419   1.962   3.027 -0.1988 -0.4386 -0.5266
   71MOL   H40946749   2.811   1.356   3.433  0.8506 -1.6767 -2.6832
   71MOL   H41046750   2.897   1.299   3.576  1.6354  1.2106  0.8164
   71MOL   H41146751   3.081   1.208   3.415 -0.9785 -0.7109 -0.3797
   71MOL   H41246752   3.089   1.234   3.190  0.1825  0.9804 -0.7087
   71MOL   H41346753   3.073   1.395   3.253 -0.0045 -0.0108  0.3678
   71MOL   H41446754   2.841   1.233   3.112 -1.4962  0.4549  0.4973
   71MOL   H41546755   2.810   1.375   3.203  0.6523 -0.0812  1.5336
   71MOL   H41646756   2.962   1.506   3.044 -2.7081  0.9605  2.7001
   71MOL   H41746757   2.985   1.355   2.942  1.6471  2.2641  1.2711
   71MOL   H41846758   2.717   1.376   2.946  0.2692  0.1758 -0.6232
   71MOL   H41946759   2.818   1.457   2.826  0.0231  2.9517  0.1442
   71MOL   H42046760   2.754   1.577   3.091  2.0084 -0.4382 -0.5035
   71MOL   H42146761   2.833   1.660   2.959  0.5720 -0.0591 -0.0334
   71MOL   H42246762   2.548   1.575   2.944 -0.9079  0.8390 -0.3134
   71MOL   H42346763   2.644   1.660   2.828  1.2566 -1.4881 -0.2956
   71MOL   H42446764   2.610   1.776   3.112 -0.0370  0.9175  0.0250
   71MOL   H42546765   2.673   1.856   2.990  2.5997 -1.4660  0.6038
   71MOL   H42646766   2.391   1.744   2.997  1.0858 -2.1141 -2.0467
   71MOL   H42746767   2.438   1.845   2.861 -2.8546  0.0677 -0.1980
   71MOL   H42846768   2.460   2.056   2.990  0.8574  0.0790  1.8718
   71MOL   H42946769   2.457   1.969   3.129  1.8975 -1.7304 -1.1990
   71MOL   H43046770   2.310   1.965   3.024 -0.2476 -1.3583  0.3472
   71MOL   C43146771   2.887   1.122   3.365  0.1132 -0.6494 -0.0547
   71MOL   C43246772   2.949   0.995   3.307  0.3335  0.0520  0.0556
   71MOL   C43346773   2.832   0.907   3.272  0.4997  0.4341 -0.5144
   71MOL   C43446774   2.721   0.952   3.175 -0.6533 -0.0255 -0.2745
   71MOL   C43546775   2.613   0.851   3.136 -0.3563 -0.1866 -0.1954
   71MOL   C43646776   2.522   0.900   3.024 -0.2750  0.2930 -0.4265
   71MOL   C43746777   2.386   0.822   3.017  0.8139 -0.6514 -0.1315
   71MOL   C43846778   2.294   0.888   2.919 -0.5375 -0.3804 -0.6225
   71MOL   C43946779   2.162   0.816   2.900  0.4970 -0.0375  0.5629
   71MOL   C44046780   2.084   0.874   2.784 -0.3048 -0.2544 -0.0082
   71MOL   C44146781   1.971   0.794   2.746 -0.1951 -0.3610  0.0073
   71MOL   H44246782   2.800   1.164   3.314 -0.0059  2.3829  2.5008
   71MOL   H44346783   2.836   1.094   3.457 -2.8560  1.3403 -1.0231
   71MOL   H44446784   3.002   1.014   3.213 -0.9740  0.3181 -0.6568
   71MOL   H44546785   2.864   0.807   3.241 -1.5717 -0.5495  0.4141
   71MOL   H44646786   2.780   0.872   3.361  3.1647 -1.3710  0.3790
   71MOL   H44746787   2.778   0.970   3.084 -1.3991  1.9408 -0.3811
   71MOL   H44846788   2.681   1.048   3.208  0.5615  0.0423  1.0318
   71MOL   H44946789   2.554   0.823   3.222 -0.9360 -1.4296 -0.9851
   71MOL   H45046790   2.653   0.759   3.093 -0.5508  0.7780 -2.5740
   71MOL   H45146791   2.566   0.907   2.925 -0.0355 -0.8196 -0.4034
   71MOL   H45246792   2.493   1.001   3.054  1.0819  0.8402 -0.8981
   71MOL   H45346793   2.329   0.822   3.110  2.2723 -0.2214  0.7736
   71MOL   H45446794   2.418   0.723   2.983 -1.4475 -1.7146  0.7256
   71MOL   H45546795   2.290   0.987   2.965 -1.7363  0.2978 -2.1262
   71MOL   H45646796   2.350   0.887   2.826  0.4249  1.9307 -0.1057
   71MOL   H45746797   2.113   0.814   2.997  0.8581 -0.7608  0.7385
   71MOL   H45846798   2.174   0.713   2.866 -0.1889  0.9411 -2.8228
   71MOL   H45946799   2.146   0.892   2.696 -0.4993  0.9915  0.0965
   71MOL   H46046800   2.049   0.972   2.818 -0.3060 -0.3748  0.3485
   71MOL   H46146801   1.922   0.860   2.676 -1.6622 -1.0684  0.3343
   71MOL   H46246802   1.991   0.700   2.695 -1.1606  1.7052 -4.3935
   71MOL   H46346803   1.894   0.780   2.822 -0.5979  0.7292 -0.1929
   71MOL   C46446804   3.038   0.921   3.406 -0.1491  0.1180  0.0416
   71MOL   C46546805   3.121   0.805   3.339 -0.1706 -0.2147  0.2859
   71MOL   C46646806   3.259   0.850   3.286 -0.2925  0.5087  0.2914
   71MOL   C46746807   3.278   0.975   3.197  0.2221 -0.3536 -0.2854
   71MOL   C46846808   3.421   0.994   3.143 -0.6163  0.0921 -0.0902
   71MOL   C46946809   3.461   1.146   3.125 -0.0899  0.3168  0.1243
   71MOL   C47046810   3.496   1.216   3.259  0.4621 -0.0470  0.8830
   71MOL   C47146811   3.637   1.189   3.307  1.3751 -0.0144 -0.0169
   71MOL   C47246812   3.672   1.283   3.419  0.5680  0.1751 -0.2158
   71MOL   C47346813   3.823   1.305   3.425  0.3868  0.2871  0.0427
   71MOL   C47446814   3.856   1.403   3.539 -0.1810  0.1360 -0.5314
   71MOL   H47546815   2.969   0.877   3.478 -1.1395  0.1334 -0.8880
   71MOL   H47646816   3.109   0.987   3.457  1.2874  0.5702 -2.4753
   71MOL   H47746817   3.070   0.785   3.245 -1.3298  0.7917  0.6960
   71MOL   H47846818   3.305   0.764   3.240  0.5444  0.0043  2.0172
   71MOL   H47946819   3.323   0.858   3.374 -0.5063  1.0975  0.3991
   71MOL   H48046820   3.223   0.957   3.105 -0.0876 -3.3045  0.4090
   71MOL   H48146821   3.231   1.056   3.252  0.3231  0.5280 -1.4920
   71MOL   H48246822   3.419   0.944   3.046  1.6543  1.1982 -0.7376
   71MOL   H48346823   3.497   0.938   3.198 -1.2367  1.4429  2.2220
   71MOL   H48446824   3.541   1.153   3.052  0.0698 -0.5239  0.2085
   71MOL   H48546825   3.381   1.199   3.072  0.8203 -0.0748 -1.6756
   71MOL   H48646826   3.498   1.321   3.231  1.1843 -0.2152  0.2992
   71MOL   H48746827   3.421   1.198   3.336  1.3697 -2.3637  1.2832
   71MOL   H48846828   3.647   1.087   3.344  0.4039 -0.3004 -0.5280
   71MOL   H48946829   3.714   1.217   3.235  1.5946 -0.9574 -0.1513
   71MOL   H49046830   3.618   1.376   3.407 -0.0461 -0.1450  0.0298
   71MOL   H49146831   3.636   1.245   3.515 -0.7655  1.4242 -0.2120
   71MOL   H49246832   3.879   1.216   3.453  3.4447  2.0221 -0.3030
   71MOL   H49346833   3.882   1.337   3.339 -0.5595  1.9179 -0.0275
   71MOL   H49446834   3.803   1.387   3.634  0.2396 -3.3767 -0.8400
   71MOL   H49546835   3.835   1.504   3.503  1.5072 -0.4409 -3.2178
   71MOL   H49646836   3.962   1.401   3.563 -0.2892 -0.0026 -0.0515
   71MOL   C49746837   3.129   0.669   3.418  0.3109 -0.5762  0.0521
   71MOL   C49846838   3.002   0.582   3.418 -0.3616  0.4603  0.5397
   71MOL   C49946839   3.016   0.477   3.524  0.7149 -0.1782  0.2547
   71MOL   C50046840   2.944   0.523   3.657 -0.9229 -0.2472  0.0046
   71MOL   C50146841   2.949   0.423   3.776 -0.0495 -0.3026  0.0328
   71MOL   C50246842   2.929   0.480   3.916 -0.4609 -0.1290  0.2934
   71MOL   C50346843   2.789   0.541   3.932  0.1644 -0.3637  0.1641
   71MOL   C50446844   2.736   0.552   4.073 -0.4914  0.0031 -0.3594
   71MOL   C50546845   2.683   0.419   4.140  0.1628 -0.2202  0.3438
   71MOL   C50646846   2.793   0.326   4.187 -0.0332  0.2652 -0.4667
   71MOL   C50746847   2.740   0.203   4.266 -0.5561 -0.7550 -0.1549
   71MOL   H50846848   3.211   0.610   3.378  0.6623  0.2804 -0.5039
   71MOL   H50946849   3.166   0.696   3.517 -0.7122  1.0046  0.0180
   71MOL   H51046850   2.915   0.648   3.429  0.7667  1.8843  1.0152
   71MOL   H51146851   3.122   0.451   3.527  0.1403 -2.7717 -0.1954
   71MOL   H51246852   2.971   0.380   3.500  1.0232 -0.5673  1.2161
   71MOL   H51346853   2.843   0.557   3.631 -0.2685  1.8880  0.1173
   71MOL   H51446854   2.996   0.615   3.683  0.8926 -0.5439 -2.4274
   71MOL   H51546855   2.885   0.339   3.748  0.2776 -0.3639 -0.5293
   71MOL   H51646856   3.049   0.380   3.768  0.3645  0.4818  0.9065
   71MOL   H51746857   2.963   0.409   3.991 -2.0604 -0.5976  0.5748
   71MOL   H51846858   2.998   0.565   3.928 -0.1353 -0.4339  0.5972
   71MOL   H51946859   2.788   0.636   3.879  0.2264 -0.8273 -0.6641
   71MOL   H52046860   2.719   0.473   3.883 -1.0058  0.5062  0.5928
   71MOL   H52146861   2.650   0.618   4.064  0.0604  0.4764 -2.2918
   71MOL   H52246862   2.805   0.601   4.142 -0.5139 -1.6228  0.8523
   71MOL   H52346863   2.623   0.380   4.058  0.5390  0.7181 -0.3744
   71MOL   H52446864   2.613   0.437   4.222 -0.5511  0.7761 -0.4692
   71MOL   H52546865   2.874   0.375   4.241  0.3076  0.0882 -0.8120
   71MOL   H52646866   2.841   0.291   4.096 -0.3062  2.6651 -1.5778
   71MOL   H52746867   2.709   0.227   4.368  1.0489 -2.7409  0.8308
   71MOL   H52846868   2.811   0.121   4.279 -0.1445 -0.2838  0.6461
   71MOL   H52946869   2.651   0.162   4.218 -1.9135  1.2438  0.5719
   71MOL   C53046870   2.986   0.511   3.279 -0.4025  0.2132 -0.1057
   71MOL   C53146871   2.837   0.509   3.220 -0.0609  0.4896 -0.4873
   71MOL   C53246872   2.746   0.435   3.316  0.1684  0.0550  0.1983
   71MOL   C53346873   2.600   0.443   3.277  0.2599  0.2927  0.0176
   71MOL   C53446874   2.515   0.383   3.389  0.4074 -0.2440  0.1317
   71MOL   C53546875   2.363   0.370   3.348  0.3345 -0.0547  0.2561
   71MOL   C53646876   2.310   0.503   3.295  0.6063  0.0618  0.0037
   71MOL   C53746877   2.166   0.497   3.252 -0.2745 -0.4990 -0.2253
   71MOL   C53846878   2.069   0.463   3.368  0.4291 -0.7127  0.3936
   71MOL   C53946879   1.927   0.419   3.334  0.7015 -0.6430 -0.6559
   71MOL   C54046880   1.906   0.277   3.277 -0.0801  0.5641 -0.1627
   71MOL   H54146881   3.033   0.571   3.201  0.6758 -0.5264 -0.0393
   71MOL   H54246882   3.028   0.411   3.275  1.5009  1.0130 -0.6778
   71MOL   H54346883   2.818   0.616   3.213  2.1684  0.8182 -2.3910
   71MOL   H54446884   2.749   0.475   3.418 -3.4975 -0.3524  0.5248
   71MOL   H54546885   2.772   0.329   3.326 -2.2210 -0.7230 -1.3650
   71MOL   H54646886   2.571   0.387   3.188  0.3845 -0.4697  0.4480
   71MOL   H54746887   2.571   0.548   3.271  2.0662  0.8088 -0.0127
   71MOL   H54846888   2.515   0.438   3.483  1.8088 -2.1155  1.2554
   71MOL   H54946889   2.554   0.288   3.424 -1.4828 -0.4057  1.8859
   71MOL   H55046890   2.314   0.348   3.443 -2.6284 -2.1809 -1.6888
   71MOL   H55146891   2.346   0.285   3.282  1.7139 -1.3671  1.5399
   71MOL   H55246892   2.363   0.529   3.203  1.3528 -2.9230 -0.4661
   71MOL   H55346893   2.331   0.584   3.365  0.0088  1.6572 -1.6158
   71MOL   H55446894   2.149   0.411   3.187 -0.9437 -1.5151  1.2839
   71MOL   H55546895   2.154   0.591   3.197  1.8280  1.3350  2.3638
   71MOL   H55646896   2.065   0.541   3.445 -0.9041 -0.3656 -0.0221
   71MOL   H55746897   2.115   0.381   3.422  0.9239 -0.9017 -0.3100
   71MOL   H55846898   1.887   0.485   3.258  0.7273  0.7213  0.4846
   71MOL   H55946899   1.868   0.427   3.426 -1.7478 -1.0304 -2.1581
   71MOL   H56046900   1.944   0.204   3.349 -1.5292 -0.3600 -0.3189
   71MOL   H56146901   1.802   0.247   3.268  0.5055 -1.5594 -0.1637
   71MOL   H56246902   1.940   0.260   3.175 -1.3018  1.4225 -0.7261
   71MOL   C56346903   2.832   0.454   3.068 -0.1137 -0.3225  0.0028
   71MOL   C56446904   2.868   0.561   2.957 -0.0590  0.7302  0.0805
   71MOL   C56546905   2.782   0.533   2.829 -0.5277 -0.3864  0.1003
   71MOL   C56646906   2.638   0.591   2.836 -0.0036  0.1903 -0.3101
   71MOL   C56746907   2.544   0.564   2.720 -0.1601  0.2916 -0.7123
   71MOL   C56846908   2.563   0.664   2.598 -0.2856 -0.1273  0.1103
   71MOL   C56946909   2.475   0.645   2.476 -0.3025 -0.2448 -0.3536
   71MOL   C57046910   2.326   0.668   2.496  0.1437 -0.1276  0.2656
   71MOL   C57146911   2.252   0.584   2.390  0.3839 -0.7190 -0.2810
   71MOL   C57246912   2.102   0.577   2.426  0.2428  0.0108 -0.0592
   71MOL   C57346913   2.033   0.511   2.309 -0.1904  0.4260  0.3754
   71MOL   H57446914   2.728   0.430   3.043 -0.2755  0.2615  0.1033
   71MOL   H57546915   2.882   0.358   3.069  1.1474  0.3279  0.9489
   71MOL   H57646916   2.855   0.663   2.992 -0.5226  0.9640 -0.7563
   71MOL   H57746917   2.781   0.424   2.827 -3.2157 -0.4236  0.8245
   71MOL   H57846918   2.835   0.572   2.743 -1.8545  0.3026 -0.4244
   71MOL   H57946919   2.642   0.698   2.856  1.4172  0.1610 -0.3571
   71MOL   H58046920   2.584   0.544   2.917 -2.1268  0.1687 -1.7017
   71MOL   H58146921   2.437   0.572   2.739 -0.3299  0.9878 -1.9092
   71MOL   H58246922   2.555   0.459   2.693  0.2674  0.0707  0.2985
   71MOL   H58346923   2.547   0.772   2.609 -3.1512 -0.0330 -3.7253
   71MOL   H58446924   2.670   0.655   2.575 -0.5850 -0.2994 -1.2593
   71MOL   H58546925   2.502   0.708   2.391 -0.6233  0.1143 -0.1885
   71MOL   H58646926   2.500   0.544   2.444  1.1665 -0.2154  0.6062
   71MOL   H58746927   2.313   0.776   2.491 -1.5223 -0.2465  1.4114
   71MOL   H58846928   2.289   0.644   2.596  0.7396 -1.8050  0.1002
   71MOL   H58946929   2.292   0.483   2.389 -0.3556 -1.0155  0.0959
   71MOL   H59046930   2.280   0.622   2.292 -1.7205 -0.4437 -0.7979
   71MOL   H59146931   2.056   0.675   2.440 -0.1013 -0.5607  3.1433
   71MOL   H59246932   2.085   0.515   2.514  2.3620 -0.0832  0.2960
   71MOL   H59346933   1.930   0.486   2.334  0.9442 -3.5941  1.4187
   71MOL   H59446934   2.033   0.574   2.221  1.0109 -0.2665 -0.1415
   71MOL   H59546935   2.073   0.411   2.290  3.6097  2.2639 -1.9782
   71MOL   C59646936   3.021   0.551   2.917  0.0746 -0.1660 -0.0956
   71MOL   C59746937   3.096   0.673   2.871 -0.1353  0.4131  0.1469
   71MOL   C59846938   3.043   0.750   2.751 -0.2383 -0.2423  0.2188
   71MOL   C59946939   2.934   0.859   2.767 -0.6130  0.2285 -0.4613
   71MOL   C60046940   2.900   0.925   2.634  0.1563 -0.0775 -0.1669
   71MOL   C60146941   2.790   1.029   2.653  0.7452 -0.0385  0.0705
   71MOL   C60246942   2.740   1.083   2.514  0.0252 -0.2353 -0.1070
   71MOL   C60346943   2.682   0.988   2.411  0.3138 -0.6873  0.0969
   71MOL   C60446944   2.659   1.051   2.274 -0.4483  0.2614  0.0105
   71MOL   C60546945   2.781   1.117   2.202 -0.7941 -0.8158 -0.1526
   71MOL   C60646946   2.758   1.189   2.069  0.5664  0.8208 -0.0766
   71MOL   H60746947   3.071   0.524   3.010  1.6390  2.5595 -0.0854
   71MOL   H60846948   3.030   0.468   2.847  1.3658 -0.5465  0.5047
   71MOL   H60946949   3.096   0.750   2.948  1.5551 -0.4974  1.0945
   71MOL   H61046950   3.013   0.677   2.676 -2.1864  0.2326  0.5124
   71MOL   H61146951   3.129   0.802   2.708 -0.6269  1.2674  1.2437
   71MOL   H61246952   2.963   0.938   2.837  1.0776 -1.9545  1.4024
   71MOL   H61346953   2.845   0.815   2.812  0.3798  0.4695  1.8626
   71MOL   H61446954   2.884   0.845   2.563  2.5135 -0.3839 -0.4171
   71MOL   H61546955   2.988   0.976   2.594 -1.9052  1.1782 -3.2614
   71MOL   H61646956   2.708   0.982   2.707 -0.7183  0.4703 -1.6568
   71MOL   H61746957   2.812   1.114   2.719 -1.8757  1.5571 -1.0405
   71MOL   H61846958   2.821   1.145   2.477 -0.1356  1.0940  1.6912
   71MOL   H61946959   2.671   1.166   2.530 -1.2399 -1.1035 -0.9890
   71MOL   H62046960   2.586   0.945   2.437 -0.6190  0.1975 -1.8355
   71MOL   H62146961   2.744   0.898   2.407 -0.7806 -1.4602  0.5393
   71MOL   H62246962   2.624   0.966   2.216  2.2512 -0.3577 -0.7933
   71MOL   H62346963   2.582   1.128   2.281  1.0260  1.7734 -0.0517
   71MOL   H62446964   2.856   1.042   2.180 -0.3536 -0.5473  0.4295
   71MOL   H62546965   2.828   1.197   2.260  0.1977  0.5694 -2.7921
   71MOL   H62646966   2.734   1.114   1.993  0.3876 -0.6162  1.3690
   71MOL   H62746967   2.684   1.268   2.078  0.2154  0.2451  2.4589
   71MOL   H62846968   2.845   1.241   2.028  0.5963 -1.1646 -2.6500
   71MOL   C62946969   3.242   0.640   2.841 -0.0018 -0.2450 -0.1678
   71MOL   C63046970   3.257   0.539   2.724 -0.2640  0.5536 -0.0569
   71MOL   C63146971   3.402   0.531   2.662  0.1261 -0.3614  0.0729
   71MOL   C63246972   3.417   0.420   2.558  0.1266  0.7416 -0.5715
   71MOL   C63346973   3.336   0.429   2.431  0.0663  0.1423 -0.0175
   71MOL   C63446974   3.339   0.298   2.344  0.5918  0.1456  0.0038
   71MOL   C63546975   3.283   0.322   2.201 -0.0142  0.2541 -0.4486
   71MOL   C63646976   3.255   0.190   2.128 -0.2241  0.0885  0.1331
   71MOL   C63746977   3.168   0.211   1.997 -0.1572 -0.2418  0.5740
   71MOL   C63846978   3.146   0.079   1.925  0.1002  0.9207  0.2371
   71MOL   C63946979   3.061   0.097   1.802 -0.0028  0.0567 -0.5572
   71MOL   H64046980   3.292   0.735   2.824 -0.9183 -0.0044 -1.5348
   71MOL   H64146981   3.293   0.600   2.930 -0.4408  0.6338  0.4849
   71MOL   H64246982   3.231   0.442   2.767  2.2428  0.4613  1.3501
   71MOL   H64346983   3.434   0.629   2.625  1.4688 -0.2877  1.3954
   71MOL   H64446984   3.473   0.529   2.744  1.2718 -2.1197 -0.9181
   71MOL   H64546985   3.416   0.328   2.618 -0.2189 -0.6380 -2.6285
   71MOL   H64646986   3.516   0.425   2.514  0.7040  0.2000  0.6535
   71MOL   H64746987   3.387   0.507   2.373  1.9806 -0.3300  0.9925
   71MOL   H64846988   3.231   0.456   2.442  0.1647  1.2566 -1.5959
   71MOL   H64946989   3.282   0.219   2.392 -1.8211  0.8160 -1.6114
   71MOL   H65046990   3.441   0.260   2.342  0.9280  0.9841  0.7417
   71MOL   H65146991   3.329   0.396   2.136  1.2482 -2.8061 -3.1697
   71MOL   H65246992   3.193   0.383   2.208  0.1905  0.4154  0.8901
   71MOL   H65346993   3.200   0.119   2.189  0.5638 -2.0594 -1.6158
   71MOL   H65446994   3.346   0.137   2.100 -1.0357 -0.8777 -0.6886
   71MOL   H65546995   3.219   0.275   1.926  0.1169 -0.0442  0.9492
   71MOL   H65646996   3.069   0.252   2.018  0.7273  1.4159  1.6279
   71MOL   H65746997   3.100   0.013   1.998  0.2679 -0.5415 -0.9590
   71MOL   H65846998   3.247   0.046   1.900 -0.8780 -3.0541  1.1466
   71MOL   H65946999   2.971   0.156   1.822 -1.5380 -2.3226 -0.1163
   71MOL   H66047000   3.025   7.699   1.780  1.6580 -0.9250  1.0756
   71MOL   H66147001   3.116   0.141   1.719 -1.1654 -0.2270 -1.4986
   71MOL   H66247002   3.192   0.559   2.639 -0.8042 -1.6148 -0.1997
   72MOL     C147003   0.300   2.869   6.554 -0.0994  0.1865  0.0548
   72MOL     C247004   0.409   2.968   6.525 -0.0230 -0.2031  0.1076
   72MOL     C347005   0.436   3.058   6.651  0.0898  0.9346  0.4655
   72MOL     C447006   0.329   3.170   6.684 -0.4911 -0.3648 -0.0531
   72MOL     C547007   0.384   3.272   6.784  0.1334 -1.1387 -0.2331
   72MOL     C647008   0.372   3.251   6.934 -0.7760 -0.0229  0.0449
   72MOL     C747009   0.481   3.315   7.019  0.1462  0.1789  0.6792
   72MOL     C847010   0.446   3.322   7.167 -0.1567 -0.3547 -0.5767
   72MOL     C947011   0.565   3.363   7.262  0.1665 -0.2183  0.2229
   72MOL    C1047012   0.524   3.366   7.412  0.1717  0.0488  0.7769
   72MOL    C1147013   0.439   3.482   7.456  0.5623 -0.6511  0.1863
   72MOL    H1247014   0.204   2.903   6.593  0.9313  2.6925  0.5404
   72MOL    H1347015   0.321   2.801   6.637  0.5266 -0.0698 -0.3093
   72MOL    H1447016   0.374   3.026   6.440 -1.6559  0.7339  1.3928
   72MOL    H1547017   0.531   3.109   6.635  1.2648 -0.6709  2.0461
   72MOL    H1647018   0.450   2.991   6.736 -0.0601  0.8758  0.4453
   72MOL    H1747019   0.232   3.125   6.707 -0.7720  0.7857  1.0704
   72MOL    H1847020   0.310   3.226   6.593 -0.1569  2.2494  1.4269
   72MOL    H1947021   0.488   3.295   6.762 -0.3658  0.1467 -1.2954
   72MOL    H2047022   0.319   3.359   6.767  1.1877 -0.7997 -2.6632
   72MOL    H2147023   0.387   3.145   6.956 -0.4756 -0.2425 -1.1597
   72MOL    H2247024   0.276   3.290   6.968 -1.3807 -1.6886  0.2894
   72MOL    H2347025   0.570   3.252   7.015 -0.9897 -1.5095  1.6558
   72MOL    H2447026   0.502   3.416   6.983 -0.0214 -0.3925 -1.0712
   72MOL    H2547027   0.415   3.221   7.194 -1.3072  0.8094  2.7425
   72MOL    H2647028   0.359   3.387   7.183 -1.9198 -2.7927 -0.0439
   72MOL    H2747029   0.598   3.466   7.246 -3.5368  1.1659  0.9160
   72MOL    H2847030   0.646   3.291   7.256  1.5344  1.3087  0.0010
   72MOL    H2947031   0.612   3.367   7.475  0.4886 -0.2719  0.3421
   72MOL    H3047032   0.478   3.273   7.444  1.2692 -0.0438  2.0869
   72MOL    H3147033   0.479   3.580   7.429 -0.6477 -0.0806  0.4153
   72MOL    H3247034   0.338   3.462   7.420  1.2209  0.2929 -2.3074
   72MOL    H3347035   0.421   3.486   7.563 -0.4124  0.5977 -0.0076
   72MOL    H3447036   0.278   2.805   6.468  0.2937 -1.0552  0.8605
   72MOL    C3547037   0.530   2.883   6.484 -0.8009  0.5082  0.0633
   72MOL    C3647038   0.663   2.945   6.449  0.8954 -0.0671  0.3652
   72MOL    C3747039   0.778   2.848   6.442 -0.4075  0.0032 -0.3296
   72MOL    C3847040   0.920   2.896   6.447  0.2661 -0.5091  0.0132
   72MOL    C3947041   1.021   2.814   6.528 -0.9105  0.3575 -0.2246
   72MOL    C4047042   1.163   2.858   6.502 -0.0470 -0.2894  0.0492
   72MOL    C4147043   1.199   2.997   6.560 -0.0954 -0.6143 -0.4790
   72MOL    C4247044   1.341   3.039   6.544 -0.0106 -0.3349  0.3901
   72MOL    C4347045   1.364   3.177   6.614 -0.3813 -0.2006 -0.3088
   72MOL    C4447046   1.483   3.255   6.554 -0.4569 -0.4151  0.2380
   72MOL    C4547047   1.489   3.399   6.616  0.4633 -0.5416  0.3633
   72MOL    H4647048   0.498   2.842   6.388 -0.5472  0.5667 -0.0462
   72MOL    H4747049   0.543   2.800   6.553  0.1414  0.5881 -0.0107
   72MOL    H4847050   0.693   3.021   6.521  1.9600  0.3933 -0.5631
   72MOL    H4947051   0.770   2.786   6.530  0.7873  1.2398  0.6671
   72MOL    H5047052   0.770   2.785   6.353  1.0087  1.2224 -1.3626
   72MOL    H5147053   0.930   3.001   6.474 -0.2730 -0.0783 -1.4313
   72MOL    H5247054   0.949   2.915   6.343 -0.7489  0.3323 -0.1139
   72MOL    H5347055   1.002   2.708   6.506  0.9640  0.1817 -1.0583
   72MOL    H5447056   0.999   2.820   6.635  0.9314  0.7585  0.1446
   72MOL    H5547057   1.184   2.855   6.395 -1.9569  1.7365 -0.4122
   72MOL    H5647058   1.238   2.791   6.543  0.5833  0.8698  0.8058
   72MOL    H5747059   1.134   3.068   6.509  1.0266  1.3421  0.7420
   72MOL    H5847060   1.164   3.005   6.663  0.0526  1.8513 -0.5896
   72MOL    H5947061   1.358   3.065   6.439 -1.9342  2.2714  0.6875
   72MOL    H6047062   1.414   2.965   6.577  0.7989  0.4065  0.2913
   72MOL    H6147063   1.363   3.161   6.721 -2.4587 -1.2867 -0.4585
   72MOL    H6247064   1.275   3.234   6.587 -0.6377 -0.3549  0.2186
   72MOL    H6347065   1.577   3.208   6.583  0.3836  1.0922  0.0013
   72MOL    H6447066   1.478   3.256   6.445 -3.0530 -0.1389  0.3275
   72MOL    H6547067   1.572   3.462   6.585 -0.3621  1.0446  1.3233
   72MOL    H6647068   1.399   3.455   6.591 -0.0513 -0.6243  1.9761
   72MOL    H6747069   1.501   3.403   6.724  0.7069  0.9330  0.2924
   72MOL    C6847070   0.652   3.037   6.317 -0.9018 -0.2634 -0.2668
   72MOL    C6947071   0.623   2.963   6.181 -0.1405 -0.2773 -1.3555
   72MOL    C7047072   0.467   2.968   6.150  1.0879  0.0935  0.3496
   72MOL    C7147073   0.425   2.853   6.060  0.0884 -0.4458  0.6330
   72MOL    C7247074   0.288   2.883   5.981  0.5944  1.2363 -0.2493
   72MOL    C7347075   0.300   2.953   5.853  0.1749 -0.3082  0.2873
   72MOL    C7447076   0.160   2.972   5.786 -0.1977  0.2716  0.1510
   72MOL    C7547077   0.147   3.104   5.700 -0.1331 -0.1881  0.5746
   72MOL    C7647078   0.008   3.119   5.632 -0.9212  0.1611  0.4221
   72MOL    C7747079   7.703   3.242   5.534 -0.3968  0.1016  0.5489
   72MOL    C7847080   7.572   3.247   5.460 -0.3410 -0.7236 -0.5456
   72MOL    H7947081   0.751   3.080   6.306 -1.7690  1.3999 -1.8066
   72MOL    H8047082   0.588   3.123   6.335  1.4169  1.8298 -1.7374
   72MOL    H8147083   0.651   2.858   6.187  0.2695  0.0205  3.7113
   72MOL    H8247084   0.447   3.067   6.107  1.9887  0.9542  1.8641
   72MOL    H8347085   0.404   2.955   6.237 -0.8422 -0.1401 -1.0542
   72MOL    H8447086   0.506   2.811   6.000  0.8858 -0.2019  1.5320
   72MOL    H8547087   0.393   2.777   6.131 -0.7536 -1.2586 -0.5880
   72MOL    H8647088   0.221   2.940   6.045  0.7001  0.7100  0.3451
   72MOL    H8747089   0.240   2.790   5.950 -0.1325  2.5156 -3.0434
   72MOL    H8847090   0.346   3.051   5.871 -1.1205 -0.2156  3.2820
   72MOL    H8947091   0.366   2.898   5.785 -1.5659 -0.2776 -1.4705
   72MOL    H9047092   0.076   2.992   5.852  1.4572  3.6888  1.3153
   72MOL    H9147093   0.133   2.878   5.737  1.1800 -0.6731  1.1598
   72MOL    H9247094   0.158   3.192   5.764 -3.7749  1.9681 -1.5287
   72MOL    H9347095   0.225   3.119   5.625  0.0299 -0.6575  0.6518
   72MOL    H9447096   7.690   3.032   5.569  1.6475 -0.5019  0.3901
   72MOL    H9547097   7.633   3.125   5.707  1.3991  0.2207  2.9175
   72MOL    H9647098   0.027   3.335   5.584  1.9379 -0.4252  0.2879
   72MOL    H9747099   0.071   3.233   5.452  0.1334  0.7968  0.9309
   72MOL    H9847100   7.493   3.265   5.533 -1.4718 -2.1495 -1.3865
   72MOL    H9947101   7.569   3.155   5.401  2.7871  0.0904 -2.0593
   72MOL   H10047102   7.564   3.334   5.394 -1.0227 -0.7068 -0.4414
   72MOL   C10147103   0.704   3.025   6.062  0.0317  0.2903  0.0765
   72MOL   C10247104   0.858   3.012   6.065  0.0618  0.2745 -0.8008
   72MOL   C10347105   0.921   3.152   6.071  0.5069 -0.2675  0.0373
   72MOL   C10447106   1.069   3.162   6.105  0.4796  0.9924 -0.0406
   72MOL   C10547107   1.108   3.312   6.140  0.2609 -0.4626  0.0963
   72MOL   C10647108   1.259   3.314   6.186  0.0899  0.5371 -0.2620
   72MOL   C10747109   1.362   3.320   6.078  0.2663 -0.3887 -0.0592
   72MOL   C10847110   1.495   3.376   6.128 -0.1402 -0.2698 -0.3609
   72MOL   C10947111   1.498   3.522   6.165  0.1091 -0.4808 -0.0064
   72MOL   C11047112   1.630   3.586   6.127  0.8395 -0.4463 -0.0486
   72MOL   C11147113   1.656   3.725   6.186 -0.2035 -0.6224  0.2926
   72MOL   H11247114   0.664   2.989   5.966 -0.5033 -1.5743  0.9611
   72MOL   H11347115   0.695   3.133   6.065  0.3876  0.3710 -1.2371
   72MOL   H11447116   0.897   2.962   6.154 -1.4078 -2.4781 -1.6336
   72MOL   H11547117   0.911   3.189   5.969 -1.1975 -3.0633 -0.8803
   72MOL   H11647118   0.864   3.215   6.139 -3.0559 -1.1594 -2.0251
   72MOL   H11747119   1.100   3.091   6.182 -0.1824  2.0637  1.2493
   72MOL   H11847120   1.120   3.138   6.012 -0.2291  2.2372 -0.7696
   72MOL   H11947121   1.087   3.377   6.055  2.8027  0.8162  0.3873
   72MOL   H12047122   1.043   3.343   6.222 -0.0504 -2.4901  0.6479
   72MOL   H12147123   1.273   3.408   6.239 -0.4782 -0.1286  1.0862
   72MOL   H12247124   1.276   3.234   6.257  0.6584  1.5486  0.7444
   72MOL   H12347125   1.328   3.383   5.996 -0.1380  0.5168  0.7997
   72MOL   H12447126   1.377   3.222   6.032  1.5410 -1.5580  2.7124
   72MOL   H12547127   1.532   3.325   6.217 -2.1137  2.3134  2.0687
   72MOL   H12647128   1.572   3.360   6.052  1.2931  0.7846  0.8311
   72MOL   H12747129   1.422   3.569   6.103  0.6353 -0.1715 -0.4273
   72MOL   H12847130   1.475   3.531   6.271 -0.7889  0.8775 -0.3132
   72MOL   H12947131   1.633   3.604   6.019 -0.9967  0.6829  0.0752
   72MOL   H13047132   1.719   3.531   6.157  1.1236  1.2379  2.2750
   72MOL   H13147133   1.739   3.777   6.138 -1.8721  1.2101 -0.7024
   72MOL   H13247134   1.573   3.796   6.179  0.4614  0.3932  2.2118
   72MOL   H13347135   1.677   3.713   6.292  1.9691 -1.5901 -0.2108
   72MOL   C13447136   0.915   2.924   5.952 -0.4574 -0.3217  0.2785
   72MOL   C13547137   0.865   2.777   5.936  0.1472 -0.3144  0.2635
   72MOL   C13647138   0.904   2.704   6.066 -0.6423 -0.7741 -0.6284
   72MOL   C13747139   1.058   2.686   6.090 -0.4816 -0.3522  0.2590
   72MOL   C13847140   1.090   2.599   6.213  0.2783  0.5147 -0.2566
   72MOL   C13947141   1.240   2.578   6.227 -0.2111 -0.1400 -0.1563
   72MOL   C14047142   1.285   2.473   6.321 -0.1787 -0.3653  0.7401
   72MOL   C14147143   1.439   2.467   6.311 -0.5686  0.3670 -0.2568
   72MOL   C14247144   1.501   2.341   6.369 -0.1532  0.2018  0.3370
   72MOL   C14347145   1.493   2.345   6.528 -0.3095 -0.4662  0.7016
   72MOL   C14447146   1.550   2.209   6.589  0.1322  0.1367  0.2096
   72MOL   H14547147   0.892   2.977   5.860  3.5656 -0.5100 -0.9596
   72MOL   H14647148   1.023   2.928   5.934 -0.7156 -3.2345 -2.3378
   72MOL   H14747149   0.757   2.783   5.929  0.2850 -1.1335 -3.3221
   72MOL   H14847150   0.850   2.612   6.085 -0.5687 -0.8713 -0.8809
   72MOL   H14947151   0.865   2.751   6.156 -0.2997 -0.3562 -0.6971
   72MOL   H15047152   1.107   2.636   6.007  1.4208  0.8874  0.5999
   72MOL   H15147153   1.109   2.782   6.084  0.0844 -0.6098  0.9198
   72MOL   H15247154   1.047   2.633   6.308  0.7842  0.3386  0.0373
   72MOL   H15347155   1.041   2.504   6.190  0.3569  0.6677 -1.0416
   72MOL   H15447156   1.282   2.554   6.129  1.1382 -1.0839  0.6356
   72MOL   H15547157   1.281   2.673   6.263 -1.4610 -0.2826  1.7237
   72MOL   H15647158   1.246   2.499   6.419  0.3150  1.5326  0.4583
   72MOL   H15747159   1.239   2.378   6.292  0.4079 -0.0468 -1.3445
   72MOL   H15847160   1.462   2.471   6.204 -0.2044 -1.1541 -0.2476
   72MOL   H15947161   1.492   2.547   6.362  0.9296 -1.5997  1.3138
   72MOL   H16047162   1.436   2.260   6.337 -0.3227  0.0334  1.0822
   72MOL   H16147163   1.605   2.321   6.342 -0.3872 -0.9639  0.2968
   72MOL   H16247164   1.555   2.427   6.564  1.9081 -0.3738 -2.9950
   72MOL   H16347165   1.388   2.366   6.545 -0.2884  1.2780 -1.0968
   72MOL   H16447166   1.539   2.129   6.517 -1.3324 -0.5214  1.1425
   72MOL   H16547167   1.486   2.183   6.673  1.4441  0.4653  1.3315
   72MOL   H16647168   1.646   2.212   6.642 -1.0140 -2.9104  2.5828
   72MOL   C16747169   0.908   2.706   5.804 -0.1654 -0.0852  0.8844
   72MOL   C16847170   0.853   2.569   5.758  0.4038 -0.7264  0.3578
   72MOL   C16947171   0.940   2.477   5.673  0.0441  0.1135 -0.3280
   72MOL   C17047172   0.986   2.531   5.535  0.3821 -0.1515 -0.4741
   72MOL   C17147173   1.080   2.432   5.463 -0.1922  0.3134 -0.2074
   72MOL   C17247174   1.155   2.488   5.338  0.2681  0.2927 -0.0650
   72MOL   C17347175   1.074   2.506   5.219  0.1491 -0.2490  0.2166
   72MOL   C17447176   1.151   2.536   5.088 -0.0039  0.3004  0.7845
   72MOL   C17547177   1.203   2.412   5.019  0.0469 -0.3589 -0.0070
   72MOL   C17647178   1.251   2.447   4.877  0.1310  0.1585 -0.1853
   72MOL   C17747179   1.354   2.360   4.816  0.0975  0.0481  0.3150
   72MOL   H17847180   0.902   2.770   5.716  0.3934  1.8398  2.2224
   72MOL   H17947181   1.014   2.687   5.820 -0.5437 -2.1200  1.0674
   72MOL   H18047182   0.860   2.528   5.858  1.2484  0.8957  0.9791
   72MOL   H18147183   0.881   2.387   5.656 -0.2056  0.2824 -0.3679
   72MOL   H18247184   1.033   2.451   5.723  0.4957  1.5688 -0.3903
   72MOL   H18347185   0.897   2.544   5.473  0.9755  0.2059 -1.2421
   72MOL   H18447186   1.033   2.629   5.545 -0.3484  0.2261 -0.6837
   72MOL   H18547187   1.045   2.332   5.437 -0.8851  0.3483  0.5591
   72MOL   H18647188   1.158   2.406   5.534  0.7861  2.4234 -0.4634
   72MOL   H18747189   1.215   2.573   5.370 -0.3621 -0.1930  2.5347
   72MOL   H18847190   1.229   2.414   5.307 -0.3294 -0.9479  1.3863
   72MOL   H18947191   1.002   2.582   5.251  0.5683  0.0131  0.5541
   72MOL   H19047192   1.018   2.413   5.212  1.4182 -1.1310  1.4843
   72MOL   H19147193   1.074   2.565   5.017  1.7878  0.2943 -1.2088
   72MOL   H19247194   1.218   2.621   5.094 -0.6081  0.6084  3.5390
   72MOL   H19347195   1.134   2.327   5.026  1.6054 -1.6171  0.2958
   72MOL   H19447196   1.284   2.368   5.077  0.0388 -1.1436 -0.5731
   72MOL   H19547197   1.292   2.548   4.883 -1.2795  0.6908  0.7871
   72MOL   H19647198   1.169   2.451   4.805  1.3542  2.1786 -1.5246
   72MOL   H19747199   1.369   2.382   4.710 -0.2877  0.2026  0.2922
   72MOL   H19847200   1.311   2.260   4.819  1.0047 -0.3469  0.2322
   72MOL   H19947201   1.452   2.354   4.863 -1.2073 -0.0328  3.1574
   72MOL   C20047202   0.706   2.572   5.709  0.2235  0.1358 -0.3331
   72MOL   C20147203   0.608   2.476   5.764 -0.2650  0.2613  0.3018
   72MOL   C20247204   0.477   2.484   5.684  0.0538 -0.3765 -0.3653
   72MOL   C20347205   0.478   2.385   5.563 -0.6601  0.2074  0.0094
   72MOL   C20447206   0.374   2.406   5.449  0.0923  0.6856  0.2216
   72MOL   C20547207   0.395   2.296   5.344  0.1355 -0.3741 -0.3003
   72MOL   C20647208   0.278   2.293   5.250  0.4013 -0.6611  0.3494
   72MOL   C20747209   0.273   2.175   5.147  0.1777  0.3336  0.1985
   72MOL   C20847210   0.152   2.165   5.050  0.5665  0.1416  0.5662
   72MOL   C20947211   0.162   2.270   4.943 -0.8087 -0.4633  0.2247
   72MOL   C21047212   0.053   2.254   4.823 -0.0533 -0.1203 -0.0115
   72MOL   H21147213   0.665   2.673   5.709 -0.2020 -0.0200  1.4745
   72MOL   H21247214   0.708   2.558   5.601 -1.0835  2.8016 -0.7523
   72MOL   H21347215   0.646   2.374   5.759  3.7854  1.7364 -0.5960
   72MOL   H21447216   0.458   2.589   5.666  3.1057 -0.1449 -2.4654
   72MOL   H21547217   0.391   2.457   5.746  0.1585 -0.3267 -0.1999
   72MOL   H21647218   0.461   2.288   5.612 -2.4048 -0.1605 -1.2473
   72MOL   H21747219   0.577   2.374   5.520  0.0744  2.1633  1.1733
   72MOL   H21847220   0.400   2.502   5.404  0.3805  0.2038 -0.6562
   72MOL   H21947221   0.276   2.400   5.498  0.7649  0.9988  1.6298
   72MOL   H22047222   0.486   2.318   5.288 -0.0829 -1.3414 -1.0516
   72MOL   H22147223   0.401   2.198   5.391 -0.8544  0.1070  0.8501
   72MOL   H22247224   0.276   2.389   5.200 -0.9191 -1.2176 -0.7052
   72MOL   H22347225   0.186   2.288   5.309  0.5998 -0.4614  0.6743
   72MOL   H22447226   0.288   2.086   5.208  0.9836 -0.9063 -1.7748
   72MOL   H22547227   0.369   2.178   5.096  0.7742  0.8758  1.3382
   72MOL   H22647228   0.064   2.190   5.108  1.4108  2.8242  0.7453
   72MOL   H22747229   0.144   2.067   5.003  1.4917  0.0271  0.6365
   72MOL   H22847230   0.154   2.365   4.995 -0.6697  0.3285 -1.1716
   72MOL   H22947231   0.260   2.267   4.897 -0.4390  0.6904  0.9155
   72MOL   H23047232   0.055   2.153   4.784 -2.3485 -0.6793  1.2188
   72MOL   H23147233   0.081   2.320   4.742 -0.3973  0.3176  0.2256
   72MOL   H23247234   7.657   2.287   4.855  0.4854  3.2106 -1.5716
   72MOL   C23347235   0.579   2.501   5.918 -0.5488 -0.1076 -1.1606
   72MOL   C23447236   0.569   2.376   6.008  0.1550  0.3257  0.0675
   72MOL   C23547237   0.489   2.400   6.131  0.0176 -0.5972 -0.2769
   72MOL   C23647238   0.540   2.500   6.233  0.2605 -0.0738 -0.2500
   72MOL   C23747239   0.437   2.543   6.341  0.4639 -0.2178  1.0149
   72MOL   C23847240   0.380   2.427   6.435  0.2138  0.4787 -0.0438
   72MOL   C23947241   0.436   2.423   6.576 -0.0565  0.7836  0.1792
   72MOL   C24047242   0.378   2.314   6.664 -0.1979  0.2387 -0.4677
   72MOL   C24147243   0.484   2.275   6.769 -0.0376  0.5137 -0.7405
   72MOL   C24247244   0.439   2.156   6.860  0.3526  0.5287  0.2652
   72MOL   C24347245   0.322   2.197   6.956 -0.2177 -0.0977 -0.1218
   72MOL   H24447246   0.489   2.563   5.925  0.2930  0.9792  0.1234
   72MOL   H24547247   0.651   2.561   5.974 -0.8312 -1.4116  0.6314
   72MOL   H24647248   0.505   2.312   5.946  2.7921 -1.5948 -0.7461
   72MOL   H24747249   0.390   2.438   6.107  0.4034  1.1344  0.7931
   72MOL   H24847250   0.474   2.311   6.192  0.4885 -0.4439  0.0630
   72MOL   H24947251   0.567   2.594   6.185  0.1170 -0.0450 -0.2734
   72MOL   H25047252   0.630   2.464   6.284 -0.7801 -0.3229  1.4688
   72MOL   H25147253   0.354   2.592   6.291 -0.6444 -0.4189  2.6401
   72MOL   H25247254   0.472   2.622   6.409  1.3042 -0.1661  0.5363
   72MOL   H25347255   0.394   2.327   6.393 -0.2264  0.4676 -0.1733
   72MOL   H25447256   0.272   2.438   6.447  0.0433 -2.5620  1.7073
   72MOL   H25547257   0.545   2.412   6.572 -0.3716 -2.2082 -2.0919
   72MOL   H25647258   0.430   2.526   6.611  1.3281  1.1067 -0.4636
   72MOL   H25747259   0.288   2.361   6.705 -1.0769 -1.9525  0.2133
   72MOL   H25847260   0.361   2.228   6.600 -1.6122 -0.9800  1.4724
   72MOL   H25947261   0.565   2.233   6.709  0.3525  1.4499 -0.8718
   72MOL   H26047262   0.515   2.357   6.833  0.8781 -0.0125 -0.4894
   72MOL   H26147263   0.525   2.141   6.926  0.9110  1.0086 -0.3399
   72MOL   H26247264   0.419   2.061   6.811  0.4833 -0.5108  2.1546
   72MOL   H26347265   0.223   2.206   6.911  0.4556 -0.2960 -1.6628
   72MOL   H26447266   0.339   2.290   7.009  0.5302 -0.4000  0.1789
   72MOL   H26547267   0.305   2.126   7.038 -0.3760  0.4056  0.2819
   72MOL   C26647268   0.707   2.319   6.029 -0.0166 -0.3611  0.5790
   72MOL   C26747269   0.717   2.178   6.075  0.0748  0.6650 -0.3528
   72MOL   C26847270   0.864   2.152   6.105  0.1993 -0.0336 -0.0890
   72MOL   C26947271   0.888   2.035   6.198  0.0569 -0.1509 -0.1443
   72MOL   C27047272   1.042   2.012   6.200  0.7889  0.5387  0.5058
   72MOL   C27147273   1.076   1.884   6.283  0.0483  0.2018 -0.2049
   72MOL   C27247274   1.226   1.876   6.307  0.2323 -0.2975  0.5514
   72MOL   C27347275   1.277   1.746   6.374 -0.4121  0.1834  0.2885
   72MOL   C27447276   1.421   1.744   6.420 -0.7888  0.3268  0.5853
   72MOL   C27547277   1.467   1.607   6.471  0.5572 -0.1523 -0.0459
   72MOL   C27647278   1.580   1.623   6.574  0.1209  0.5896 -0.7073
   72MOL   H27747279   0.761   2.385   6.097  1.1599 -0.2914 -0.4048
   72MOL   H27847280   0.749   2.321   5.929  0.9125 -0.0158  0.9726
   72MOL   H27947281   0.655   2.180   6.165 -0.6587  0.9300 -0.8601
   72MOL   H28047282   0.903   2.121   6.008 -1.0781 -0.5011 -0.4717
   72MOL   H28147283   0.911   2.238   6.153  1.1484 -1.6688  2.0010
   72MOL   H28247284   0.859   1.943   6.148  0.0893 -0.8786  1.1515
   72MOL   H28347285   0.835   2.050   6.293 -0.3125 -3.3263  0.1975
   72MOL   H28447286   1.097   2.101   6.233 -0.5631  1.4433  0.3677
   72MOL   H28547287   1.070   1.996   6.096  0.5182  0.9143  0.3748
   72MOL   H28647288   1.041   1.791   6.238 -1.6293  0.2558  0.9441
   72MOL   H28747289   1.027   1.894   6.379 -1.1023 -0.9026 -0.6606
   72MOL   H28847290   1.275   1.891   6.210  3.0623  0.5176  2.0557
   72MOL   H28947291   1.258   1.953   6.377  1.9192  1.1354 -1.7108
   72MOL   H29047292   1.257   1.673   6.296 -0.5224  1.8298 -1.2625
   72MOL   H29147293   1.207   1.718   6.453 -2.2967  1.6863 -0.7757
   72MOL   H29247294   1.497   1.783   6.352  0.2793 -0.9451  1.0144
   72MOL   H29347295   1.423   1.806   6.510 -0.0734 -0.5096  1.1621
   72MOL   H29447296   1.498   1.550   6.384  1.1978  0.5877 -0.3015
   72MOL   H29547297   1.391   1.537   6.507 -1.1127  1.1000 -1.0854
   72MOL   H29647298   1.546   1.677   6.663  2.1858 -0.3372  0.6893
   72MOL   H29747299   1.673   1.661   6.530 -0.0087 -2.4406 -3.7925
   72MOL   H29847300   1.599   1.522   6.609 -1.5774  0.5271  0.0718
   72MOL   C29947301   0.657   2.080   5.977  0.1426  0.1443  0.1176
   72MOL   C30047302   0.506   2.040   6.007  0.1426  0.2546  0.5771
   72MOL   C30147303   0.486   1.924   6.107  0.1686 -0.3135 -0.3060
   72MOL   C30247304   0.537   1.781   6.051  0.0821  0.0543 -0.0648
   72MOL   C30347305   0.567   1.687   6.163 -0.4385  0.2993  0.5427
   72MOL   C30447306   0.443   1.635   6.225  0.0115 -0.3994 -0.3229
   72MOL   C30547307   0.474   1.526   6.335  0.1251 -0.9089  0.5827
   72MOL   C30647308   0.355   1.489   6.422  0.9063  0.1079  0.2686
   72MOL   C30747309   0.374   1.400   6.550  0.1882 -0.0068  0.8074
   72MOL   C30847310   0.235   1.372   6.607 -0.2627 -0.3401 -0.0277
   72MOL   C30947311   0.224   1.245   6.689  0.6093  0.1269  0.0334
   72MOL   H31047312   0.717   1.989   5.973  0.6313  0.4227  1.0299
   72MOL   H31147313   0.667   2.119   5.876 -2.4623 -1.9411 -1.0045
   72MOL   H31247314   0.452   2.125   6.048  0.5134 -0.0349  1.6906
   72MOL   H31347315   0.549   1.948   6.193 -0.2418 -0.9816  0.1848
   72MOL   H31447316   0.383   1.913   6.141  1.1448  0.2754  3.0813
   72MOL   H31547317   0.457   1.735   5.992  0.1392  0.4323 -0.4356
   72MOL   H31647318   0.627   1.782   5.990 -0.7241 -1.0802 -1.2960
   72MOL   H31747319   0.622   1.596   6.138 -0.1981  0.5618  0.1188
   72MOL   H31847320   0.631   1.737   6.235  1.3118  1.1110 -1.5232
   72MOL   H31947321   0.376   1.607   6.144 -0.0007 -0.7870 -0.1786
   72MOL   H32047322   0.392   1.717   6.275 -0.3548 -0.8973  0.1166
   72MOL   H32147323   0.518   1.442   6.280  0.7781 -1.1639  1.4727
   72MOL   H32247324   0.560   1.560   6.393  0.4331  0.0004 -0.3925
   72MOL   H32347325   0.281   1.444   6.356  0.8480  0.4377  0.1034
   72MOL   H32447326   0.309   1.583   6.455 -1.1369 -0.4327 -0.9352
   72MOL   H32547327   0.435   1.460   6.617 -0.8519  1.8787  0.1106
   72MOL   H32647328   0.425   1.315   6.504 -0.2317  0.4894 -0.6122
   72MOL   H32747329   0.170   1.361   6.520 -0.8528  0.1014  0.3498
   72MOL   H32847330   0.193   1.457   6.660  1.3994  0.6297 -0.2526
   72MOL   H32947331   0.116   1.232   6.690  0.7156 -1.3443 -2.7626
   72MOL   H33047332   0.252   1.150   6.645  0.7629  0.4648 -0.6079
   72MOL   H33147333   0.249   1.252   6.795  0.8227  0.2575 -0.0267
   72MOL   C33247334   0.441   1.995   5.868  0.3891  0.1593  0.9325
   72MOL   C33347335   0.288   2.013   5.864 -0.4458 -0.3091  0.6954
   72MOL   C33447336   0.219   1.908   5.780  0.0624 -0.1309  0.2245
   72MOL   C33547337   0.244   1.909   5.631 -0.2004  0.0578  0.2909
   72MOL   C33647338   0.210   1.770   5.566  0.1005  0.3978 -0.7366
   72MOL   C33747339   0.224   1.778   5.412 -0.4218  0.8266 -0.3925
   72MOL   C33847340   0.355   1.833   5.358 -0.0006 -0.2347  0.8353
   72MOL   C33947341   0.352   1.804   5.208 -0.3011 -0.2044  0.3972
   72MOL   C34047342   0.488   1.836   5.139  0.2033  0.1478 -0.1704
   72MOL   C34147343   0.463   1.840   4.988  0.1176 -0.1623  0.4310
   72MOL   C34247344   0.592   1.836   4.905 -0.2128  0.6975 -0.2409
   72MOL   H34347345   0.479   2.060   5.789  3.3142 -0.6825  1.5708
   72MOL   H34447346   0.474   1.896   5.834  0.0446  0.3462  0.0311
   72MOL   H34547347   0.246   1.983   5.960  0.3114  0.0366  1.1310
   72MOL   H34647348   0.114   1.929   5.798 -0.2307  0.0414 -1.5443
   72MOL   H34747349   0.243   1.810   5.821  3.4895  0.7169  0.3945
   72MOL   H34847350   0.197   1.994   5.582  0.5706  0.6590  0.5734
   72MOL   H34947351   0.352   1.920   5.621 -0.5254  2.0162 -1.5749
   72MOL   H35047352   0.283   1.696   5.598 -0.1176  1.2415  1.8291
   72MOL   H35147353   0.109   1.741   5.595 -0.1967  3.7592  1.9249
   72MOL   H35247354   0.135   1.831   5.378 -0.2419  0.6402 -1.1739
   72MOL   H35347355   0.195   1.680   5.373 -1.2045 -0.4517  3.1862
   72MOL   H35447356   0.441   1.782   5.401  0.4570  1.0790  1.4985
   72MOL   H35547357   0.374   1.939   5.374  1.2387 -0.1181 -1.1386
   72MOL   H35647358   0.344   1.697   5.193  1.3030 -0.2809  0.0006
   72MOL   H35747359   0.263   1.849   5.164 -0.3925  0.4586  1.2471
   72MOL   H35847360   0.566   1.765   5.166 -1.1902 -1.7635 -1.0598
   72MOL   H35947361   0.526   1.934   5.169  1.4412 -0.9036  1.7927
   72MOL   H36047362   0.408   1.932   4.965 -1.1568 -0.5350  1.8796
   72MOL   H36147363   0.411   1.748   4.964 -0.8306  0.7879 -1.1971
   72MOL   H36247364   0.615   1.739   4.862  0.7981  0.5332  0.6346
   72MOL   H36347365   0.574   1.890   4.812 -1.1628  2.4103  0.9077
   72MOL   H36447366   0.677   1.889   4.948 -1.1642  0.6460  1.7932
   72MOL   C36547367   0.257   2.162   5.818  0.4920  0.1059 -0.1781
   72MOL   C36647368   0.106   2.202   5.832  0.6043  0.7553 -0.4066
   72MOL   C36747369   0.043   2.192   5.979 -0.6390 -0.0737  0.3460
   72MOL   C36847370   0.118   2.277   6.082  0.3177  0.8444 -0.1227
   72MOL   C36947371   0.064   2.280   6.224  0.3347  0.6229  0.1822
   72MOL   C37047372   0.108   2.169   6.320  0.5467  0.6400 -0.4960
   72MOL   C37147373   0.073   2.182   6.471 -0.7121  0.2084  0.5026
   72MOL   C37247374   0.083   2.041   6.533 -0.2743  0.2660  0.2204
   72MOL   C37347375   0.064   2.032   6.680 -0.2882  0.3391 -0.1279
   72MOL   C37447376   0.049   1.888   6.728  0.1473  0.3011 -0.3906
   72MOL   C37547377   0.031   1.897   6.875 -0.9612 -0.2606  0.0120
   72MOL   H37647378   0.312   2.235   5.877 -0.5160  0.9369 -0.2509
   72MOL   H37747379   0.282   2.161   5.712  0.4785 -2.6834 -0.2092
   72MOL   H37847380   0.058   2.127   5.769 -0.0770  0.4184  0.5099
   72MOL   H37947381   0.037   2.088   6.011 -3.7571 -0.0530 -0.0262
   72MOL   H38047382   7.643   2.227   5.980 -1.0892 -1.3961  1.0571
   72MOL   H38147383   0.115   2.382   6.055 -2.5302  0.8143 -0.0285
   72MOL   H38247384   0.225   2.254   6.092  0.1535 -0.1403 -0.5538
   72MOL   H38347385   7.659   2.279   6.212  0.5593 -2.0729 -1.9492
   72MOL   H38447386   0.083   2.374   6.277  1.2789  0.2552  0.5007
   72MOL   H38547387   0.213   2.148   6.303  0.6316  0.1126  0.6129
   72MOL   H38647388   0.052   2.081   6.289 -0.8956  0.7848  1.5551
   72MOL   H38747389   0.128   2.266   6.516 -0.5928  0.6959 -0.5388
   72MOL   H38847390   7.671   2.209   6.461 -0.5673 -0.2969 -2.9417
   72MOL   H38947391   0.172   1.989   6.497 -1.2788 -0.7188 -0.8601
   72MOL   H39047392   0.007   1.981   6.483  1.8961 -2.9322  0.6629
   72MOL   H39147393   0.153   2.067   6.733  1.2997 -1.1530 -1.7559
   72MOL   H39247394   7.690   2.099   6.716 -2.5990 -1.8989 -0.8146
   72MOL   H39347395   7.665   1.843   6.681 -0.7905  0.9255  0.7178
   72MOL   H39447396   0.135   1.825   6.708  0.6067  0.5038  0.8777
   72MOL   H39547397   0.014   1.797   6.915  1.4645 -1.8963 -2.8884
   72MOL   H39647398   7.643   1.950   6.901 -1.9182 -0.5206 -2.7645
   72MOL   H39747399   0.126   1.940   6.909 -1.0390 -0.6088  0.6739
   72MOL   C39847400   0.079   2.341   5.769  0.0663 -0.1196  0.4508
   72MOL   C39947401   7.658   2.343   5.676 -0.3283  0.1406  0.1624
   72MOL   C40047402   7.703   2.295   5.532 -0.1443  0.4204 -0.0686
   72MOL   C40147403   7.592   2.241   5.438  0.0388  0.3967 -0.6784
   72MOL   C40247404   7.570   2.328   5.311  0.3711  0.5777 -0.5639
   72MOL   C40347405   7.464   2.263   5.220 -0.0499  0.5983 -0.0355
   72MOL   C40447406   7.359   2.370   5.174  0.3267  0.6415  0.2948
   72MOL   C40547407   7.270   2.327   5.060  0.0318 -0.4262 -0.2064
   72MOL   C40647408   7.342   2.303   4.927 -0.4230 -0.3145 -0.2767
   72MOL   C40747409   7.246   2.259   4.817 -1.0376 -0.2762 -0.3471
   72MOL   C40847410   7.310   2.172   4.711  0.0540 -0.2456  0.9720
   72MOL   H40947411   0.167   2.379   5.717 -1.0340  0.2260 -1.1830
   72MOL   H41047412   0.069   2.417   5.847 -0.5383 -0.4847  0.7293
   72MOL   H41147413   7.587   2.268   5.711  0.9249 -1.8925 -1.4699
   72MOL   H41247414   0.071   2.213   5.538 -1.0721 -0.3741  0.0934
   72MOL   H41347415   0.048   2.380   5.484  0.9031  0.9294  1.8347
   72MOL   H41447416   7.625   2.141   5.411  3.0485  0.5831  2.0370
   72MOL   H41547417   7.496   2.225   5.487  0.0249  1.3418 -0.3868
   72MOL   H41647418   7.530   2.422   5.349  0.0912  0.9092 -1.6646
   72MOL   H41747419   7.661   2.352   5.256 -1.5829  2.8247 -2.9491
   72MOL   H41847420   7.402   2.188   5.270 -1.5413  3.1100  2.0393
   72MOL   H41947421   7.518   2.222   5.135 -1.8199 -0.3983 -0.7245
   72MOL   H42047422   7.308   2.386   5.269 -0.8074  1.7081 -0.4702
   72MOL   H42147423   7.410   2.465   5.159  0.9434  0.5735  1.9004
   72MOL   H42247424   7.204   2.412   5.042  0.9903  0.9338  2.4072
   72MOL   H42347425   7.214   2.238   5.089  0.9087 -0.8981  0.0692
   72MOL   H42447426   7.400   2.389   4.892 -1.7375  0.4682 -0.5481
   72MOL   H42547427   7.404   2.214   4.935  0.2283  0.0097 -1.5117
   72MOL   H42647428   7.209   2.355   4.780 -1.1118 -0.2896 -0.3064
   72MOL   H42747429   7.161   2.207   4.861 -1.0102 -0.5779 -0.6457
   72MOL   H42847430   7.235   2.153   4.634  0.3117 -0.0031  0.6596
   72MOL   H42947431   7.347   2.076   4.745  0.1546 -0.2908  0.7399
   72MOL   H43047432   7.398   2.225   4.674 -0.2750 -0.2965  0.1115
   72MOL   C43147433   7.589   2.480   5.660  0.0791  0.2034 -0.7988
   72MOL   C43247434   7.510   2.523   5.783 -0.4054  0.1682 -0.3632
   72MOL   C43347435   7.395   2.433   5.825  0.0431  0.3755  0.7091
   72MOL   C43447436   7.276   2.428   5.727  0.7150  0.4705 -0.1718
   72MOL   C43547437   7.173   2.318   5.752  0.7060  0.1695  0.0367
   72MOL   C43647438   7.053   2.311   5.653 -0.2947 -0.4390 -0.6120
   72MOL   C43747439   7.089   2.251   5.514 -0.2610 -0.1655 -0.0976
   72MOL   C43847440   7.103   2.101   5.510 -0.2944  0.1958 -0.4551
   72MOL   C43947441   7.085   2.035   5.372  0.4023  0.5778  0.0421
   72MOL   C44047442   7.093   1.881   5.380  0.2268 -0.4240  0.3092
   72MOL   C44147443   6.957   1.818   5.395  0.2159 -0.4271 -0.6663
   72MOL   H44247444   7.517   2.471   5.579 -2.0284 -0.9654  1.1525
   72MOL   H44347445   7.645   2.565   5.621 -2.0569  1.3100 -1.5301
   72MOL   H44447446   7.579   2.514   5.867 -3.0813  0.8499  1.9792
   72MOL   H44547447   7.437   2.333   5.840  1.8189  0.6733 -1.9222
   72MOL   H44647448   7.363   2.448   5.928  1.2141 -0.7173  1.2600
   72MOL   H44747449   7.310   2.426   5.623  2.7171  0.0238  0.4752
   72MOL   H44847450   7.230   2.526   5.734 -1.9184 -0.8623  1.9973
   72MOL   H44947451   7.138   2.331   5.855 -0.2241 -0.0929 -0.2378
   72MOL   H45047452   7.206   2.215   5.751 -1.4689 -0.5843  1.6440
   72MOL   H45147453   7.020   2.414   5.636 -2.4885 -1.1210 -0.5809
   72MOL   H45247454   6.979   2.251   5.705  0.5827 -1.1946 -0.2103
   72MOL   H45347455   7.179   2.302   5.478  0.0582 -0.6466  0.0267
   72MOL   H45447456   7.011   2.278   5.442  1.2315  2.2423 -0.8769
   72MOL   H45547457   7.192   2.077   5.567 -2.2825  0.7769  3.0380
   72MOL   H45647458   7.023   2.060   5.572  0.5789 -1.1136 -0.1718
   72MOL   H45747459   7.163   2.074   5.307  0.2937 -0.9534 -1.0275
   72MOL   H45847460   6.983   2.060   5.344 -0.6697 -3.0705  0.4924
   72MOL   H45947461   7.154   1.858   5.467 -3.0559 -2.0776  2.2938
   72MOL   H46047462   7.152   1.841   5.298 -0.6066 -0.5073 -0.2623
   72MOL   H46147463   6.886   1.822   5.312 -0.9210 -1.7793  0.2192
   72MOL   H46247464   6.969   1.712   5.416  4.0429  0.2086  0.7578
   72MOL   H46347465   6.904   1.852   5.484  1.7952  1.1499 -0.3215
   72MOL   C46447466   7.482   2.674   5.771 -0.4774  0.3171  0.4515
   72MOL   C46547467   7.409   2.745   5.893  0.3323  0.0750 -0.0607
   72MOL   C46647468   7.469   2.718   6.039 -0.0414  0.0678  0.2553
   72MOL   C46747469   7.616   2.769   6.050 -0.6915  0.4418 -0.8098
   72MOL   C46847470   7.669   2.781   6.193  0.0353  0.7024 -0.0425
   72MOL   C46947471   7.639   2.658   6.277 -0.3650  0.3438  0.2247
   72MOL   C47047472   7.703   2.682   6.416 -0.9333 -0.6758  0.2910
   72MOL   C47147473   7.661   2.572   6.517 -0.2988  0.4599 -0.0476
   72MOL   C47247474   0.041   2.557   6.640 -0.5538  0.0633  0.1109
   72MOL   C47347475   7.676   2.459   6.736 -0.1934 -0.1939 -0.0566
   72MOL   C47447476   0.046   2.463   6.871  1.0214 -0.2081  0.5817
   72MOL   H47547477   7.404   2.677   5.695  0.7410 -3.1354 -1.0061
   72MOL   H47647478   7.561   2.729   5.720 -1.3788  2.0098  0.8423
   72MOL   H47747479   7.307   2.706   5.895 -0.3467  1.6452 -2.1502
   72MOL   H47847480   7.459   2.611   6.058 -1.1912 -0.3343 -2.4715
   72MOL   H47947481   7.402   2.765   6.112 -0.4986  0.1574 -0.2216
   72MOL   H48047482   7.680   2.702   5.992 -2.6677 -1.1382 -1.1872
   72MOL   H48147483   7.628   2.864   5.997  0.2144  1.2719  0.8546
   72MOL   H48247484   7.613   2.865   6.234  0.1500  0.5532  0.4194
   72MOL   H48347485   0.070   2.809   6.201  0.0746  0.1997  1.3182
   72MOL   H48447486   7.532   2.653   6.297 -0.7837  0.7814 -1.8207
   72MOL   H48547487   7.669   2.564   6.231 -2.2961 -0.0773 -0.1948
   72MOL   H48647488   0.108   2.691   6.412 -0.7012 -1.9162  2.8225
   72MOL   H48747489   7.658   2.774   6.451  0.2764 -0.0531  0.2371
   72MOL   H48847490   7.558   2.596   6.545 -0.7020 -1.4866  0.1853
   72MOL   H48947491   7.648   2.475   6.470 -1.0251  0.8229 -0.6156
   72MOL   H49047492   0.147   2.543   6.618  0.1592  0.6186  3.0410
   72MOL   H49147493   0.047   2.654   6.690 -0.8880  0.2860 -0.2750
   72MOL   H49247494   7.572   2.490   6.739 -0.6281 -1.1418 -3.1994
   72MOL   H49347495   7.671   2.357   6.697 -0.4055 -0.3858  0.4801
   72MOL   H49447496   0.155   2.458   6.866  0.8670 -2.3570 -1.5879
   72MOL   H49547497   0.004   2.398   6.947 -0.0678  0.9214  0.9766
   72MOL   H49647498   0.023   2.564   6.905  1.4457  0.5887 -1.4025
   72MOL   C49747499   7.401   2.900   5.864  0.0795  0.1047  0.5757
   72MOL   C49847500   7.306   2.926   5.751 -0.2694 -0.3964 -0.4858
   72MOL   C49947501   7.378   2.946   5.612  0.2115  0.9421  0.1110
   72MOL   C50047502   7.292   2.887   5.495 -0.7334  0.0678  0.2518
   72MOL   C50147503   7.355   2.897   5.352  0.3827  0.4646  0.1524
   72MOL   C50247504   7.441   2.779   5.315 -0.0810  0.5275  0.6611
   72MOL   C50347505   7.495   2.790   5.173  0.2703 -0.0972 -0.3236
   72MOL   C50447506   7.391   2.785   5.058  0.5246  0.9651  0.1281
   72MOL   C50547507   7.456   2.732   4.924  0.1797 -0.0240 -0.3557
   72MOL   C50647508   7.375   2.689   4.802  0.2614  0.0952 -0.5664
   72MOL   C50747509   7.318   2.813   4.721 -0.0950 -0.2540  0.3928
   72MOL   H50847510   7.370   2.953   5.954 -3.0234 -0.9084  0.1846
   72MOL   H50947511   7.500   2.920   5.824  0.3826 -1.6283  0.4465
   72MOL   H51047512   7.247   2.837   5.731  0.3842 -0.9658  0.0885
   72MOL   H51147513   7.478   2.905   5.597  0.9191  1.8328  2.2365
   72MOL   H51247514   7.383   3.055   5.605  1.3687  0.8366 -0.8603
   72MOL   H51347515   7.191   2.924   5.506 -0.3563  1.2315 -0.1067
   72MOL   H51447516   7.274   2.781   5.512 -0.7599  0.0655  0.2080
   72MOL   H51547517   7.277   2.909   5.277  0.2876  0.3676  0.2346
   72MOL   H51647518   7.420   2.983   5.335  0.7713  0.4451  1.4890
   72MOL   H51747519   7.521   2.770   5.389 -0.5817 -0.7032  1.0702
   72MOL   H51847520   7.378   2.691   5.327  0.9707 -0.0921  1.7517
   72MOL   H51947521   7.551   2.882   5.152 -0.8881  1.5525  3.4124
   72MOL   H52047522   7.569   2.712   5.155 -1.8043 -2.3343  0.6149
   72MOL   H52147523   7.344   2.883   5.053  1.0678  1.2102 -0.1543
   72MOL   H52247524   7.308   2.719   5.082  0.1649  1.0180 -0.9541
   72MOL   H52347525   7.519   2.644   4.939 -2.0418 -1.9980 -2.2612
   72MOL   H52447526   7.533   2.809   4.914 -2.0430  2.2670 -0.3217
   72MOL   H52547527   7.298   2.617   4.828  0.3428  0.6599  1.3570
   72MOL   H52647528   7.442   2.627   4.743  0.8624 -2.2558  2.4802
   72MOL   H52747529   7.241   2.793   4.647  0.9985 -1.9789 -0.3076
   72MOL   H52847530   7.400   2.866   4.674  1.6923 -2.7325  0.6114
   72MOL   H52947531   7.259   2.879   4.786 -1.2848 -0.2278 -0.6952
   72MOL   C53047532   7.213   3.042   5.783 -0.2830  0.0997 -0.1820
   72MOL   C53147533   7.123   3.023   5.906 -0.3200 -0.2447 -0.5153
   72MOL   C53247534   6.978   2.970   5.867  0.2195 -0.2880  0.1331
   72MOL   C53347535   6.976   2.813   5.850 -0.2430  0.0762  0.3096
   72MOL   C53447536   6.835   2.754   5.871 -0.0779  0.5743 -0.0052
   72MOL   C53547537   6.831   2.597   5.860  0.2795 -0.7418 -0.6961
   72MOL   C53647538   6.681   2.542   5.875  0.1052  0.8671 -0.0496
   72MOL   C53747539   6.594   2.561   5.749  0.1526 -0.1978 -0.3577
   72MOL   C53847540   6.442   2.536   5.778 -0.3899  0.4271 -0.8736
   72MOL   C53947541   6.356   2.542   5.651 -0.2645 -0.0496 -0.1392
   72MOL   C54047542   6.210   2.566   5.689  0.0782 -0.3701  0.8437
   72MOL   H54147543   7.281   3.125   5.800 -0.0566 -0.3476  1.1533
   72MOL   H54247544   7.156   3.065   5.693 -2.9415  1.4649  1.7615
   72MOL   H54347545   7.165   2.958   5.983 -1.3154 -3.0834 -2.3068
   72MOL   H54447546   6.952   3.018   5.773  0.2398  0.5017  0.5261
   72MOL   H54547547   6.896   2.996   5.934 -0.3162  2.5296 -1.5271
   72MOL   H54647548   7.052   2.780   5.921  0.6659  1.4521 -0.0066
   72MOL   H54747549   7.024   2.781   5.757  0.8632  0.4353  0.7439
   72MOL   H54847550   6.759   2.803   5.809  0.0923 -0.6156 -1.1888
   72MOL   H54947551   6.801   2.779   5.971  0.7448 -2.3743  1.0499
   72MOL   H55047552   6.891   2.549   5.937  1.6165  1.9484 -0.0042
   72MOL   H55147553   6.866   2.562   5.763  0.9755  0.4674 -0.8824
   72MOL   H55247554   6.640   2.596   5.961 -0.6875  0.0424  0.0915
   72MOL   H55347555   6.681   2.435   5.896 -1.2652  0.9556  0.4240
   72MOL   H55447556   6.623   2.502   5.662 -0.7193 -1.5469  0.2546
   72MOL   H55547557   6.598   2.667   5.725  0.7136 -0.3837 -1.0899
   72MOL   H55647558   6.401   2.616   5.840  0.7260  1.2416 -1.1740
   72MOL   H55747559   6.433   2.436   5.823 -0.9405  0.9624  0.2276
   72MOL   H55847560   6.364   2.448   5.596 -1.0980  0.4698 -1.1578
   72MOL   H55947561   6.394   2.630   5.599 -0.2639 -0.3613 -0.6754
   72MOL   H56047562   6.198   2.643   5.765  1.2714 -0.2219  0.8960
   72MOL   H56147563   6.137   2.591   5.612 -1.4462 -1.7788  1.7991
   72MOL   H56247564   6.178   2.473   5.736 -0.0723 -0.0430  1.3965
   72MOL   C56347565   7.116   3.165   5.968  0.1661 -0.0216  0.4988
   72MOL   C56447566   7.235   3.210   6.053 -0.0911  0.2206 -0.2631
   72MOL   C56547567   7.237   3.134   6.190 -0.3712 -0.2058 -0.2039
   72MOL   C56647568   7.348   3.168   6.288  0.0604  0.0131  0.3343
   72MOL   C56747569   7.379   3.064   6.406  0.5119  0.0521  0.3684
   72MOL   C56847570   7.499   3.093   6.496  0.1539  0.5774  0.9548
   72MOL   C56947571   7.491   3.004   6.621  0.0792 -0.4122 -0.3001
   72MOL   C57047572   7.601   3.047   6.722 -0.0055  0.5569 -0.1399
   72MOL   C57147573   7.619   2.953   6.840  0.5013  0.5861 -0.4467
   72MOL   C57247574   0.043   2.982   6.929 -0.0479  0.0522 -0.9579
   72MOL   C57347575   0.070   2.871   7.030 -0.8582  0.5115 -0.3992
   72MOL   H57447576   7.025   3.177   6.026  0.3710  0.9199  0.6409
   72MOL   H57547577   7.116   3.233   5.883 -0.8192 -1.2485 -0.4855
   72MOL   H57647578   7.329   3.181   6.006 -0.1859 -3.1130  1.5363
   72MOL   H57747579   7.257   3.035   6.149 -2.1470 -0.5987 -0.1727
   72MOL   H57847580   7.141   3.135   6.242 -0.0866  0.8040  0.3109
   72MOL   H57947581   7.318   3.262   6.335 -1.3216  0.3654 -1.2118
   72MOL   H58047582   7.443   3.183   6.237  1.1908 -0.3517  2.2754
   72MOL   H58147583   7.392   2.972   6.350  2.0954  0.4366  0.0916
   72MOL   H58247584   7.289   3.048   6.466 -0.2053  1.5203 -0.2806
   72MOL   H58347585   7.593   3.106   6.442 -1.5493  0.9196 -2.0341
   72MOL   H58447586   7.481   3.195   6.531  1.1700  0.6360  1.3399
   72MOL   H58547587   7.391   2.999   6.665  0.4966 -1.8090  0.5009
   72MOL   H58647588   7.505   2.902   6.587  0.3285 -0.0218 -1.3817
   72MOL   H58747589   7.579   3.146   6.763 -1.2347  0.6104 -0.9121
   72MOL   H58847590   7.696   3.069   6.674 -1.0391  0.4844 -2.2673
   72MOL   H58947591   7.621   2.850   6.805 -3.6529 -0.6960  2.6942
   72MOL   H59047592   7.527   2.958   6.898 -0.5424  1.2170 -2.1339
   72MOL   H59147593   0.026   3.078   6.978 -3.8892 -2.2398  2.4629
   72MOL   H59247594   0.129   2.970   6.862  0.9360 -0.0360  0.3062
   72MOL   H59347595   0.144   2.890   7.108 -0.5113  1.9481 -1.0695
   72MOL   H59447596   7.691   2.865   7.101  1.0236 -0.1716  1.7959
   72MOL   H59547597   0.090   2.775   6.983  1.6618 -0.0861  1.7451
   72MOL   C59647598   7.244   3.370   6.084 -0.0382 -0.0016  0.2338
   72MOL   C59747599   7.184   3.469   5.986 -0.5384  0.6905 -0.2993
   72MOL   C59847600   7.274   3.507   5.863  0.0974 -0.5134  0.8800
   72MOL   C59947601   7.412   3.566   5.894 -0.2768 -0.1667 -0.1415
   72MOL   C60047602   7.520   3.535   5.785  0.1935 -0.6538  0.3070
   72MOL   C60147603   7.653   3.603   5.816  0.0374 -0.3596 -0.1422
   72MOL   C60247604   0.012   3.579   5.957  0.3560 -0.4757 -0.2091
   72MOL   C60347605   0.040   3.435   5.995  0.7525  0.0708 -0.3186
   72MOL   C60447606   0.106   3.421   6.131 -0.5152 -0.0225  0.3746
   72MOL   C60547607   0.125   3.273   6.166 -0.0097  0.7816  0.5522
   72MOL   C60647608   0.215   3.249   6.292  0.1630 -0.2635 -0.4007
   72MOL   H60747609   7.174   3.378   6.167 -1.3022 -2.4359 -0.5433
   72MOL   H60847610   7.343   3.405   6.113 -1.0428  2.7157  0.5300
   72MOL   H60947611   7.085   3.439   5.954 -1.3388  0.5133  2.2058
   72MOL   H61047612   7.226   3.566   5.785 -0.2654 -2.5868 -0.5179
   72MOL   H61147613   7.289   3.418   5.801 -2.5879 -0.8998  0.7495
   72MOL   H61247614   7.442   3.563   5.998  1.0100  1.7067 -0.4238
   72MOL   H61347615   7.395   3.673   5.879 -0.4872 -0.2749 -0.7148
   72MOL   H61447616   7.484   3.577   5.691  0.1044  0.1858  0.7092
   72MOL   H61547617   7.537   3.428   5.773  0.9662 -0.5447  0.3962
   72MOL   H61647618   0.030   3.581   5.746  1.1720 -0.6140  1.2052
   72MOL   H61747619   7.632   3.709   5.807 -0.0135 -0.0566  2.8340
   72MOL   H61847620   7.644   3.620   6.028 -0.7239 -0.5365 -1.2426
   72MOL   H61947621   0.105   3.634   5.967 -0.3335  0.6048  0.4257
   72MOL   H62047622   0.108   3.390   5.923  1.8277  0.1621  0.6215
   72MOL   H62147623   7.642   3.396   5.990  0.0678  1.7908 -0.2180
   72MOL   H62247624   0.206   3.465   6.138 -0.5430  0.1767 -0.5382
   72MOL   H62347625   0.050   3.468   6.213  0.4494  2.5845 -0.3955
   72MOL   H62447626   0.174   3.229   6.079 -2.0175  0.5225 -0.4993
   72MOL   H62547627   0.030   3.222   6.181  0.3012 -0.1659 -0.5860
   72MOL   H62647628   0.208   3.146   6.325  1.8819 -0.7378 -1.4656
   72MOL   H62747629   0.318   3.284   6.283 -0.3719  1.7488  0.8971
   72MOL   H62847630   0.177   3.315   6.370  0.1278  1.5748 -1.9251
   72MOL   C62947631   7.143   3.595   6.061 -0.0086  0.3409  0.1089
   72MOL   C63047632   7.014   3.587   6.142 -0.1892  0.0697 -1.4095
   72MOL   C63147633   6.978   3.717   6.208  0.4193  0.1024 -0.0698
   72MOL   C63247634   6.830   3.732   6.248 -0.3496 -0.1346 -0.1493
   72MOL   C63347635   6.800   3.879   6.293 -0.3472 -0.0719  0.4112
   72MOL   C63447636   6.869   3.933   6.417 -0.1983  0.0472 -0.0270
   72MOL   C63547637   6.827   4.078   6.451 -0.1222 -0.1793  0.0171
   72MOL   C63647638   6.861   4.118   6.598  0.2103  0.1258 -0.5005
   72MOL   C63747639   6.819   4.259   6.643 -0.4858  0.3452 -0.0428
   72MOL   C63847640   6.896   4.319   6.759  0.0787 -0.3809 -0.2764
   72MOL   C63947641   6.865   4.458   6.804 -0.5138  0.1849  0.3229
   72MOL   H64047642   7.219   3.626   6.133 -0.2271 -0.9044  0.8842
   72MOL   H64147643   7.135   3.678   5.990  1.8585  3.0854  2.9802
   72MOL   H64247644   6.935   3.557   6.074 -0.7730  0.0679 -0.7384
   72MOL   H64347645   7.042   3.730   6.296  0.2024  0.5440  0.0259
   72MOL   H64447646   6.998   3.797   6.138  0.0931  2.6386  2.6179
   72MOL   H64547647   6.816   3.665   6.333 -2.9749 -0.6486 -0.9254
   72MOL   H64647648   6.766   3.698   6.166 -0.1941 -1.0076  0.0835
   72MOL   H64747649   6.693   3.891   6.314 -0.3226  0.4775  0.2280
   72MOL   H64847650   6.825   3.945   6.210  0.6202 -1.9975 -0.8562
   72MOL   H64947651   6.976   3.928   6.402 -0.5676 -1.4612 -2.3967
   72MOL   H65047652   6.845   3.871   6.504  2.4126  0.5142  1.0541
   72MOL   H65147653   6.720   4.090   6.437 -0.1418  2.1963  1.9474
   72MOL   H65247654   6.873   4.144   6.377 -0.9873 -0.0523 -0.4060
   72MOL   H65347655   6.970   4.111   6.597  0.2050  0.0345 -0.4528
   72MOL   H65447656   6.832   4.043   6.672 -1.5176 -1.0005 -2.2927
   72MOL   H65547657   6.710   4.264   6.656 -0.8412  3.2972 -3.2784
   72MOL   H65647658   6.837   4.327   6.560  0.6942 -1.5012 -1.3171
   72MOL   H65747659   7.003   4.299   6.760  0.0462 -0.5794  1.5031
   72MOL   H65847660   6.859   4.257   6.841  1.3605 -1.6200 -0.6256
   72MOL   H65947661   6.756   4.466   6.800 -0.6200 -0.2254  1.9160
   72MOL   H66047662   6.904   4.542   6.747  1.5696  0.4253  2.0417
   72MOL   H66147663   6.902   4.460   6.906 -1.2785  2.1617  0.5851
   72MOL   H66247664   7.017   3.516   6.224  0.2168  0.6936 -0.8820
   73MOL     C147665   5.012   7.118   1.605  0.0940  1.1587 -0.6006
   73MOL     C247666   4.862   7.104   1.565  0.6503  0.2421  0.1908
   73MOL     C347667   4.762   7.058   1.674  0.2650  0.0471  0.4657
   73MOL     C447668   4.784   6.908   1.705  0.3073  0.4362 -0.2315
   73MOL     C547669   4.671   6.844   1.788 -0.7448 -0.1772  0.2233
   73MOL     C647670   4.721   6.731   1.871 -0.1670 -0.2321 -0.3400
   73MOL     C747671   4.601   6.674   1.954  0.0928 -0.0289  0.5715
   73MOL     C847672   4.640   6.549   2.028  0.1941 -0.2403  0.0223
   73MOL     C947673   4.565   6.509   2.150 -0.0618  0.7986  0.1509
   73MOL    C1047674   4.593   6.367   2.211 -0.1268  0.8008  0.4215
   73MOL    C1147675   4.540   6.254   2.130  0.3221 -0.2002 -1.0838
   73MOL    H1247676   5.059   7.022   1.629  0.5782  1.1911 -1.4077
   73MOL    H1347677   5.017   7.184   1.691 -2.1585  0.1243  0.3684
   73MOL    H1447678   4.863   7.032   1.484 -1.3263 -0.9864  1.2172
   73MOL    H1547679   4.664   7.063   1.627  1.0135 -0.1106 -1.1193
   73MOL    H1647680   4.761   7.114   1.768  1.2817  0.0183  0.4944
   73MOL    H1747681   4.877   6.901   1.762  0.0151 -2.7826 -0.0412
   73MOL    H1847682   4.800   6.857   1.611  1.1158 -0.0794  0.1828
   73MOL    H1947683   4.647   6.926   1.854  0.1536  0.1165  0.1977
   73MOL    H2047684   4.577   6.826   1.735 -0.0068  0.0929 -1.2249
   73MOL    H2147685   4.801   6.762   1.938 -1.1364  0.7618  0.3824
   73MOL    H2247686   4.760   6.655   1.803  0.5431 -0.0038 -0.1930
   73MOL    H2347687   4.563   6.756   2.015  0.3166 -0.1293  0.8437
   73MOL    H2447688   4.522   6.656   1.881 -1.0869  0.7874  1.6151
   73MOL    H2547689   4.745   6.561   2.053  0.6103 -4.0219  0.3302
   73MOL    H2647690   4.637   6.467   1.957  1.3909 -0.1594 -0.1250
   73MOL    H2747691   4.458   6.525   2.131 -0.1177  0.4671  0.1937
   73MOL    H2847692   4.583   6.594   2.216 -0.9975  1.4269 -0.3894
   73MOL    H2947693   4.554   6.365   2.312  0.7618 -0.2153  0.7540
   73MOL    H3047694   4.700   6.349   2.220 -0.1737 -1.2916 -2.3525
   73MOL    H3147695   4.573   6.156   2.163 -0.9568 -0.2781  0.0289
   73MOL    H3247696   4.431   6.248   2.135  0.3695  0.4681  1.5044
   73MOL    H3347697   4.570   6.275   2.027 -2.6344 -0.7101 -2.1117
   73MOL    H3447698   5.059   7.163   1.518 -1.3552  1.4405 -1.2557
   73MOL    C3547699   4.811   7.241   1.503 -0.2951  0.5914 -0.2893
   73MOL    C3647700   4.866   7.279   1.359  0.4060 -0.1029 -0.4684
   73MOL    C3747701   4.792   7.203   1.242 -0.2935 -0.1211 -0.6899
   73MOL    C3847702   4.841   7.241   1.104  0.8535 -0.2161 -0.1562
   73MOL    C3947703   4.773   7.171   0.986  0.1294 -0.2272  0.5365
   73MOL    C4047704   4.794   7.018   0.974 -0.0970  0.1789 -0.3901
   73MOL    C4147705   4.789   6.955   0.835  0.5887 -0.3574 -0.2914
   73MOL    C4247706   4.850   6.822   0.829  0.1126  0.4494 -0.5205
   73MOL    C4347707   4.823   6.756   0.696 -0.7165  0.6038 -0.0365
   73MOL    C4447708   4.918   6.798   0.574  0.6295 -0.1020  0.2909
   73MOL    C4547709   4.867   6.735   0.437 -0.9638  0.5151  0.5982
   73MOL    H4647710   4.838   7.308   1.585 -1.3486  0.5663  0.0881
   73MOL    H4747711   4.704   7.257   1.500 -0.5627 -0.3113  2.5420
   73MOL    H4847712   4.971   7.252   1.344  0.9889  2.7607 -1.9317
   73MOL    H4947713   4.790   7.095   1.251  1.1447  0.0120  2.0649
   73MOL    H5047714   4.685   7.214   1.259 -0.0586  1.0154  0.1680
   73MOL    H5147715   4.947   7.218   1.102  0.6929 -1.0454  0.5410
   73MOL    H5247716   4.826   7.348   1.093 -0.4406 -0.5994 -2.3626
   73MOL    H5347717   4.798   7.229   0.897 -0.6593 -0.5560  0.0926
   73MOL    H5447718   4.664   7.177   0.986  0.1667  0.5548  1.8095
   73MOL    H5547719   4.714   6.967   1.028  0.5109  1.0289  1.3230
   73MOL    H5647720   4.882   6.993   1.033 -0.6112 -0.5901  0.0603
   73MOL    H5747721   4.686   6.942   0.801  0.0409  0.5757  0.9680
   73MOL    H5847722   4.840   7.030   0.775  1.2548 -0.6043 -0.0443
   73MOL    H5947723   4.808   6.754   0.903 -1.1633 -1.6497 -3.1081
   73MOL    H6047724   4.956   6.834   0.853  0.0692  0.2494 -0.2196
   73MOL    H6147725   4.716   6.769   0.678 -0.9915 -0.2692  0.9336
   73MOL    H6247726   4.837   6.649   0.714 -1.6004  0.9935  3.2636
   73MOL    H6347727   4.914   6.906   0.569 -2.0780 -0.1208  1.2218
   73MOL    H6447728   5.022   6.764   0.586  0.6289 -0.7236 -1.2863
   73MOL    H6547729   4.884   6.628   0.442  0.7659  0.6481 -1.5871
   73MOL    H6647730   4.762   6.750   0.412 -1.2655  1.1099  2.1735
   73MOL    H6747731   4.922   6.774   0.351 -1.2000  1.0949  0.7056
   73MOL    C6847732   4.845   7.436   1.356  0.2724 -0.5665 -0.1099
   73MOL    C6947733   4.959   7.514   1.421 -1.3859  0.1112  0.5651
   73MOL    C7047734   5.098   7.487   1.347  0.2292 -0.3796  0.3265
   73MOL    C7147735   5.108   7.555   1.206 -0.8309 -0.3004  0.8241
   73MOL    C7247736   5.243   7.535   1.130 -0.4867 -0.3657 -0.0644
   73MOL    C7347737   5.258   7.571   0.982  0.3819 -0.3593  0.1748
   73MOL    C7447738   5.244   0.019   0.945 -0.6467 -0.3712 -0.7357
   73MOL    C7547739   5.373   0.090   0.987 -0.1845 -0.9234  0.1709
   73MOL    C7647740   5.493   0.057   0.892  0.2739 -0.8158 -0.0544
   73MOL    C7747741   5.611   0.158   0.903 -0.2192 -0.2992  0.0914
   73MOL    C7847742   5.594   0.285   0.815  0.1220  0.3278 -0.0279
   73MOL    H7947743   4.753   7.468   1.405 -0.5176 -0.2916 -1.7599
   73MOL    H8047744   4.847   7.480   1.256 -0.3496  1.1016  0.5926
   73MOL    H8147745   4.985   7.457   1.510  1.3072  0.9425  0.3586
   73MOL    H8247746   5.132   7.384   1.336  0.3419  0.0083 -3.5873
   73MOL    H8347747   5.176   7.519   1.416 -0.2404 -0.3671  0.8591
   73MOL    H8447748   5.030   7.508   1.146 -0.8178  2.8891 -1.8088
   73MOL    H8547749   5.096   7.660   1.232 -0.5494  0.0273 -0.3691
   73MOL    H8647750   5.262   7.428   1.138 -0.2532 -0.2210  1.4350
   73MOL    H8747751   5.330   7.576   1.182 -0.7057  0.5420 -0.3958
   73MOL    H8847752   5.346   7.527   0.936  0.1793  0.3515 -0.9077
   73MOL    H8947753   5.174   7.521   0.935 -0.2422 -0.2896  1.2001
   73MOL    H9047754   5.152   0.059   0.988 -1.2681 -0.8621 -1.5790
   73MOL    H9147755   5.229   0.027   0.837 -0.1519  3.2164 -0.5997
   73MOL    H9247756   5.368   0.198   0.992 -0.6138 -0.6782 -3.7411
   73MOL    H9347757   5.387   0.056   1.090 -1.7026 -0.7710  0.4423
   73MOL    H9447758   5.525   7.658   0.914 -0.6833 -0.5766  2.6651
   73MOL    H9547759   5.455   0.045   0.791  2.2528 -0.2232 -0.8875
   73MOL    H9647760   5.610   0.191   1.007 -0.8821 -0.3743  0.1118
   73MOL    H9747761   5.708   0.117   0.874  0.5479  1.2744  0.4055
   73MOL    H9847762   5.611   0.251   0.713  0.9853 -0.6140  0.4231
   73MOL    H9947763   5.675   0.351   0.847  1.3651  0.5260 -3.3861
   73MOL   H10047764   5.497   0.332   0.832 -0.4762 -1.3965  1.4428
   73MOL   C10147765   4.922   7.660   1.456  0.2107  0.0992 -0.2771
   73MOL   C10247766   5.006   0.026   1.566  0.7445  0.0891  0.2867
   73MOL   C10347767   5.014   7.654   1.697  0.0486 -0.2125 -0.1855
   73MOL   C10447768   4.876   7.616   1.757  0.2368 -0.8500 -0.5936
   73MOL   C10547769   4.882   7.573   1.909  0.5371  0.7121  0.3398
   73MOL   C10647770   4.757   7.510   1.960  0.7253  0.8938  0.2291
   73MOL   C10747771   4.704   7.381   1.894 -0.3538 -0.0055  0.0970
   73MOL   C10847772   4.593   7.318   1.984 -0.2065  0.3677  0.3769
   73MOL   C10947773   4.513   7.212   1.909 -0.6025 -0.8540 -0.0448
   73MOL   C11047774   4.414   7.128   1.990  0.0661  0.1329 -0.1824
   73MOL   C11147775   4.484   7.051   2.100 -0.1601  0.0773 -0.7452
   73MOL   H11247776   4.928   0.012   1.362  1.3798  0.6159  0.0913
   73MOL   H11347777   4.816   7.671   1.480 -0.1088 -0.7051 -1.2351
   73MOL   H11447778   5.102   0.024   1.514  0.0530 -2.5205 -0.9783
   73MOL   H11547779   5.077   7.565   1.694 -2.2785 -1.8497 -1.1355
   73MOL   H11647780   5.062   0.019   1.768  0.0429  1.2513 -1.5742
   73MOL   H11747781   4.808   7.702   1.750 -1.2667 -2.0912 -1.6352
   73MOL   H11847782   4.833   7.538   1.694  0.1749 -1.2103 -0.1014
   73MOL   H11947783   4.961   7.499   1.902 -0.3728 -0.2753  0.3917
   73MOL   H12047784   4.915   7.661   1.965 -2.1520  1.8892  0.1849
   73MOL   H12147785   4.766   7.494   2.068  0.9764  1.2187  0.2568
   73MOL   H12247786   4.671   7.576   1.948 -1.0725 -1.3136  0.6224
   73MOL   H12347787   4.787   7.313   1.878 -1.0425 -0.3449 -2.4115
   73MOL   H12447788   4.665   7.419   1.799 -3.0596  0.3905  1.2999
   73MOL   H12547789   4.652   7.281   2.068  1.1934 -0.9715 -1.1848
   73MOL   H12647790   4.528   7.394   2.029 -0.8980  1.2016 -1.9404
   73MOL   H12747791   4.465   7.265   1.827  1.0259 -0.5132 -0.7853
   73MOL   H12847792   4.580   7.153   1.847  0.3564 -0.3259  0.4749
   73MOL   H12947793   4.348   7.074   1.922  0.7266  0.3465 -0.9895
   73MOL   H13047794   4.349   7.198   2.042  2.2616  1.5673  0.6912
   73MOL   H13147795   4.574   7.005   2.060  0.3353  0.0642  0.3702
   73MOL   H13247796   4.518   7.113   2.184 -2.3888  0.6712 -0.2380
   73MOL   H13347797   4.418   6.972   2.136 -0.7290  0.5037 -0.8399
   73MOL   C13447798   4.968   0.181   1.587  0.1417  0.4454  0.4650
   73MOL   C13547799   4.974   0.288   1.466  0.0053  0.1473 -0.3937
   73MOL   C13647800   5.118   0.316   1.423 -0.1544 -0.5429  0.4306
   73MOL   C13747801   5.139   0.370   1.278 -0.4507 -0.5500 -0.4212
   73MOL   C13847802   5.078   0.289   1.161  0.3707 -0.8887 -0.0533
   73MOL   C13947803   4.944   0.334   1.104 -0.3789 -0.1464  0.5563
   73MOL   C14047804   4.906   0.251   0.986  0.0499 -0.0193  0.2548
   73MOL   C14147805   4.871   0.112   1.011  0.4422 -0.0544 -0.2295
   73MOL   C14247806   4.805   0.041   0.892 -0.3632 -0.4395 -0.6093
   73MOL   C14347807   4.752   7.607   0.920 -0.0759 -0.0556  0.4037
   73MOL   C14447808   4.690   7.543   0.792 -0.4699 -0.3107  0.8590
   73MOL   H14547809   4.870   0.174   1.633  0.3525 -0.0887  0.8486
   73MOL   H14647810   5.023   0.216   1.675  1.5510 -0.7601  0.1003
   73MOL   H14747811   4.909   0.256   1.384  0.2986 -4.0507  0.9229
   73MOL   H14847812   5.180   0.227   1.435 -0.5800 -0.9514 -0.3976
   73MOL   H14947813   5.169   0.389   1.486 -0.0471 -0.6400  0.4579
   73MOL   H15047814   5.110   0.472   1.255  1.0040 -0.2094 -0.8247
   73MOL   H15147815   5.246   0.373   1.259 -0.2907 -1.6754  0.2637
   73MOL   H15247816   5.152   0.282   1.081 -0.1535 -0.7205 -0.5560
   73MOL   H15347817   5.062   0.183   1.177 -1.3544 -0.6022  0.2679
   73MOL   H15447818   4.866   0.351   1.178 -0.6022  2.6954 -0.2406
   73MOL   H15547819   4.957   0.438   1.072 -0.6266 -0.3887 -0.3453
   73MOL   H15647820   4.816   0.303   0.953  1.3647  1.0744 -1.7861
   73MOL   H15747821   4.970   0.262   0.898 -1.2707  1.0409 -0.6078
   73MOL   H15847822   4.944   0.042   1.052 -0.9408 -1.6796 -0.5065
   73MOL   H15947823   4.793   0.111   1.087 -0.7949  0.4997 -1.4768
   73MOL   H16047824   4.719   0.104   0.868  1.2005  1.3553 -1.6511
   73MOL   H16147825   4.868   0.053   0.803  0.2498  0.5265 -0.0566
   73MOL   H16247826   4.839   7.546   0.942 -1.2985 -1.8734  0.2404
   73MOL   H16347827   4.679   7.611   1.001  0.8084 -0.5675  1.2280
   73MOL   H16447828   4.593   7.582   0.763 -0.3955 -0.9761 -0.2998
   73MOL   H16547829   4.673   7.437   0.815 -0.0642 -0.1818  1.7793
   73MOL   H16647830   4.752   7.547   0.703 -1.3971  2.0526  0.2836
   73MOL   C16747831   4.901   0.419   1.513 -0.4975 -0.2504  0.4802
   73MOL   C16847832   4.759   0.410   1.583  0.2095  0.1551  0.0776
   73MOL   C16947833   4.661   0.315   1.501  0.2436 -0.3724  0.1075
   73MOL   C17047834   4.614   0.375   1.374 -0.1239  0.7520  0.5788
   73MOL   C17147835   4.550   0.271   1.276  0.5809 -0.0886 -0.1956
   73MOL   C17247836   4.531   0.345   1.138  0.6918  0.4845 -0.6644
   73MOL   C17347837   4.482   0.252   1.018 -0.3781 -0.3158 -0.4427
   73MOL   C17447838   4.477   0.332   0.891 -0.1273  0.2782  0.0717
   73MOL   C17547839   4.394   0.275   0.776 -0.2391  0.4086  0.1301
   73MOL   C17647840   4.447   0.136   0.742 -0.4948 -0.2041 -0.6759
   73MOL   C17747841   4.384   0.078   0.609  0.2484 -0.3390 -0.0770
   73MOL   H17847842   4.961   0.482   1.579  0.5245  0.0136 -0.6883
   73MOL   H17947843   4.893   0.479   1.423 -1.6956  0.1693  0.8627
   73MOL   H18047844   4.784   0.348   1.669  0.9226 -0.7395 -0.7572
   73MOL   H18147845   4.578   0.291   1.568  0.4772 -0.1806  0.4635
   73MOL   H18247846   4.704   0.217   1.481  1.2246 -0.0969  0.8553
   73MOL   H18347847   4.533   0.443   1.397 -1.8296 -1.2306  0.5693
   73MOL   H18447848   4.691   0.424   1.315 -0.3728 -1.7427 -1.9286
   73MOL   H18547849   4.451   0.242   1.310  0.4445  0.7836  0.1794
   73MOL   H18647850   4.612   0.182   1.265 -0.3648 -1.0168  1.8233
   73MOL   H18747851   4.456   0.420   1.161 -0.0106  0.0815 -1.6326
   73MOL   H18847852   4.628   0.388   1.110  1.5982  0.1424  1.7687
   73MOL   H18947853   4.385   0.211   1.046 -1.7980  2.6197 -0.9304
   73MOL   H19047854   4.553   0.169   1.015  0.7876  0.5180  2.2149
   73MOL   H19147855   4.428   0.429   0.900 -2.0701 -0.6598 -0.2672
   73MOL   H19247856   4.579   0.355   0.858 -0.5533 -1.0995 -2.3104
   73MOL   H19347857   4.396   0.344   0.692 -1.0216  1.9974  1.3784
   73MOL   H19447858   4.287   0.270   0.798  0.0028 -0.3858  1.1753
   73MOL   H19547859   4.440   0.077   0.833  0.4282  1.9809  0.8500
   73MOL   H19647860   4.553   0.145   0.718 -0.3687 -1.7807 -0.8092
   73MOL   H19747861   4.383   0.146   0.524 -1.5050  1.4966  1.3588
   73MOL   H19847862   4.281   0.052   0.631 -0.0361 -0.7078 -1.8352
   73MOL   H19947863   4.436   7.694   0.570  0.3182 -0.2053 -0.2841
   73MOL   C20047864   4.702   0.554   1.627  0.0168  0.5000 -0.6744
   73MOL   C20147865   4.582   0.557   1.728 -0.4339  0.3252  0.7109
   73MOL   C20247866   4.468   0.651   1.680  0.0640  0.0293 -0.0204
   73MOL   C20347867   4.493   0.811   1.688  0.3266  0.4604  0.1334
   73MOL   C20447868   4.359   0.895   1.673 -0.6691 -0.4860  0.1256
   73MOL   C20547869   4.380   1.048   1.663  0.1440 -0.3649  0.1967
   73MOL   C20647870   4.254   1.115   1.621  0.1634  0.2834  0.3677
   73MOL   C20747871   4.275   1.264   1.615 -0.4344 -0.6468  0.3750
   73MOL   C20847872   4.145   1.347   1.620 -0.0740  0.1956 -0.1722
   73MOL   C20947873   4.174   1.495   1.630 -0.1887 -0.1858 -0.3601
   73MOL   C21047874   4.056   1.585   1.615  0.0814  0.2174  0.0173
   73MOL   H21147875   4.782   0.617   1.665  1.4273 -1.8240  0.3323
   73MOL   H21247876   4.677   0.619   1.543  0.9592 -0.8908 -2.0571
   73MOL   H21347877   4.544   0.455   1.722  3.2474 -1.0945  0.0803
   73MOL   H21447878   4.385   0.627   1.747 -0.4879 -3.5010 -1.8419
   73MOL   H21547879   4.436   0.632   1.578  0.8092 -1.3147 -0.0134
   73MOL   H21647880   4.565   0.852   1.618  0.5226  0.6647  0.4500
   73MOL   H21747881   4.519   0.833   1.792 -2.1710  1.2751  0.6388
   73MOL   H21847882   4.289   0.874   1.754  0.7750  2.9815  2.3836
   73MOL   H21947883   4.307   0.861   1.583 -1.3770 -1.6315  0.9524
   73MOL   H22047884   4.407   1.084   1.762  0.0854  1.3694 -0.3959
   73MOL   H22147885   4.463   1.083   1.601 -1.3632  2.3127 -0.3918
   73MOL   H22247886   4.175   1.072   1.682  0.1629 -1.3741 -0.7487
   73MOL   H22347887   4.239   1.089   1.516 -0.8231  3.4883 -0.3509
   73MOL   H22447888   4.331   1.284   1.524 -0.7134 -0.6996  0.1947
   73MOL   H22547889   4.330   1.309   1.698  0.0294 -0.3965 -0.0642
   73MOL   H22647890   4.087   1.315   1.706 -1.1054  1.2303 -0.4661
   73MOL   H22747891   4.076   1.333   1.536 -1.3028 -0.4217  0.9236
   73MOL   H22847892   4.221   1.523   1.725 -1.8927  0.0200  0.4321
   73MOL   H22947893   4.241   1.522   1.548  0.3273 -0.7075 -0.1150
   73MOL   H23047894   4.065   1.691   1.595 -0.0145  0.2993  0.4094
   73MOL   H23147895   3.983   1.580   1.696  1.4855 -0.4368  1.2530
   73MOL   H23247896   4.002   1.549   1.527  0.2812  0.0962 -0.0570
   73MOL   C23347897   4.618   0.581   1.873 -0.6054  0.1760  0.2599
   73MOL   C23447898   4.708   0.480   1.951 -0.0435 -0.3440  0.2454
   73MOL   C23547899   4.626   0.356   1.976  0.1519  0.4030 -0.1541
   73MOL   C23647900   4.682   0.240   2.064  0.9208  0.3202 -0.3884
   73MOL   C23747901   4.589   0.126   2.082  0.1554  0.5862  0.3870
   73MOL   C23847902   4.502   0.145   2.212  0.6114 -0.8346 -0.1075
   73MOL   C23947903   4.419   0.020   2.261 -0.6247  0.3101  0.3376
   73MOL   C24047904   4.513   7.601   2.284  0.1422 -1.0414 -0.0721
   73MOL   C24147905   4.444   7.488   2.353  0.7896 -0.4549 -0.2720
   73MOL   C24247906   4.517   7.358   2.383 -0.3434 -0.6493  0.7444
   73MOL   C24347907   4.437   7.251   2.456 -0.0074 -0.7500  0.6121
   73MOL   H24447908   4.523   0.598   1.924  0.9313  3.3128  2.2764
   73MOL   H24547909   4.683   0.669   1.881 -0.8442  0.2536  1.4818
   73MOL   H24647910   4.793   0.454   1.889  1.4561  0.7087  1.8325
   73MOL   H24747911   4.527   0.381   2.016  0.1964  0.1624  0.1049
   73MOL   H24847912   4.612   0.301   1.883 -2.4023  0.2906  0.2568
   73MOL   H24947913   4.707   0.282   2.162  0.7996  0.3963 -0.3893
   73MOL   H25047914   4.767   0.187   2.020  1.1214  0.4331 -0.1421
   73MOL   H25147915   4.652   0.037   2.088  0.4455  0.8412  1.2257
   73MOL   H25247916   4.535   0.125   1.988  1.0052 -1.0150 -0.0912
   73MOL   H25347917   4.430   0.225   2.192 -0.7251 -0.9159  3.8553
   73MOL   H25447918   4.568   0.180   2.291  0.0378 -0.4670  0.2204
   73MOL   H25547919   4.362   0.043   2.352 -0.1224 -1.1809  1.0522
   73MOL   H25647920   4.343   7.692   2.189 -0.5511 -3.5163  1.7679
   73MOL   H25747921   4.558   7.568   2.190 -0.2069  2.0680 -1.3804
   73MOL   H25847922   4.601   7.633   2.338  0.9185 -1.3057 -1.1645
   73MOL   H25947923   4.389   7.513   2.443 -1.2178  0.4764 -1.7045
   73MOL   H26047924   4.366   7.456   2.284 -2.1112  2.1414  1.6881
   73MOL   H26147925   4.591   7.399   2.453  1.5234 -1.3288 -0.7748
   73MOL   H26247926   4.573   7.317   2.299  0.4090 -2.3048  2.0297
   73MOL   H26347927   4.354   7.203   2.405  1.0887 -4.5280  2.1871
   73MOL   H26447928   4.397   7.283   2.552  0.0402  1.7301 -0.1765
   73MOL   H26547929   4.504   7.169   2.482  2.7723  0.7897 -1.4526
   73MOL   C26647930   4.760   0.543   2.086 -0.7986 -0.0912 -0.3475
   73MOL   C26747931   4.912   0.558   2.072 -0.0384  0.4252  0.4453
   73MOL   C26847932   4.987   0.427   2.075  0.0017  0.1481  0.5280
   73MOL   C26947933   5.134   0.438   2.032 -0.1597  0.6941 -0.7498
   73MOL   C27047934   5.197   0.294   2.015  0.0494  0.0454 -0.1592
   73MOL   C27147935   5.328   0.294   1.942 -0.6410  0.0492 -0.7579
   73MOL   C27247936   5.392   0.152   1.940  0.3589  0.6308 -0.5688
   73MOL   C27347937   5.499   0.132   1.839 -0.3797 -0.1878  0.2630
   73MOL   C27447938   5.442   0.148   1.698 -0.2718  0.3097  0.4214
   73MOL   C27547939   5.550   0.119   1.593 -0.8110  0.0802 -0.2764
   73MOL   C27647940   5.507   0.163   1.449  0.2129  0.5107 -0.5530
   73MOL   H27747941   4.730   0.492   2.178 -2.9802  0.6250 -0.6316
   73MOL   H27847942   4.703   0.635   2.101 -2.6216 -0.8840 -2.1800
   73MOL   H27947943   4.930   0.608   1.977  1.0917  2.1483  1.5353
   73MOL   H28047944   4.986   0.389   2.177 -0.8259  0.8013  0.7650
   73MOL   H28147945   4.939   0.359   2.004  1.2094  1.0155 -1.1541
   73MOL   H28247946   5.192   0.486   2.112 -0.6233  1.0481 -0.6215
   73MOL   H28347947   5.138   0.492   1.938  1.9885  1.8761 -0.0168
   73MOL   H28447948   5.131   0.234   1.952 -2.6637  0.7333  1.9431
   73MOL   H28547949   5.192   0.243   2.111 -1.0283  1.4527  0.5406
   73MOL   H28647950   5.374   0.366   2.009 -2.2014  1.0350 -0.7000
   73MOL   H28747951   5.319   0.338   1.843  0.6514 -0.2904 -1.0320
   73MOL   H28847952   5.425   0.132   2.042  2.3896  2.0987 -0.8930
   73MOL   H28947953   5.311   0.089   1.907  1.1795  0.2826 -1.9488
   73MOL   H29047954   5.548   0.036   1.859 -0.2033  0.0249  0.8454
   73MOL   H29147955   5.570   0.213   1.852  1.4585 -1.7812  0.4281
   73MOL   H29247956   5.362   0.075   1.681  1.6756 -1.4637 -1.4945
   73MOL   H29347957   5.400   0.244   1.668 -0.3243 -0.0143 -0.5476
   73MOL   H29447958   5.589   0.018   1.581 -1.6487 -0.1303 -1.3628
   73MOL   H29547959   5.648   0.162   1.611 -0.8029  0.4382 -1.1688
   73MOL   H29647960   5.588   0.123   1.389  0.6724 -0.0472  0.4258
   73MOL   H29747961   5.509   0.271   1.438  1.9330  0.3635 -1.7305
   73MOL   H29847962   5.412   0.121   1.415  1.2697 -0.9287 -1.7763
   73MOL   C29947963   4.977   0.659   2.179  0.0043 -0.2697  0.0499
   73MOL   C30047964   4.908   0.792   2.207 -0.9580 -0.1267 -0.5304
   73MOL   C30147965   4.920   0.888   2.082  0.0085  0.2897  0.6651
   73MOL   C30247966   4.806   0.993   2.071 -0.2556  0.7942  0.1238
   73MOL   C30347967   4.749   1.000   1.930 -0.0840 -0.3455 -0.6739
   73MOL   C30447968   4.822   1.094   1.833  0.6894  0.5526  0.2742
   73MOL   C30547969   4.735   1.144   1.722 -1.4414  0.1686 -0.0979
   73MOL   C30647970   4.806   1.244   1.632 -0.5534 -0.4636 -0.0922
   73MOL   C30747971   4.924   1.177   1.556  0.1319  1.1960  0.0604
   73MOL   C30847972   4.954   1.266   1.447  0.1825  0.0377 -0.2240
   73MOL   C30947973   5.065   1.210   1.350 -1.0474  0.3169  0.3704
   73MOL   H31047974   5.079   0.689   2.155  0.0349 -0.5292 -0.1488
   73MOL   H31147975   4.987   0.610   2.276  1.2627  2.0041  1.0924
   73MOL   H31247976   4.804   0.771   2.234 -1.7146 -0.5313 -3.5846
   73MOL   H31347977   5.016   0.939   2.082 -0.5285  1.3486 -1.0990
   73MOL   H31447978   4.914   0.823   1.995 -0.8525  1.4004 -0.1166
   73MOL   H31547979   4.727   0.950   2.131  1.1706 -0.2873  1.2505
   73MOL   H31647980   4.833   1.085   2.122 -2.2897  0.7292  1.3643
   73MOL   H31747981   4.738   0.902   1.882  1.0754  0.1422 -1.9819
   73MOL   H31847982   4.648   1.040   1.939  0.0638  0.1921 -1.3627
   73MOL   H31947983   4.898   1.029   1.789 -0.1788 -1.0456  1.0827
   73MOL   H32047984   4.865   1.175   1.891  0.3715  0.3663  0.7703
   73MOL   H32147985   4.711   1.051   1.669 -0.0282 -1.0505  1.3260
   73MOL   H32247986   4.646   1.193   1.761  0.4839  1.1232  3.2717
   73MOL   H32347987   4.843   1.327   1.691  1.4371 -1.9504  0.8040
   73MOL   H32447988   4.727   1.290   1.573 -0.7007 -1.1181 -0.4074
   73MOL   H32547989   4.893   1.081   1.515  1.0950  1.2476 -0.7851
   73MOL   H32647990   5.006   1.164   1.626 -1.7210  0.5806  2.1766
   73MOL   H32747991   4.977   1.369   1.474 -0.5962  0.1705 -0.0602
   73MOL   H32847992   4.863   1.269   1.388 -0.9778 -1.5357  1.4452
   73MOL   H32947993   5.010   1.147   1.280  0.8069  0.2543 -1.0506
   73MOL   H33047994   5.106   1.281   1.278  0.4858  1.0171  1.8950
   73MOL   H33147995   5.141   1.151   1.401  0.0315  0.5858 -0.9350
   73MOL   C33247996   4.969   0.868   2.329 -0.4805  1.3638  0.3743
   73MOL   C33347997   4.901   0.846   2.459 -0.5131 -0.4133 -0.2482
   73MOL   C33447998   4.962   0.949   2.558 -0.0996  0.3973  0.1347
   73MOL   C33547999   4.876   0.985   2.676  0.1107 -0.8820 -0.1424
   73MOL   C33648000   4.927   1.116   2.743  0.3213 -0.4749  0.0152
   73MOL   C33748001   4.863   1.151   2.881  0.1726 -0.5729 -0.1637
   73MOL   C33848002   4.711   1.145   2.880 -0.6327 -0.4067  0.3168
   73MOL   C33948003   4.651   1.193   3.011  0.4953  0.7448  0.3544
   73MOL   C34048004   4.496   1.158   3.038  0.1129 -0.4220 -0.3161
   73MOL   C34148005   4.449   1.200   3.174  0.3418  0.0916 -0.4793
   73MOL   C34248006   4.409   1.080   3.269 -0.2338  0.1936 -0.1263
   73MOL   H34348007   5.078   0.862   2.327 -0.5596 -0.5679  0.2449
   73MOL   H34448008   4.944   0.973   2.319 -0.4447  1.3331 -0.0453
   73MOL   H34548009   4.794   0.852   2.440 -0.0735 -3.8697 -4.5496
   73MOL   H34648010   4.985   1.043   2.507 -0.1152 -0.9354 -2.3791
   73MOL   H34748011   5.060   0.913   2.590  0.2857  0.4334 -0.9861
   73MOL   H34848012   4.772   0.995   2.648  1.2774  1.8535 -3.8493
   73MOL   H34948013   4.866   0.904   2.749 -0.5832  1.8362  2.8709
   73MOL   H35048014   5.034   1.123   2.761 -0.1194  2.4221  1.9634
   73MOL   H35148015   4.904   1.205   2.683  0.5008 -0.2298  0.3114
   73MOL   H35248016   4.885   1.252   2.916 -2.0676 -0.5722  1.3086
   73MOL   H35348017   4.909   1.093   2.961 -1.6619 -2.8331 -0.6982
   73MOL   H35448018   4.681   1.040   2.885 -0.8472 -0.3453  0.3276
   73MOL   H35548019   4.669   1.196   2.793  1.1720  1.1499  0.3341
   73MOL   H35648020   4.702   1.139   3.091 -1.5708  0.4424  1.4807
   73MOL   H35748021   4.667   1.300   3.022 -0.6944  1.0831 -1.0686
   73MOL   H35848022   4.467   1.057   3.011 -0.4357 -0.4385  0.3476
   73MOL   H35948023   4.442   1.219   2.966  1.2548 -0.3069 -1.0935
   73MOL   H36048024   4.368   1.268   3.149 -0.6826 -0.3693  1.4529
   73MOL   H36148025   4.517   1.266   3.227 -2.1575  1.9577  0.4882
   73MOL   H36248026   4.342   1.007   3.223  0.4724 -0.4431 -0.1544
   73MOL   H36348027   4.495   1.026   3.308  0.7620  0.6738 -1.5943
   73MOL   H36448028   4.356   1.111   3.359  0.2354 -0.7381  0.4760
   73MOL   C36548029   4.941   0.707   2.508  0.3278 -0.2660 -0.5357
   73MOL   C36648030   4.833   0.599   2.493 -0.2692  0.0245 -0.1751
   73MOL   C36748031   4.898   0.465   2.523 -0.0798  0.4587  0.5237
   73MOL   C36848032   4.967   0.449   2.664 -0.3136  0.3236  0.1987
   73MOL   C36948033   4.976   0.301   2.698 -0.3430 -0.3640  0.3452
   73MOL   C37048034   5.064   0.254   2.816  0.3553 -0.4087  0.7695
   73MOL   C37148035   5.213   0.256   2.781  0.4420 -0.8209  0.6943
   73MOL   C37248036   5.303   0.232   2.899  0.4242 -0.0324 -0.1533
   73MOL   C37348037   5.298   0.337   3.004 -0.0986 -0.1876 -0.3514
   73MOL   C37448038   5.371   0.300   3.121 -0.3228 -0.4866  0.1141
   73MOL   C37548039   5.380   0.415   3.223 -0.3096  0.5477 -0.0723
   73MOL   H37648040   5.040   0.675   2.476  1.1978  1.5415  0.2721
   73MOL   H37748041   4.957   0.719   2.615  1.7666 -0.0004 -0.7753
   73MOL   H37848042   4.804   0.602   2.388 -1.3329  2.0361  0.1562
   73MOL   H37948043   4.978   0.440   2.453 -0.1976  2.6840 -0.4361
   73MOL   H38048044   4.830   0.383   2.499  1.4720 -0.5067 -0.7692
   73MOL   H38148045   4.912   0.490   2.748  1.4034 -1.3641  2.2050
   73MOL   H38248046   5.064   0.498   2.657  0.7398 -1.0284  4.0240
   73MOL   H38348047   5.005   0.250   2.605 -1.7587  0.6991 -0.6974
   73MOL   H38448048   4.874   0.266   2.714 -0.5549 -0.0187 -0.2301
   73MOL   H38548049   5.029   0.157   2.851  3.0354 -0.6729  2.8615
   73MOL   H38648050   5.035   0.313   2.903 -1.8808 -0.9320  0.4186
   73MOL   H38748051   5.232   0.182   2.703  1.4799 -0.0790  0.2456
   73MOL   H38848052   5.242   0.353   2.742  0.4923 -1.4164 -0.7767
   73MOL   H38948053   5.407   0.216   2.871  0.4208  1.1177 -0.8589
   73MOL   H39048054   5.289   0.136   2.948 -0.1119  1.0609  1.8818
   73MOL   H39148055   5.334   0.424   2.950  0.7419  0.7615  1.7014
   73MOL   H39248056   5.196   0.359   3.037  0.1340  1.2095 -0.5667
   73MOL   H39348057   5.312   0.219   3.163  0.5002 -2.3858 -2.2750
   73MOL   H39448058   5.462   0.250   3.088  0.5307  0.6340  0.7016
   73MOL   H39548059   5.452   0.494   3.201 -0.0036  0.0809 -0.7544
   73MOL   H39648060   5.403   0.383   3.325 -0.1940  0.2550 -0.1914
   73MOL   H39748061   5.282   0.464   3.225 -0.2699  0.6126  0.5765
   73MOL   C39848062   4.706   0.624   2.583 -0.1057  0.1286  0.3014
   73MOL   C39948063   4.571   0.556   2.537  0.8762 -0.1895 -0.9585
   73MOL   C40048064   4.527   0.619   2.405  0.0329 -0.0076 -0.0747
   73MOL   C40148065   4.411   0.549   2.339  0.0255  0.2763 -0.1146
   73MOL   C40248066   4.375   0.624   2.214  0.0971  0.4360  0.0528
   73MOL   C40348067   4.236   0.578   2.161 -0.6713 -0.6811 -0.2006
   73MOL   C40448068   4.199   0.656   2.036  0.4464 -0.1498  0.8100
   73MOL   C40548069   4.079   0.593   1.957 -0.4197 -0.2472  0.2356
   73MOL   C40648070   4.058   0.675   1.821 -0.3087 -0.7390  0.2173
   73MOL   C40748071   3.930   0.634   1.748  0.2381  0.0852  0.2670
   73MOL   C40848072   3.898   0.725   1.629 -0.4307 -0.3640 -0.1255
   73MOL   H40948073   4.673   0.727   2.596  0.3866  0.1881  1.1123
   73MOL   H41048074   4.735   0.589   2.682 -0.1310 -0.3182  0.1521
   73MOL   H41148075   4.593   0.454   2.507 -0.1468 -0.2752 -1.4401
   73MOL   H41248076   4.609   0.632   2.334  1.2283  0.9442  1.4323
   73MOL   H41348077   4.490   0.719   2.427  2.0835  0.3509  2.0063
   73MOL   H41448078   4.441   0.445   2.321  0.1699  0.8493 -3.4297
   73MOL   H41548079   4.323   0.537   2.403  0.4444  0.3492  0.4833
   73MOL   H41648080   4.369   0.730   2.237  0.2331 -0.0767  2.5885
   73MOL   H41748081   4.456   0.614   2.142  0.3867 -3.1620  0.7631
   73MOL   H41848082   4.161   0.574   2.240  0.5469  1.1704  1.0891
   73MOL   H41948083   4.251   0.472   2.140  0.5242 -0.7414  0.8850
   73MOL   H42048084   4.181   0.760   2.064  0.9834  0.3098 -0.5151
   73MOL   H42148085   4.286   0.659   1.971 -1.0924 -0.4719 -1.3140
   73MOL   H42248086   3.987   0.577   2.013 -0.8208  2.2677  0.3244
   73MOL   H42348087   4.111   0.493   1.925 -0.5371  0.2800 -1.5974
   73MOL   H42448088   4.061   0.783   1.833  1.5202 -0.7897  0.2763
   73MOL   H42548089   4.147   0.660   1.760 -0.4281  1.4287 -0.5134
   73MOL   H42648090   3.847   0.642   1.819 -0.5546  0.7015 -0.7244
   73MOL   H42748091   3.930   0.530   1.715 -1.0517  0.0959  0.2108
   73MOL   H42848092   3.887   0.828   1.665 -0.2344 -0.0901 -0.8415
   73MOL   H42948093   3.811   0.698   1.569 -0.1115 -2.4010  0.3044
   73MOL   H43048094   3.980   0.713   1.559 -1.4240 -1.2698 -1.1660
   73MOL   C43148095   4.464   0.545   2.648 -0.2968 -0.2308 -0.5402
   73MOL   C43248096   4.397   0.676   2.698 -0.3431  0.5653  0.4263
   73MOL   C43348097   4.375   0.663   2.852  0.3413 -0.2491  0.5865
   73MOL   C43448098   4.301   0.545   2.913 -0.0310  0.8287 -0.1813
   73MOL   C43548099   4.295   0.554   3.066  0.3951  0.1250 -0.1135
   73MOL   C43648100   4.180   0.460   3.113 -0.2672 -0.1682  0.2330
   73MOL   C43748101   4.183   0.447   3.263 -0.1792 -0.2070  0.3173
   73MOL   C43848102   4.054   0.406   3.335 -0.2248 -0.2584 -0.3334
   73MOL   C43948103   4.054   0.391   3.494 -0.0661  0.4370  0.4707
   73MOL   C44048104   3.919   0.339   3.546  0.5285  0.0592  0.0744
   73MOL   C44148105   3.886   0.345   3.697  0.1708 -0.3135  0.2684
   73MOL   H44248106   4.510   0.500   2.736 -0.1953  0.7427 -0.0912
   73MOL   H44348107   4.383   0.480   2.616 -0.2352 -2.2314  3.0891
   73MOL   H44448108   4.454   0.766   2.675 -0.3678  0.6023  0.5077
   73MOL   H44548109   4.471   0.662   2.905  0.9688 -1.0174 -0.5673
   73MOL   H44648110   4.343   0.759   2.894 -2.3702 -1.5885  1.6304
   73MOL   H44748111   4.340   0.449   2.878  0.3633  0.5792  0.9147
   73MOL   H44848112   4.201   0.540   2.871  0.4771  0.1746 -1.3405
   73MOL   H44948113   4.266   0.658   3.080  1.0370  0.2082  0.6713
   73MOL   H45048114   4.384   0.523   3.122 -1.1088  1.1884  2.9577
   73MOL   H45148115   4.182   0.362   3.067 -1.6832  0.1251 -0.5010
   73MOL   H45248116   4.093   0.514   3.074 -0.2062 -1.4008 -1.6573
   73MOL   H45348117   4.212   0.544   3.305 -1.8235 -0.5492  2.3019
   73MOL   H45448118   4.271   0.391   3.296  0.7035  0.6545 -0.5016
   73MOL   H45548119   3.986   0.486   3.306  1.2594  1.1255 -0.0431
   73MOL   H45648120   4.021   0.318   3.280 -1.5326 -0.3945  0.6440
   73MOL   H45748121   4.082   0.489   3.532 -1.0061 -0.2879  3.0984
   73MOL   H45848122   4.136   0.326   3.525 -1.1125 -0.3573  1.5766
   73MOL   H45948123   3.917   0.233   3.518  0.5130  0.0422  0.1392
   73MOL   H46048124   3.838   0.387   3.491  1.5814  1.6684 -0.0796
   73MOL   H46148125   3.950   0.281   3.758  0.0693 -0.3457  0.3414
   73MOL   H46248126   3.888   0.440   3.750  1.2156 -0.0948 -0.1358
   73MOL   H46348127   3.784   0.308   3.703 -0.6877  1.7173 -1.4159
   73MOL   C46448128   4.262   0.687   2.627  0.6130  0.3541 -0.9753
   73MOL   C46548129   4.168   0.799   2.663 -0.2842  0.1956  0.5076
   73MOL   C46648130   4.232   0.939   2.616  0.2527  0.0583  0.0280
   73MOL   C46748131   4.324   1.010   2.722  0.1033  0.9240  0.4501
   73MOL   C46848132   4.389   1.135   2.654  0.3342  0.3608 -0.1549
   73MOL   C46948133   4.499   1.114   2.553 -0.0551 -0.3466 -0.1728
   73MOL   C47048134   4.530   1.239   2.473 -0.2470  0.2881  0.5473
   73MOL   C47148135   4.621   1.210   2.350  0.5938  0.4130 -0.1881
   73MOL   C47248136   4.639   1.345   2.270 -0.3902  0.0019 -0.7493
   73MOL   C47348137   4.727   1.322   2.148  0.2344 -0.7893  0.2045
   73MOL   C47448138   4.740   1.453   2.076 -0.5131  0.1000  0.6424
   73MOL   H47548139   4.203   0.599   2.653  1.1999  0.3858  0.4476
   73MOL   H47648140   4.277   0.688   2.519  0.3734 -0.6182 -1.0241
   73MOL   H47748141   4.160   0.801   2.772  1.7322 -1.0064  0.7011
   73MOL   H47848142   4.157   1.009   2.581 -1.4890 -0.7867  1.9596
   73MOL   H47948143   4.293   0.919   2.528  1.0342 -0.9891  0.7926
   73MOL   H48048144   4.266   1.045   2.807  1.2691  1.2576  1.1318
   73MOL   H48148145   4.392   0.936   2.764 -0.4296 -0.3238 -0.8515
   73MOL   H48248146   4.429   1.211   2.722  0.3930 -0.4014  0.6741
   73MOL   H48348147   4.303   1.183   2.607  0.5090 -2.3094 -3.3515
   73MOL   H48448148   4.596   1.095   2.598  0.5379  0.9279 -0.9073
   73MOL   H48548149   4.471   1.026   2.494  0.0117  0.2417 -1.0854
   73MOL   H48648150   4.441   1.282   2.427  0.0877 -0.9607 -1.3644
   73MOL   H48748151   4.575   1.312   2.539  2.0622 -0.8903  0.3312
   73MOL   H48848152   4.715   1.165   2.382  0.2628  0.4327  0.8216
   73MOL   H48948153   4.569   1.131   2.296 -0.9356 -0.1638  2.0420
   73MOL   H49048154   4.544   1.395   2.248 -0.2283  2.2573  3.1684
   73MOL   H49148155   4.692   1.420   2.330 -0.4415 -0.6556  0.1237
   73MOL   H49248156   4.827   1.293   2.181 -0.4205 -0.3764  2.7073
   73MOL   H49348157   4.685   1.249   2.080 -0.7106 -1.3989  1.4197
   73MOL   H49448158   4.809   1.446   1.992  0.5986  1.3978  1.4403
   73MOL   H49548159   4.760   1.529   2.151 -1.1249 -0.2268  1.1444
   73MOL   H49648160   4.652   1.490   2.023  0.7662  0.3193 -1.4033
   73MOL   C49748161   4.016   0.788   2.613 -0.3224 -0.0874 -1.0667
   73MOL   C49848162   3.932   0.682   2.684  0.3473 -1.3022  0.1477
   73MOL   C49948163   3.922   0.549   2.602 -0.0159 -0.5611  0.3671
   73MOL   C50048164   3.841   0.560   2.474  0.2920 -0.5331  0.3179
   73MOL   C50148165   3.802   0.425   2.408  0.2828 -0.0774 -0.4471
   73MOL   C50248166   3.917   0.359   2.331  0.6734 -0.5720 -0.4823
   73MOL   C50348167   3.874   0.231   2.268 -0.0380  0.0362 -0.1348
   73MOL   C50448168   3.985   0.158   2.180  0.4764  0.1329  0.2765
   73MOL   C50548169   3.931   0.024   2.133  0.6531  0.7316 -0.0850
   73MOL   C50648170   4.031   7.654   2.047 -0.2053 -0.0248  0.0797
   73MOL   C50748171   3.971   7.523   1.993  0.4476 -0.1130  0.0394
   73MOL   H50848172   3.970   0.886   2.630 -0.7990 -0.5310  0.2175
   73MOL   H50948173   4.014   0.785   2.504 -0.5354 -1.6729 -1.0234
   73MOL   H51048174   3.989   0.668   2.776  0.8767 -1.8836 -0.2696
   73MOL   H51148175   3.875   0.472   2.663 -1.1681 -1.2228 -1.3195
   73MOL   H51248176   4.022   0.507   2.588 -0.1648 -1.4190  1.8001
   73MOL   H51348177   3.892   0.617   2.396 -0.2222 -1.5632 -0.7729
   73MOL   H51448178   3.751   0.620   2.488 -2.3021 -4.4122  1.0753
   73MOL   H51548179   3.745   0.357   2.471 -1.7738  1.5849 -0.4174
   73MOL   H51648180   3.731   0.449   2.328 -1.7869 -0.0207  1.3776
   73MOL   H51748181   3.943   0.423   2.246  0.2377 -1.7470 -1.4975
   73MOL   H51848182   3.997   0.340   2.402 -0.2011 -1.8319  0.1613
   73MOL   H51948183   3.850   0.164   2.351 -0.1701  1.7874  1.2870
   73MOL   H52048184   3.781   0.244   2.214 -0.8600 -2.0230  0.7096
   73MOL   H52148185   4.073   0.129   2.237  0.3424 -0.2375  0.2961
   73MOL   H52248186   4.028   0.206   2.092 -1.5648  1.7748  0.1277
   73MOL   H52348187   3.835   0.026   2.081 -0.9206 -2.0873  2.5185
   73MOL   H52448188   3.897   7.658   2.210 -0.8509  2.0276  0.4568
   73MOL   H52548189   4.122   7.626   2.101 -0.5246 -1.0348  0.1135
   73MOL   H52648190   4.053   0.017   1.963  1.6407 -0.5934  0.0800
   73MOL   H52748191   3.876   7.541   1.943 -0.1662 -3.8608 -0.2557
   73MOL   H52848192   3.962   7.460   2.082 -1.4262 -0.4225 -0.3413
   73MOL   H52948193   4.050   7.480   1.932  1.8305  2.8738 -0.3708
   73MOL   C53048194   3.799   0.736   2.732 -0.3863  1.0272  0.5900
   73MOL   C53148195   3.809   0.841   2.846 -0.5956  0.0281 -0.2977
   73MOL   C53248196   3.832   0.762   2.985  0.2516  0.3094  0.2987
   73MOL   C53348197   3.890   0.855   3.099 -0.0798  0.3251  0.0287
   73MOL   C53448198   3.933   0.774   3.225  0.0248 -0.3002 -0.4118
   73MOL   C53548199   3.972   0.857   3.334  0.5769 -0.7131  0.1505
   73MOL   C53648200   4.037   0.776   3.444 -0.2723  0.0826 -0.3870
   73MOL   C53748201   4.113   0.869   3.533 -0.8047  0.3608  0.1915
   73MOL   C53848202   4.173   0.807   3.658  0.1422  0.4489  0.0617
   73MOL   C53948203   4.279   0.896   3.728  0.1668  0.2082 -0.4720
   73MOL   C54048204   4.258   0.900   3.877  0.3840  0.1434  0.0441
   73MOL   H54148205   3.749   0.767   2.641  1.4930  2.4520  0.0079
   73MOL   H54248206   3.741   0.650   2.766 -0.0507  0.5570 -0.0248
   73MOL   H54348207   3.891   0.909   2.825  0.0698 -0.7388 -0.2050
   73MOL   H54448208   3.908   0.686   2.965  0.3855  0.9693 -1.8836
   73MOL   H54548209   3.734   0.722   3.012  0.7184 -1.1426 -0.1393
   73MOL   H54648210   3.823   0.936   3.128 -0.0839  0.5633 -0.6277
   73MOL   H54748211   3.983   0.905   3.072 -0.1825  0.2469 -0.4731
   73MOL   H54848212   4.019   0.712   3.198 -0.5827 -0.8297 -1.1402
   73MOL   H54948213   3.858   0.697   3.247  0.7205 -0.9324 -0.2124
   73MOL   H55048214   3.887   0.920   3.360 -0.1255 -2.3256  1.9423
   73MOL   H55148215   4.052   0.924   3.303  0.4862 -1.7608 -2.4145
   73MOL   H55248216   4.104   0.698   3.408  1.9473  1.9099 -0.3081
   73MOL   H55348217   3.959   0.730   3.505 -1.3745  2.4245  0.0118
   73MOL   H55448218   4.055   0.953   3.571  1.1800  2.3736 -1.0505
   73MOL   H55548219   4.197   0.914   3.479 -0.3626 -1.0808 -0.3363
   73MOL   H55648220   4.220   0.713   3.630 -1.1524 -0.7245  1.6994
   73MOL   H55748221   4.089   0.786   3.724 -0.5757 -0.9385 -1.2679
   73MOL   H55848222   4.275   0.998   3.690  1.6056 -0.1814 -1.7435
   73MOL   H55948223   4.374   0.848   3.703  0.3944  0.6352 -0.4285
   73MOL   H56048224   4.163   0.942   3.909 -0.2685 -0.2084 -1.3967
   73MOL   H56148225   4.249   0.798   3.914  3.7690 -0.5241 -0.7416
   73MOL   H56248226   4.332   0.959   3.931 -2.6893  1.1177  3.3577
   73MOL   C56348227   3.684   0.929   2.858  0.7188  0.1222 -0.0246
   73MOL   C56448228   3.676   1.033   2.747 -0.4211 -0.0987 -0.0221
   73MOL   C56548229   3.721   1.176   2.787 -0.0704  0.1619 -0.2391
   73MOL   C56648230   3.855   1.190   2.868  0.3295  0.5448 -0.4735
   73MOL   C56748231   3.871   1.327   2.937  0.1471  0.3133 -0.2017
   73MOL   C56848232   4.005   1.350   3.013  0.0049  0.3935 -0.0867
   73MOL   C56948233   4.029   1.500   3.065 -0.1206  1.1186 -0.5099
   73MOL   C57048234   4.151   1.518   3.161  1.0525 -0.3888 -0.5536
   73MOL   C57148235   4.152   1.449   3.301  0.3175  0.1962  0.7194
   73MOL   C57248236   4.268   1.493   3.386  0.5044  1.2371 -1.2906
   73MOL   C57348237   4.260   1.418   3.522 -0.0558  0.1794  0.3371
   73MOL   H57448238   3.694   0.981   2.953  1.7067 -1.8643  1.0000
   73MOL   H57548239   3.605   0.854   2.855  0.6882  0.0490  2.0600
   73MOL   H57648240   3.755   1.005   2.678  0.4141  1.8411  0.1122
   73MOL   H57748241   3.643   1.211   2.854  0.1422  0.3971 -0.1134
   73MOL   H57848242   3.707   1.237   2.698 -0.1339 -0.0116 -0.3490
   73MOL   H57948243   3.940   1.173   2.802  0.3729  1.6334 -0.6979
   73MOL   H58048244   3.845   1.117   2.949  0.9847  0.2438 -0.6568
   73MOL   H58148245   3.784   1.339   3.001 -0.8200 -2.2034 -0.9814
   73MOL   H58248246   3.887   1.406   2.863  1.4765  0.1719 -0.0882
   73MOL   H58348247   4.016   1.282   3.098  3.2451 -0.8172 -1.4049
   73MOL   H58448248   4.090   1.326   2.949 -0.3884 -0.1033 -0.4312
   73MOL   H58548249   4.032   1.569   2.981  0.0255  0.2052 -1.2681
   73MOL   H58648250   3.955   1.549   3.128 -1.1602  0.6126 -1.3184
   73MOL   H58748251   4.171   1.623   3.182  5.2284 -1.3677  0.7751
   73MOL   H58848252   4.247   1.503   3.110  1.8488  1.1969  0.4499
   73MOL   H58948253   4.133   1.342   3.293 -0.4767  0.3606  0.3523
   73MOL   H59048254   4.058   1.482   3.345  0.0584 -0.4737  0.6783
   73MOL   H59148255   4.265   1.601   3.400  0.2776  1.1772 -0.8856
   73MOL   H59248256   4.371   1.483   3.352  0.8421  2.5002 -0.6845
   73MOL   H59348257   4.346   1.444   3.584 -0.4583 -1.7358  1.7454
   73MOL   H59448258   4.169   1.432   3.580  0.7003 -0.0123  1.5884
   73MOL   H59548259   4.258   1.311   3.500  2.4802  0.4193 -1.3440
   73MOL   C59648260   3.533   1.037   2.672 -0.2312  0.3140 -0.0165
   73MOL   C59748261   3.523   0.945   2.547 -0.4871 -0.3103 -0.1380
   73MOL   C59848262   3.625   0.989   2.439 -0.0354 -0.1254  0.2782
   73MOL   C59948263   3.606   1.131   2.391  0.0352  0.0096  0.2319
   73MOL   C60048264   3.671   1.173   2.260  0.5844  0.1178 -0.2697
   73MOL   C60148265   3.669   1.325   2.223 -0.0123  0.4373 -0.2718
   73MOL   C60248266   3.730   1.343   2.082  0.9148 -0.8915  0.2762
   73MOL   C60348267   3.756   1.494   2.050 -0.4292  0.1339  0.2509
   73MOL   C60448268   3.738   1.532   1.909 -0.3791  0.5214 -0.2107
   73MOL   C60548269   3.761   1.686   1.881  0.3845  0.8297 -0.2394
   73MOL   C60648270   3.628   1.758   1.897  0.4867  0.0610 -0.4703
   73MOL   H60748271   3.464   1.001   2.749  0.7990 -2.1857 -0.2360
   73MOL   H60848272   3.504   1.140   2.650  0.5617 -0.2259 -3.8129
   73MOL   H60948273   3.548   0.842   2.573 -1.1036 -0.5246 -0.3832
   73MOL   H61048274   3.619   0.918   2.357  1.7698 -0.6980  0.6373
   73MOL   H61148275   3.727   0.970   2.472 -0.1812  0.6430  1.2010
   73MOL   H61248276   3.643   1.196   2.471  2.6471 -1.2582  0.1059
   73MOL   H61348277   3.503   1.167   2.388 -1.1422 -3.0834  1.3590
   73MOL   H61448278   3.625   1.106   2.188  0.2733  0.2952 -0.2422
   73MOL   H61548279   3.774   1.139   2.268 -0.3848 -2.8564  0.0780
   73MOL   H61648280   3.572   1.374   2.233  0.1464  0.5350  0.9122
   73MOL   H61748281   3.726   1.385   2.294 -0.8829  0.8987  0.0492
   73MOL   H61848282   3.667   1.300   2.004  0.5021 -0.9670  0.6493
   73MOL   H61948283   3.821   1.283   2.075  2.1509  0.6706  2.3653
   73MOL   H62048284   3.849   1.535   2.089 -1.5741  0.3610  2.8238
   73MOL   H62148285   3.685   1.555   2.106 -2.3694 -0.7845 -1.1593
   73MOL   H62248286   3.798   1.464   1.850 -2.2828 -1.3335 -0.0758
   73MOL   H62348287   3.646   1.506   1.856 -0.4590  1.4848 -0.5573
   73MOL   H62448288   3.805   1.700   1.782  0.0627 -1.4210 -0.7115
   73MOL   H62548289   3.846   1.716   1.943 -0.2580  2.8820 -0.2975
   73MOL   H62648290   3.605   1.768   2.003  0.6678  3.8120 -0.7176
   73MOL   H62748291   3.629   1.857   1.852  2.4455  0.5389  0.5612
   73MOL   H62848292   3.543   1.711   1.847 -0.0928  0.2255  0.3489
   73MOL   C62948293   3.375   0.928   2.500  0.4312 -0.0187  0.4557
   73MOL   C63048294   3.353   0.833   2.371 -0.2250 -0.2018 -0.8851
   73MOL   C63148295   3.206   0.807   2.342 -0.1144 -0.1366  0.5832
   73MOL   C63248296   3.179   0.728   2.209  0.4009 -0.7377 -0.2693
   73MOL   C63348297   3.024   0.719   2.181 -0.3278  0.0620  0.7770
   73MOL   C63448298   2.977   0.610   2.090  0.0742  0.1513 -1.0416
   73MOL   C63548299   3.039   0.627   1.951 -0.4200  0.4248 -0.5029
   73MOL   C63648300   2.949   0.555   1.847 -0.2791 -0.7848  0.0612
   73MOL   C63748301   3.001   0.537   1.707  0.3834 -0.9081 -0.0464
   73MOL   C63848302   2.908   0.457   1.616 -1.1876 -0.3946 -0.0392
   73MOL   C63948303   2.774   0.528   1.577  0.8551 -0.1673  0.5070
   73MOL   H64048304   3.314   0.879   2.576  0.1117 -0.0828  0.1613
   73MOL   H64148305   3.333   1.026   2.478 -1.5525 -1.0137 -0.3830
   73MOL   H64248306   3.384   0.876   2.276  0.9991 -1.2706 -0.9770
   73MOL   H64348307   3.162   0.761   2.431  2.0981 -1.5899  0.9588
   73MOL   H64448308   3.163   0.906   2.329  1.0637  0.3883  0.5932
   73MOL   H64548309   3.228   0.631   2.216  0.9401 -0.3962  0.7395
   73MOL   H64648310   3.239   0.773   2.131 -0.3760 -0.8408 -0.9269
   73MOL   H64748311   2.987   0.815   2.146  0.3049  0.2232  0.5481
   73MOL   H64848312   2.986   0.708   2.282 -1.7868  1.3483  0.3790
   73MOL   H64948313   2.869   0.624   2.082  0.0124 -1.0416 -2.5169
   73MOL   H65048314   2.989   0.509   2.132 -1.0049 -0.5790 -2.4414
   73MOL   H65148315   3.141   0.588   1.954 -1.0140 -1.0279  1.4798
   73MOL   H65248316   3.049   0.730   1.918  0.8169  1.3920  2.7326
   73MOL   H65348317   2.847   0.592   1.853 -0.8859 -2.5564  0.7901
   73MOL   H65448318   2.934   0.456   1.889 -0.2061 -0.5293  0.6912
   73MOL   H65548319   3.088   0.472   1.700 -2.0502 -4.0635 -1.9978
   73MOL   H65648320   3.030   0.637   1.673  2.4974 -1.6707 -0.5783
   73MOL   H65748321   2.907   0.353   1.648  1.5022 -0.4460  0.0069
   73MOL   H65848322   2.966   0.466   1.524 -0.5562  1.0291  0.4756
   73MOL   H65948323   2.794   0.630   1.546  4.8535 -1.0899 -0.2424
   73MOL   H66048324   2.704   0.526   1.661  0.9220  0.8866  0.5891
   73MOL   H66148325   2.724   0.476   1.496  0.7023  1.7377 -0.6433
   73MOL   H66248326   3.414   0.744   2.381 -2.5820 -1.6183  1.5559
   74MOL     C148327   2.741   6.221   6.081  0.1064 -0.4397  0.6200
   74MOL     C248328   2.588   6.225   6.057 -0.3334 -0.4437  0.2785
   74MOL     C348329   2.542   6.311   5.933  0.5764  0.2082 -0.1282
   74MOL     C448330   2.543   6.452   5.976 -0.0441  0.5375 -0.7432
   74MOL     C548331   2.509   6.543   5.862  0.5068  0.0476  0.3511
   74MOL     C648332   2.640   6.614   5.817 -0.1878 -0.1251  0.3344
   74MOL     C748333   2.622   6.701   5.685 -0.7882 -0.4062  0.2202
   74MOL     C848334   2.753   6.765   5.641  0.2104 -0.2019 -0.4462
   74MOL     C948335   2.745   6.825   5.499 -0.6121  0.2031  0.3917
   74MOL    C1048336   2.873   6.902   5.444 -0.2541  0.1504  0.4157
   74MOL    C1148337   2.864   6.937   5.291  0.2945 -0.5235 -0.1282
   74MOL    H1248338   2.766   6.169   6.173  1.3963 -1.2519 -0.1716
   74MOL    H1348339   2.783   6.321   6.086  0.2131 -0.4283 -0.3824
   74MOL    H1448340   2.545   6.273   6.145 -0.0908  0.4270 -0.0719
   74MOL    H1548341   2.448   6.279   5.888  1.2751 -1.5312 -0.3740
   74MOL    H1648342   2.615   6.300   5.853 -1.3014 -0.8485 -1.7303
   74MOL    H1748343   2.637   6.490   6.018  0.3123  0.3479 -1.3662
   74MOL    H1848344   2.474   6.451   6.061  0.7847 -0.7615 -0.0576
   74MOL    H1948345   2.459   6.481   5.788 -1.4423  1.6915  0.2357
   74MOL    H2048346   2.444   6.623   5.898 -1.3333 -1.6788  0.9986
   74MOL    H2148347   2.719   6.543   5.793  0.9653  1.4346 -0.6107
   74MOL    H2248348   2.679   6.688   5.888  3.2827  1.4058 -2.9595
   74MOL    H2348349   2.582   6.636   5.607  2.0621 -0.8898 -0.9025
   74MOL    H2448350   2.543   6.777   5.684 -1.5662 -1.2032 -2.5875
   74MOL    H2548351   2.832   6.690   5.633 -0.8786 -1.3313 -0.6552
   74MOL    H2648352   2.792   6.845   5.705  2.2736  1.0293 -3.1423
   74MOL    H2748353   2.656   6.887   5.485  0.3626  1.5570  0.0782
   74MOL    H2848354   2.730   6.739   5.434 -0.9716 -0.3729  1.2153
   74MOL    H2948355   2.964   6.845   5.464  0.8232  2.1760  1.4619
   74MOL    H3048356   2.893   6.991   5.504 -2.0101  1.5693 -1.0397
   74MOL    H3148357   2.824   6.852   5.235  0.1491 -0.5426  0.0051
   74MOL    H3248358   2.794   7.020   5.276  1.2017  0.2210 -0.2894
   74MOL    H3348359   2.961   6.974   5.258  0.4627 -0.9445 -0.0998
   74MOL    H3448360   2.799   6.168   6.005 -1.0734 -1.3605  0.3317
   74MOL    C3548361   2.530   6.073   6.049 -0.0102  0.5734 -0.1889
   74MOL    C3648362   2.376   6.061   6.080 -0.3563  0.6736  0.3652
   74MOL    C3748363   2.313   5.934   6.011  0.3690  0.9485  0.8439
   74MOL    C3848364   2.251   5.979   5.874  0.3085 -0.0726  1.0889
   74MOL    C3948365   2.175   5.873   5.802 -0.1106 -0.5270 -0.4084
   74MOL    C4048366   2.048   5.843   5.873  0.3152 -0.1081 -0.0981
   74MOL    C4148367   1.940   5.780   5.785  0.8948 -0.0629 -0.1706
   74MOL    C4248368   1.809   5.745   5.862 -0.0232  0.3555 -0.5659
   74MOL    C4348369   1.715   5.665   5.771  0.1389  0.6238  0.5532
   74MOL    C4448370   1.579   5.638   5.829  0.3480  0.0769  0.3275
   74MOL    C4548371   1.481   5.562   5.737 -0.5759 -0.6956  0.3928
   74MOL    H4648372   2.576   6.004   6.120  0.2337 -0.8258 -1.6846
   74MOL    H4748373   2.539   6.026   5.951 -0.5064 -0.0286  0.0452
   74MOL    H4848374   2.339   6.148   6.027  0.4788  0.7645 -0.0726
   74MOL    H4948375   2.383   5.853   5.994 -2.0040 -0.5972 -1.8964
   74MOL    H5048376   2.243   5.879   6.074 -0.4015  1.6660  0.6136
   74MOL    H5148377   2.336   6.006   5.811  0.7456 -1.1686  1.1940
   74MOL    H5248378   2.184   6.065   5.882  0.7148  0.2549  0.9549
   74MOL    H5348379   2.246   5.792   5.785 -0.2803 -0.4309 -1.6008
   74MOL    H5448380   2.144   5.917   5.707 -1.0979  1.2557  0.7106
   74MOL    H5548381   2.021   5.933   5.928  1.7317  0.2593  0.0115
   74MOL    H5648382   2.076   5.769   5.948 -0.3324  0.1236  0.3761
   74MOL    H5748383   1.908   5.838   5.699  1.2459 -0.9439 -0.9064
   74MOL    H5848384   1.984   5.687   5.749  1.6478  0.4983 -0.7415
   74MOL    H5948385   1.767   5.841   5.891  0.2468 -0.3846  2.4312
   74MOL    H6048386   1.836   5.686   5.950 -2.2801 -0.2603 -0.2582
   74MOL    H6148387   1.756   5.565   5.761 -1.5414 -0.3584  3.2031
   74MOL    H6248388   1.714   5.712   5.672  1.6290  2.2385  1.2777
   74MOL    H6348389   1.596   5.583   5.921  1.8969  0.3166  0.2061
   74MOL    H6448390   1.525   5.730   5.853 -2.4022 -1.5806  0.6181
   74MOL    H6548391   1.525   5.464   5.715  1.3461  0.1624  0.3392
   74MOL    H6648392   1.378   5.556   5.772 -0.9884  0.2106 -0.6251
   74MOL    H6748393   1.471   5.609   5.639 -0.4889 -0.6182  0.4203
   74MOL    C6848394   2.337   6.061   6.226 -0.1190  0.7636 -0.8314
   74MOL    C6948395   2.192   6.102   6.254 -0.7174 -0.5796 -0.1210
   74MOL    C7048396   2.155   6.073   6.405 -0.1884  0.3512  0.1814
   74MOL    C7148397   2.092   5.935   6.416  0.1804 -0.8850  0.8637
   74MOL    C7248398   2.070   5.897   6.568  0.3245  0.4609 -1.0316
   74MOL    C7348399   1.966   5.782   6.585  1.0552  0.6157 -1.0485
   74MOL    C7448400   1.819   5.820   6.574 -0.4445  0.1061 -0.4428
   74MOL    C7548401   1.731   5.696   6.551  0.8144 -0.1338 -0.2199
   74MOL    C7648402   1.744   5.635   6.406  0.6184 -0.1126  0.4268
   74MOL    C7748403   1.653   5.703   6.301  1.1684 -0.4247  0.6898
   74MOL    C7848404   1.680   5.844   6.246 -0.0739  0.2918 -0.2048
   74MOL    H7948405   2.406   6.126   6.280  1.0567  0.7933 -2.3349
   74MOL    H8048406   2.353   5.957   6.255  1.9018  1.5912  1.1343
   74MOL    H8148407   2.132   6.036   6.191 -1.4756  0.3397 -0.3757
   74MOL    H8248408   2.070   6.137   6.430  1.3951  1.9028  1.7587
   74MOL    H8348409   2.232   6.104   6.475  0.1758 -0.1138 -0.0120
   74MOL    H8448410   2.000   5.931   6.359  0.7076  0.2780 -0.1034
   74MOL    H8548411   2.160   5.863   6.369 -0.6232 -1.2707  0.2839
   74MOL    H8648412   2.026   5.982   6.620 -0.6113  0.6411 -2.1209
   74MOL    H8748413   2.162   5.863   6.617 -1.1500 -2.0573  0.1416
   74MOL    H8848414   1.975   5.702   6.511 -0.2330 -1.7565  1.2746
   74MOL    H8948415   1.986   5.745   6.686 -2.3858  0.2288 -0.4267
   74MOL    H9048416   1.794   5.877   6.485  0.8085 -3.1589 -2.9668
   74MOL    H9148417   1.791   5.872   6.666 -1.4238 -3.2136  1.2121
   74MOL    H9248418   1.769   5.616   6.616  0.1327 -0.7466 -0.5660
   74MOL    H9348419   1.628   5.718   6.579  0.8178 -0.9918  0.4940
   74MOL    H9448420   1.849   5.631   6.375  0.4104 -0.6119 -0.2430
   74MOL    H9548421   1.701   5.536   6.424 -0.0438  0.2053  0.5855
   74MOL    H9648422   1.655   5.640   6.212 -1.8999 -0.7321  0.7989
   74MOL    H9748423   1.548   5.703   6.331  0.7784  2.6284 -0.4076
   74MOL    H9848424   1.667   5.918   6.325  0.9831  0.6663 -0.3749
   74MOL    H9948425   1.614   5.865   6.162 -2.0972 -1.3409  0.9251
   74MOL   H10048426   1.780   5.852   6.203 -0.2758  0.5863 -0.6261
   74MOL   C10148427   2.147   6.244   6.211  0.2641  0.1063  0.0056
   74MOL   C10248428   1.994   6.271   6.209 -0.6356  0.1911 -0.4446
   74MOL   C10348429   1.939   6.203   6.090  0.1598  0.3586 -1.0849
   74MOL   C10448430   1.788   6.221   6.060 -0.5591  0.3083 -0.4417
   74MOL   C10548431   1.714   6.122   5.975  0.0365  0.0888 -0.7575
   74MOL   C10648432   1.585   6.173   5.909  0.0601  0.0355 -0.2001
   74MOL   C10748433   1.505   6.047   5.845  0.3400 -0.0374  0.1835
   74MOL   C10848434   1.361   6.069   5.804 -0.0133 -0.0212  0.4316
   74MOL   C10948435   1.340   6.199   5.720  0.4897  0.4505 -0.1082
   74MOL   C11048436   1.201   6.198   5.649  0.0259  0.0233  0.6052
   74MOL   C11148437   1.189   6.306   5.539  0.2419  0.6502  0.6559
   74MOL   H11248438   2.192   6.314   6.282  0.1271 -2.2590  2.4954
   74MOL   H11348439   2.198   6.263   6.117  1.2146  0.9063  0.6670
   74MOL   H11448440   1.938   6.227   6.292 -1.1152  1.9710  0.2221
   74MOL   H11548441   2.002   6.232   6.006  0.5566 -0.9992 -1.2826
   74MOL   H11648442   1.953   6.095   6.098 -1.5385  0.2208  0.0850
   74MOL   H11748443   1.741   6.212   6.158  0.5994 -0.5005  0.0572
   74MOL   H11848444   1.777   6.328   6.041 -0.2188  1.1037  3.3796
   74MOL   H11948445   1.790   6.092   5.903 -1.5922 -0.0007 -2.4823
   74MOL   H12048446   1.691   6.033   6.033 -1.5167  1.0781  0.1600
   74MOL   H12148447   1.526   6.217   5.990 -0.1505  0.0435 -0.3581
   74MOL   H12248448   1.603   6.244   5.828 -1.9895 -0.1996 -0.8769
   74MOL   H12348449   1.513   5.963   5.914  1.3054  0.4132  0.6394
   74MOL   H12448450   1.562   6.012   5.759  1.0777 -0.2919  0.7705
   74MOL   H12548451   1.344   5.987   5.735  0.3550  0.1361  0.1523
   74MOL   H12648452   1.294   6.061   5.890 -1.1528 -2.6489 -0.6548
   74MOL   H12748453   1.359   6.262   5.807  1.2794  2.0701 -1.4518
   74MOL   H12848454   1.429   6.206   5.658  0.4304 -0.9530 -0.3823
   74MOL   H12948455   1.123   6.227   5.720  0.0025  2.9040 -0.5300
   74MOL   H13048456   1.173   6.104   5.601 -0.3601 -0.6922  2.2318
   74MOL   H13148457   1.256   6.283   5.456 -2.0973  0.1436 -1.1596
   74MOL   H13248458   1.087   6.311   5.499 -0.1814 -2.4093  1.2316
   74MOL   H13348459   1.204   6.409   5.572 -3.1356  1.5445 -0.3297
   74MOL   C13448460   1.972   6.428   6.210 -0.1300 -0.3030  0.2468
   74MOL   C13548461   2.016   6.512   6.333  0.2064  0.0778  0.2835
   74MOL   C13648462   1.982   6.451   6.469 -0.4874 -0.2272  0.5958
   74MOL   C13748463   2.068   6.497   6.587 -0.5626  0.3109 -0.4475
   74MOL   C13848464   2.030   6.437   6.728 -0.2675 -0.4072 -0.1078
   74MOL   C13948465   2.106   6.497   6.852  0.8631  0.2697  0.1459
   74MOL   C14048466   2.056   6.441   6.989  0.1028 -0.2215  0.2407
   74MOL   C14148467   2.113   6.517   7.105 -0.6966  0.4175 -0.6332
   74MOL   C14248468   2.058   6.472   7.242 -0.0940 -0.2361  0.3784
   74MOL   C14348469   2.139   6.340   7.286  0.3483 -0.3294 -0.3863
   74MOL   C14448470   2.113   6.306   7.434 -0.8365 -0.5704  0.7159
   74MOL   H14548471   2.028   6.461   6.123 -0.7075  0.4662  0.1687
   74MOL   H14648472   1.870   6.453   6.181 -0.0275 -1.7782 -1.4889
   74MOL   H14748473   2.123   6.531   6.336  0.5334 -0.9081 -3.4978
   74MOL   H14848474   1.986   6.342   6.468  2.5381 -0.1402 -1.9177
   74MOL   H14948475   1.883   6.486   6.498 -0.5776  2.8862 -3.0971
   74MOL   H15048476   2.173   6.484   6.563 -0.8775  0.4844 -2.0137
   74MOL   H15148477   2.061   6.605   6.600 -0.4783  0.1066  1.3670
   74MOL   H15248478   1.924   6.456   6.744 -0.3785  0.1980 -1.5609
   74MOL   H15348479   2.041   6.328   6.722 -0.9213 -0.5706  1.3777
   74MOL   H15448480   2.214   6.484   6.844  0.6684 -0.7489 -0.9937
   74MOL   H15548481   2.106   6.606   6.849  2.7462  0.3367  1.4337
   74MOL   H15648482   1.950   6.459   7.005  0.2651  1.2652 -0.2386
   74MOL   H15748483   2.077   6.334   6.985  0.2054 -0.2835  2.2165
   74MOL   H15848484   2.221   6.530   7.096 -0.4481 -1.2092 -0.1228
   74MOL   H15948485   2.084   6.622   7.102  1.3848  1.1035  1.4690
   74MOL   H16048486   2.079   6.551   7.315 -1.9086 -1.4461  2.2821
   74MOL   H16148487   1.949   6.470   7.250 -0.1204  1.3119  0.7199
   74MOL   H16248488   2.130   6.261   7.211 -0.1938  0.2816 -0.9755
   74MOL   H16348489   2.243   6.368   7.274  0.3162  1.1830  2.5253
   74MOL   H16448490   2.151   6.382   7.501 -0.2907 -1.3160  1.2665
   74MOL   H16548491   2.154   6.205   7.444 -0.8092 -0.6469 -0.1294
   74MOL   H16648492   2.005   6.299   7.449 -0.9810 -1.4368 -0.5759
   74MOL   C16748493   1.965   6.657   6.325 -0.5097 -0.5004  0.2148
   74MOL   C16848494   2.047   6.741   6.223  0.8323 -0.2380 -0.0764
   74MOL   C16948495   2.192   6.784   6.264  0.9976 -0.3106  0.6348
   74MOL   C17048496   2.198   6.901   6.360  0.0253 -0.7022 -0.2315
   74MOL   C17148497   2.296   6.891   6.479 -0.3594 -0.0331 -0.5077
   74MOL   C17248498   2.271   6.992   6.588  0.2285 -0.2465  0.0651
   74MOL   C17348499   2.142   6.962   6.666 -0.7525 -0.5382 -0.0042
   74MOL   C17448500   2.132   7.043   6.796 -0.1666  0.1253  0.7045
   74MOL   C17548501   1.996   7.033   6.858  0.4697  0.0631 -0.0252
   74MOL   C17648502   1.955   6.898   6.915 -0.7653 -0.4049  0.1509
   74MOL   C17748503   1.814   6.899   6.977 -0.2269 -0.4306 -0.2891
   74MOL   H17848504   1.864   6.655   6.283 -0.4068 -1.6774  0.0033
   74MOL   H17948505   1.965   6.703   6.424  0.4014 -1.1008  0.4988
   74MOL   H18048506   2.055   6.676   6.136 -1.3135 -3.2230  1.8591
   74MOL   H18148507   2.255   6.806   6.178  1.0206  1.0242  0.9808
   74MOL   H18248508   2.241   6.699   6.313 -1.8578 -2.4630 -0.1079
   74MOL   H18348509   2.224   6.984   6.295  0.3920  1.8175  3.0302
   74MOL   H18448510   2.100   6.930   6.399  0.2320 -2.4757  1.7129
   74MOL   H18548511   2.395   6.906   6.435 -0.2525  0.2314 -0.1788
   74MOL   H18648512   2.309   6.791   6.520 -2.7074 -0.6019 -1.0928
   74MOL   H18748513   2.349   6.981   6.664  0.3307  0.2084  0.0257
   74MOL   H18848514   2.275   7.091   6.544 -1.5324 -0.8175 -1.4502
   74MOL   H18948515   2.137   6.858   6.698 -0.1934 -0.7393 -0.5582
   74MOL   H19048516   2.048   6.982   6.616 -0.2849 -1.9829 -1.5284
   74MOL   H19148517   2.198   7.004   6.873 -1.0967 -2.4433  0.2219
   74MOL   H19248518   2.157   7.147   6.774  1.7076 -0.8306 -1.8576
   74MOL   H19348519   1.914   7.064   6.794  1.3274 -0.0376 -1.1894
   74MOL   H19448520   1.999   7.100   6.944  0.5825 -0.9924  0.8134
   74MOL   H19548521   2.024   6.861   6.989  0.3939  1.1285 -0.1307
   74MOL   H19648522   1.953   6.827   6.832  1.5085 -0.8937  0.5067
   74MOL   H19748523   1.808   6.971   7.059 -0.9276 -0.4847 -0.2888
   74MOL   H19848524   1.778   6.803   7.012 -1.9055  0.2076 -0.1950
   74MOL   H19948525   1.741   6.933   6.903 -0.8857 -0.5105  0.3122
   74MOL   C20048526   1.963   6.855   6.169 -0.1733 -0.5432 -0.0012
   74MOL   C20148527   1.896   6.828   6.034 -0.1425 -0.6340  0.1959
   74MOL   C20248528   2.006   6.839   5.924 -0.1013  0.1934 -0.3238
   74MOL   C20348529   1.988   6.740   5.804 -0.2605  0.0088 -0.1420
   74MOL   C20448530   2.124   6.735   5.719  0.1995 -0.2809 -0.3236
   74MOL   C20548531   2.115   6.682   5.583 -0.0532 -0.2173 -0.2387
   74MOL   C20648532   2.258   6.667   5.536 -0.1745 -0.3227  1.2506
   74MOL   C20748533   2.278   6.622   5.395 -0.8204 -0.6553  0.2599
   74MOL   C20848534   2.214   6.487   5.355  0.0779 -0.3036 -0.2455
   74MOL   C20948535   2.253   6.427   5.216 -0.0805 -0.6306 -0.9160
   74MOL   C21048536   2.208   6.278   5.188 -0.0501  0.2330 -0.1420
   74MOL   H21148537   1.885   6.862   6.244  1.4322  0.4466  1.5974
   74MOL   H21248538   2.013   6.951   6.179 -1.4160 -0.1785  3.4032
   74MOL   H21348539   1.857   6.726   6.028 -1.0979 -0.2942  0.4862
   74MOL   H21448540   2.105   6.831   5.968 -1.0291  2.0386  2.2395
   74MOL   H21548541   2.021   6.946   5.905  1.8893 -0.1525 -0.7595
   74MOL   H21648542   1.899   6.764   5.747 -0.3008 -1.2347 -0.6287
   74MOL   H21748543   1.966   6.643   5.848 -0.1170  0.0221 -0.0411
   74MOL   H21848544   2.190   6.666   5.771 -1.4942 -0.3002  1.8912
   74MOL   H21948545   2.177   6.830   5.719  0.6674 -0.5288 -1.7183
   74MOL   H22048546   2.063   6.587   5.590 -0.9019  0.2583 -0.0215
   74MOL   H22148547   2.060   6.754   5.523  0.3825  1.8074  1.7184
   74MOL   H22248548   2.318   6.599   5.595 -0.7566 -1.0254  1.0406
   74MOL   H22348549   2.307   6.764   5.543  0.0931 -0.0129 -3.4437
   74MOL   H22448550   2.385   6.606   5.382 -1.0475 -1.1076 -1.2024
   74MOL   H22548551   2.234   6.697   5.329  1.6964  1.1448  0.5744
   74MOL   H22648552   2.108   6.511   5.354 -0.0999 -0.9086  1.8763
   74MOL   H22748553   2.228   6.422   5.441  2.1785 -1.1821 -1.2291
   74MOL   H22848554   2.238   6.501   5.138 -1.7252 -0.8467 -0.8329
   74MOL   H22948555   2.362   6.417   5.220 -0.3140 -2.9346  1.4153
   74MOL   H23048556   2.099   6.277   5.193 -0.3267  1.9058 -3.5937
   74MOL   H23148557   2.253   6.220   5.268 -0.0669  0.0651 -0.2558
   74MOL   H23248558   2.232   6.243   5.087 -1.1875 -0.2056 -0.2695
   74MOL   C23348559   1.783   6.918   5.986  0.5758  0.0771 -0.3110
   74MOL   C23448560   1.668   6.945   6.077 -0.0765 -0.2744 -0.4244
   74MOL   C23548561   1.591   6.813   6.127 -0.9659 -0.5997  0.9191
   74MOL   C23648562   1.468   6.835   6.213  0.6419  0.3354 -0.5528
   74MOL   C23748563   1.407   6.706   6.276  0.3657 -0.0309 -0.2806
   74MOL   C23848564   1.264   6.723   6.342  0.4565  0.0296 -0.2676
   74MOL   C23948565   1.262   6.818   6.468  0.4441 -0.0204  0.8543
   74MOL   C24048566   1.127   6.843   6.532  0.3624  0.3138  0.5879
   74MOL   C24148567   1.133   6.925   6.662  0.2769 -0.1857  1.0049
   74MOL   C24248568   0.999   6.964   6.716 -0.0618 -0.0283 -0.9284
   74MOL   C24348569   1.006   7.018   6.859 -0.0481 -0.5276 -0.4855
   74MOL   H24448570   1.753   6.871   5.891  2.1856 -0.1420 -0.7234
   74MOL   H24548571   1.836   7.010   5.961  0.6513  0.3009  0.6903
   74MOL   H24648572   1.706   6.991   6.168 -2.8010  0.0525  0.5980
   74MOL   H24748573   1.560   6.750   6.044  0.3275  0.2459 -0.2074
   74MOL   H24848574   1.663   6.755   6.185  1.3205  1.2565 -0.0234
   74MOL   H24948575   1.384   6.886   6.165  0.1020  0.1741  0.2122
   74MOL   H25048576   1.493   6.906   6.293  0.3058  0.0775 -0.2162
   74MOL   H25148577   1.469   6.674   6.360  0.5805  0.6740 -0.1625
   74MOL   H25248578   1.403   6.627   6.202  1.4908  1.4702 -1.9856
   74MOL   H25348579   1.231   6.629   6.388  1.9925 -0.5352 -0.2808
   74MOL   H25448580   1.188   6.751   6.269  0.5275 -1.9485 -1.1342
   74MOL   H25548581   1.332   6.769   6.536  2.5559 -2.6793 -3.0287
   74MOL   H25648582   1.287   6.921   6.446  1.4016 -0.1598  1.2683
   74MOL   H25748583   1.059   6.891   6.461  0.2138 -2.2505 -1.0709
   74MOL   H25848584   1.091   6.743   6.558 -0.1743  0.4588  0.4129
   74MOL   H25948585   1.187   6.864   6.734 -0.9109  0.1749  2.2228
   74MOL   H26048586   1.188   7.019   6.652  1.1447 -0.5807  2.0406
   74MOL   H26148587   0.930   6.880   6.710 -0.1992  0.1598 -2.1687
   74MOL   H26248588   0.941   7.039   6.661 -2.5625 -0.2006  1.4100
   74MOL   H26348589   1.059   6.951   6.927 -1.5898 -0.7353  0.5328
   74MOL   H26448590   0.903   7.021   6.895  0.0140  1.3453 -0.4059
   74MOL   H26548591   1.047   7.119   6.860 -3.4173  0.9205  0.5720
   74MOL   C26648592   1.572   7.040   6.007  0.0711 -0.1380 -0.3229
   74MOL   C26748593   1.615   7.192   5.985  0.2281 -0.6933 -0.3089
   74MOL   C26848594   1.587   7.253   6.125  0.4004  0.4342 -0.4259
   74MOL   C26948595   1.609   7.402   6.141 -0.1333 -0.5003 -0.3385
   74MOL   C27048596   1.619   7.453   6.284 -0.2696 -0.1867 -1.0018
   74MOL   C27148597   1.639   7.597   6.303 -0.0313 -1.3235 -0.0930
   74MOL   C27248598   1.671   7.625   6.459  0.4066 -0.1978 -0.1610
   74MOL   C27348599   1.562   7.600   6.564 -0.3579  0.6691 -0.2879
   74MOL   C27448600   1.606   7.659   6.705 -0.0032  0.1017  0.4557
   74MOL   C27548601   1.511   7.621   6.822 -0.4999 -0.0756 -0.2495
   74MOL   C27648602   1.527   0.017   6.938  0.2409  1.0198  1.1888
   74MOL   H27748603   1.472   7.034   6.049  0.9057 -1.8277  1.4573
   74MOL   H27848604   1.569   6.998   5.906  0.4903  0.4127 -0.5733
   74MOL   H27948605   1.722   7.209   5.969  0.1866  0.3998  0.5236
   74MOL   H28048606   1.481   7.234   6.144  0.5726  2.6569  3.3868
   74MOL   H28148607   1.637   7.202   6.207  3.3421  2.2475 -1.0144
   74MOL   H28248608   1.527   7.457   6.095 -0.5700  0.1551  1.2055
   74MOL   H28348609   1.700   7.428   6.087  1.9256 -0.1035  3.1215
   74MOL   H28448610   1.714   7.417   6.324 -0.8161 -0.1660  0.3330
   74MOL   H28548611   1.538   7.413   6.344  0.4486 -1.1114 -0.6349
   74MOL   H28648612   1.545   7.645   6.273 -0.4358 -1.0672  1.5251
   74MOL   H28748613   1.717   7.636   6.238  0.6104 -0.0177  1.4057
   74MOL   H28848614   1.770   7.588   6.488 -0.5521  0.2017  3.8360
   74MOL   H28948615   1.695   0.028   6.472 -2.5001  0.5218 -0.4516
   74MOL   H29048616   1.542   7.493   6.565  0.7595  0.4330 -1.6956
   74MOL   H29148617   1.472   7.654   6.536 -2.2200 -2.4474 -0.5459
   74MOL   H29248618   1.705   7.626   6.736  0.2477  0.7445  0.3316
   74MOL   H29348619   1.602   0.064   6.695 -0.4030  0.1121  0.7209
   74MOL   H29448620   1.536   7.517   6.846  0.2010 -0.2731 -1.8031
   74MOL   H29548621   1.407   7.613   6.789 -0.7366  2.1851 -0.1165
   74MOL   H29648622   1.463   7.691   7.021  0.4081 -2.3111  0.2042
   74MOL   H29748623   1.497   0.119   6.913  1.0780  1.2183  0.9723
   74MOL   H29848624   1.632   0.025   6.968  0.1215  0.7889  1.6643
   74MOL   C29948625   1.544   7.260   5.866  0.0014 -0.4315 -0.4975
   74MOL   C30048626   1.560   7.196   5.727  0.8254  0.0017  0.2249
   74MOL   C30148627   1.705   7.186   5.669 -0.4722  0.2375  0.4333
   74MOL   C30248628   1.731   7.045   5.597  0.2501 -0.3210  0.0381
   74MOL   C30348629   1.879   7.010   5.590 -0.2065 -0.3427 -0.3574
   74MOL   C30448630   1.949   7.097   5.487  0.9884 -0.0284 -0.2892
   74MOL   C30548631   2.100   7.068   5.469 -0.1697  0.1539  0.0616
   74MOL   C30648632   2.181   7.100   5.592 -0.5531 -0.5809  0.3116
   74MOL   C30748633   2.336   7.105   5.590 -0.2290 -0.0855 -0.0407
   74MOL   C30848634   2.378   7.177   5.721  0.6199 -0.3524 -0.0378
   74MOL   C30948635   2.355   7.097   5.850 -0.4286  0.2017 -0.4098
   74MOL   H31048636   1.576   7.364   5.869  0.7104 -0.6340 -0.7921
   74MOL   H31148637   1.442   7.268   5.903  0.3060  0.5125  0.1562
   74MOL   H31248638   1.522   7.094   5.726 -2.1566  1.0565 -0.2033
   74MOL   H31348639   1.725   7.274   5.609  1.5921 -1.1243 -0.9564
   74MOL   H31448640   1.769   7.203   5.756  2.7197  0.2888 -1.8407
   74MOL   H31548641   1.688   6.965   5.658  0.8999 -0.6449  0.0752
   74MOL   H31648642   1.687   7.047   5.497 -0.3227 -1.2385  0.2709
   74MOL   H31748643   1.914   7.019   5.693 -0.3632 -1.1084 -0.2385
   74MOL   H31848644   1.896   6.907   5.561 -0.0972 -0.6085  0.6602
   74MOL   H31948645   1.948   7.199   5.525  1.7651  0.3237 -1.1942
   74MOL   H32048646   1.897   7.097   5.392  1.5927 -0.3598 -0.6288
   74MOL   H32148647   2.118   6.961   5.455 -1.5828 -0.0732 -0.1522
   74MOL   H32248648   2.137   7.118   5.380 -1.1350  1.1959  0.2355
   74MOL   H32348649   2.142   7.035   5.670 -0.1304 -2.0354 -0.6877
   74MOL   H32448650   2.146   7.194   5.636  1.5315 -0.5211  1.9551
   74MOL   H32548651   2.372   7.165   5.506 -0.9275 -0.0099 -0.2876
   74MOL   H32648652   2.390   7.012   5.574 -1.7638 -0.7969 -1.1804
   74MOL   H32748653   2.341   7.279   5.730  0.0724 -0.5995  0.5521
   74MOL   H32848654   2.485   7.192   5.714  0.2920  1.2626 -2.0242
   74MOL   H32948655   2.413   7.005   5.841  2.7328  2.1130 -0.3075
   74MOL   H33048656   2.392   7.155   5.935 -2.2340  1.2649 -0.2974
   74MOL   H33148657   2.249   7.073   5.862 -0.4811 -0.2664 -1.7310
   74MOL   C33248658   1.466   7.268   5.624  0.1002  0.0925 -0.3651
   74MOL   C33348659   1.330   7.197   5.599 -0.4774 -0.0546  0.7099
   74MOL   C33448660   1.257   7.280   5.488  0.7930 -0.1347  0.2649
   74MOL   C33548661   1.305   7.281   5.342  1.1344  1.1672 -0.2014
   74MOL   C33648662   1.223   7.372   5.252  0.1552  0.4979  0.3706
   74MOL   C33748663   1.238   7.514   5.304 -0.5159  0.1818  0.4360
   74MOL   C33848664   1.213   7.612   5.182  0.4374 -0.4997  0.1494
   74MOL   C33948665   1.243   0.055   5.225 -0.1586 -0.4327  0.4398
   74MOL   C34048666   1.120   0.113   5.305 -0.3819 -0.2982 -0.1561
   74MOL   C34148667   1.152   0.245   5.378  0.5899  0.9527 -0.0247
   74MOL   C34248668   1.266   0.227   5.479  0.5278  0.0458  0.0062
   74MOL   H34348669   1.451   7.370   5.658 -0.0947 -0.5652  1.5692
   74MOL   H34448670   1.513   7.276   5.526  0.4810 -1.0664 -0.2846
   74MOL   H34548671   1.358   7.100   5.558  0.9764  1.2651 -1.5633
   74MOL   H34648672   1.237   7.378   5.532  2.7918 -0.5368  2.1758
   74MOL   H34748673   1.161   7.231   5.472  1.3472 -0.4981 -2.1876
   74MOL   H34848674   1.411   7.304   5.343  0.9440  2.0423  0.5904
   74MOL   H34948675   1.292   7.180   5.301  0.5001  1.0785  0.2045
   74MOL   H35048676   1.267   7.359   5.153  0.5023 -1.7338  0.7949
   74MOL   H35148677   1.123   7.329   5.240  0.4948 -0.4829  1.0265
   74MOL   H35248678   1.335   7.521   5.353 -0.1927 -1.6978  0.1328
   74MOL   H35348679   1.167   7.527   5.385 -1.2767 -2.9074  0.3251
   74MOL   H35448680   1.117   7.601   5.132  0.0208 -0.7129  0.9846
   74MOL   H35548681   1.285   7.596   5.102  1.1355  2.1902  0.1924
   74MOL   H35648682   1.335   0.062   5.283 -0.6844 -0.8273  1.3240
   74MOL   H35748683   1.271   0.113   5.137  0.8089 -1.9200 -0.2538
   74MOL   H35848684   1.095   0.048   5.389  1.5765  0.2535  0.8843
   74MOL   H35948685   1.037   0.132   5.237  0.5510  1.3810 -0.8373
   74MOL   H36048686   1.065   0.282   5.431 -1.4524 -0.2754 -2.4001
   74MOL   H36148687   1.167   0.330   5.312  2.3971  2.9678  2.8534
   74MOL   H36248688   1.365   0.233   5.435  0.7200  0.1873  0.4570
   74MOL   H36348689   1.239   0.313   5.540 -3.1402  0.6940 -2.3279
   74MOL   H36448690   1.255   0.134   5.534 -1.7754  0.3455  0.1160
   74MOL   C36548691   1.246   7.168   5.719  0.3192  0.0511 -0.2497
   74MOL   C36648692   1.262   7.029   5.794 -0.0010 -0.0927 -0.2008
   74MOL   C36748693   1.160   7.017   5.913 -0.2845 -0.1454 -0.0299
   74MOL   C36848694   1.172   7.132   6.012  0.0953 -0.8472  0.5975
   74MOL   C36948695   1.080   7.114   6.133 -0.2437 -0.3272 -0.0085
   74MOL   C37048696   1.085   7.232   6.235  0.3173  0.5759 -0.5137
   74MOL   C37148697   0.976   7.216   6.341 -0.0901 -0.2819  0.3932
   74MOL   C37248698   0.969   7.331   6.441  0.7368 -0.0405 -0.2433
   74MOL   C37348699   1.091   7.326   6.529  0.8843  0.4749 -0.0614
   74MOL   C37448700   1.088   7.424   6.646 -0.2516  0.9182  0.0692
   74MOL   C37548701   1.178   7.381   6.758  0.2055  0.0251  0.2858
   74MOL   H37648702   1.264   7.251   5.786 -0.0354  0.4441 -0.6343
   74MOL   H37748703   1.141   7.174   5.689  0.1267  0.0222  0.4290
   74MOL   H37848704   1.366   7.016   5.826 -0.7168  0.5587  2.4563
   74MOL   H37948705   1.172   6.925   5.971 -0.4155  0.6799  1.3154
   74MOL   H38048706   1.056   7.023   5.879 -0.3205  2.5034  0.4345
   74MOL   H38148707   1.152   7.223   5.954  3.6833  0.0287  0.6302
   74MOL   H38248708   1.271   7.142   6.056 -0.3954  0.5616  1.4308
   74MOL   H38348709   1.102   7.020   6.183  0.2566  0.0542  0.4992
   74MOL   H38448710   0.978   7.125   6.095  0.2976  1.8241 -0.9076
   74MOL   H38548711   1.076   7.329   6.186  0.0189 -0.1841 -1.9912
   74MOL   H38648712   1.185   7.227   6.279  0.0941  2.8816  0.3230
   74MOL   H38748713   0.883   7.205   6.285  1.1082  0.9678 -1.8822
   74MOL   H38848714   0.988   7.123   6.398 -2.0984 -0.3618  0.7332
   74MOL   H38948715   0.881   7.325   6.504 -0.4841 -0.4877 -1.9589
   74MOL   H39048716   0.966   7.417   6.375  1.3199 -1.6661 -2.4382
   74MOL   H39148717   1.100   7.223   6.562 -1.7802  0.7363  1.5456
   74MOL   H39248718   1.174   7.357   6.465  1.4327 -0.1050  0.3695
   74MOL   H39348719   1.124   7.519   6.606 -2.9251  1.4036 -1.3751
   74MOL   H39448720   0.984   7.440   6.676 -0.1178  2.1473 -0.0856
   74MOL   H39548721   1.116   7.338   6.836  2.1295 -1.4200  1.0472
   74MOL   H39648722   1.234   7.462   6.806 -2.7698  3.2304 -1.3750
   74MOL   H39748723   1.245   7.299   6.734 -1.7053 -1.9721  1.5397
   74MOL   C39848724   1.236   6.914   5.695  0.4980 -0.1488 -0.1067
   74MOL   C39948725   1.289   6.775   5.728  0.6690  0.6297  0.6857
   74MOL   C40048726   1.421   6.749   5.659  0.0517 -0.0739  0.8368
   74MOL   C40148727   1.510   6.643   5.726 -0.1231  0.2477 -0.3481
   74MOL   C40248728   1.630   6.598   5.639 -0.2321 -0.6072  0.1304
   74MOL   C40348729   1.683   6.458   5.672  0.2209 -0.0004  1.0897
   74MOL   C40448730   1.796   6.418   5.574 -0.5720 -0.4582 -0.4003
   74MOL   C40548731   1.870   6.296   5.628 -0.2740  0.1118  0.2484
   74MOL   C40648732   1.947   6.226   5.519 -0.4790 -0.1805  0.0443
   74MOL   C40748733   2.007   6.091   5.556 -0.0195  0.1792  0.5872
   74MOL   C40848734   2.088   6.036   5.438 -0.6716  0.5240 -0.2176
   74MOL   H40948735   1.262   6.938   5.592 -0.9219  0.2091 -0.3874
   74MOL   H41048736   1.129   6.904   5.680  0.4279 -0.1683  0.4129
   74MOL   H41148737   1.314   6.779   5.834 -1.4373  2.0134  1.1435
   74MOL   H41248738   1.473   6.841   5.634  0.2311 -0.9297 -2.1855
   74MOL   H41348739   1.391   6.717   5.559 -0.3019  2.5588  0.0804
   74MOL   H41448740   1.545   6.696   5.815 -1.2956  0.5424 -0.0617
   74MOL   H41548741   1.442   6.562   5.751 -0.5958  0.4363 -1.0149
   74MOL   H41648742   1.596   6.594   5.535  1.1031 -3.0523 -0.2455
   74MOL   H41748743   1.707   6.675   5.636 -0.5497 -0.3129 -0.6974
   74MOL   H41848744   1.598   6.392   5.656 -0.5597  0.2552  3.9245
   74MOL   H41948745   1.714   6.456   5.776 -0.4933  0.6640  1.3223
   74MOL   H42048746   1.743   6.387   5.484 -0.8317 -0.3575 -0.2819
   74MOL   H42148747   1.866   6.497   5.549  0.5989 -1.0996  0.7347
   74MOL   H42248748   1.798   6.227   5.672 -1.1009  0.8770  0.1292
   74MOL   H42348749   1.932   6.320   5.715 -1.6724  0.6411  1.1171
   74MOL   H42448750   1.887   6.211   5.429  0.5697  1.6398 -0.9974
   74MOL   H42548751   2.022   6.301   5.494 -0.6253 -0.1657 -0.3557
   74MOL   H42648752   1.924   6.026   5.583 -0.1612  0.6195  1.2022
   74MOL   H42748753   2.072   6.105   5.642  0.9980 -0.9915  0.0240
   74MOL   H42848754   2.099   5.929   5.452 -1.5413  0.3157 -1.0752
   74MOL   H42948755   2.188   6.080   5.432  0.2318 -1.0965  2.3012
   74MOL   H43048756   2.040   6.044   5.340  0.0275 -1.3163 -0.7290
   74MOL   C43148757   1.190   6.657   5.703 -0.2402 -0.5359  0.0719
   74MOL   C43248758   1.074   6.638   5.813  0.4272  0.8369 -0.5434
   74MOL   C43348759   1.125   6.595   5.956  0.2430 -0.0281 -0.2188
   74MOL   C43448760   1.151   6.441   5.976  0.1272  0.8643  0.1426
   74MOL   C43548761   1.208   6.416   6.119 -0.1528 -0.0475 -0.3098
   74MOL   C43648762   1.228   6.265   6.133  0.2876  0.8766  0.5921
   74MOL   C43748763   1.287   6.229   6.270 -0.4458 -0.3177  0.3328
   74MOL   C43848764   1.452   6.221   6.280  0.9815 -0.3812  0.6847
   74MOL   C43948765   1.503   6.173   6.413 -0.1950  0.2309  0.4137
   74MOL   C44048766   1.623   6.243   6.461 -0.0803 -0.0116 -0.3982
   74MOL   C44148767   1.694   6.182   6.578 -0.4693 -0.0112 -0.2861
   74MOL   H44248768   1.248   6.565   5.706 -2.6884 -2.1201 -0.2807
   74MOL   H44348769   1.137   6.664   5.608  0.2085 -0.4994 -0.1773
   74MOL   H44448770   1.036   6.740   5.821  1.2799  1.4375 -3.5417
   74MOL   H44548771   1.221   6.642   5.978 -0.1478 -0.4811  2.6209
   74MOL   H44648772   1.058   6.640   6.029 -0.9279  0.5439 -1.6196
   74MOL   H44748773   1.220   6.411   5.898 -0.2448  2.5713 -0.8671
   74MOL   H44848774   1.052   6.398   5.961  0.3663  1.1174 -2.3635
   74MOL   H44948775   1.141   6.450   6.197  0.4689 -0.7909  0.5612
   74MOL   H45048776   1.304   6.462   6.144 -0.4292 -0.7087  2.0976
   74MOL   H45148777   1.292   6.227   6.054  0.0062 -1.6357  1.5347
   74MOL   H45248778   1.133   6.215   6.121  1.2413 -0.8605  0.1637
   74MOL   H45348779   1.251   6.136   6.313  3.0960 -1.7281  0.5006
   74MOL   H45448780   1.256   6.296   6.349 -2.3153  0.3262 -0.9260
   74MOL   H45548781   1.483   6.150   6.203 -1.1281  0.1378 -0.6780
   74MOL   H45648782   1.492   6.319   6.256  0.4239  0.4288  3.0039
   74MOL   H45748783   1.522   6.065   6.415 -1.7048 -0.0477  0.5641
   74MOL   H45848784   1.427   6.173   6.491  0.1843 -3.1326  0.8622
   74MOL   H45948785   1.599   6.345   6.491 -0.0853 -0.0280 -0.3484
   74MOL   H46048786   1.694   6.251   6.379  0.2259  1.1332 -0.0357
   74MOL   H46148787   1.775   6.252   6.598 -1.4566  0.7729  1.1122
   74MOL   H46248788   1.633   6.185   6.669 -2.2057  0.6849 -1.4283
   74MOL   H46348789   1.724   6.078   6.573 -3.7422 -0.9417 -1.9716
   74MOL   C46448790   0.948   6.554   5.759  0.2196 -0.0505 -1.1838
   74MOL   C46548791   0.825   6.537   5.850  0.4019 -0.7050 -0.0559
   74MOL   C46648792   0.747   6.675   5.852  0.0825  0.5623  0.3097
   74MOL   C46748793   0.783   6.763   5.967 -0.0466 -0.0226  0.0274
   74MOL   C46848794   0.777   6.706   6.109  0.1549 -0.1002 -0.1508
   74MOL   C46948795   0.801   6.811   6.220 -0.3147  0.2204 -0.3944
   74MOL   C47048796   0.836   6.749   6.351 -0.8077 -0.0013 -0.1334
   74MOL   C47148797   0.732   6.656   6.415 -0.1400 -0.1284  0.8757
   74MOL   C47248798   0.778   6.621   6.558 -0.5416  0.5012 -0.3695
   74MOL   C47348799   0.678   6.522   6.622 -0.4909 -0.5417  0.3568
   74MOL   C47448800   0.696   6.483   6.772  0.1582  0.5893  0.2472
   74MOL   H47548801   0.985   6.452   5.749  1.1529  0.1282  0.2713
   74MOL   H47648802   0.921   6.592   5.661 -0.7078  1.5448 -0.3298
   74MOL   H47748803   0.862   6.496   5.944 -0.0356 -0.6719  0.1323
   74MOL   H47848804   0.642   6.655   5.874 -0.6216  1.5458 -1.9585
   74MOL   H47948805   0.764   6.730   5.760 -0.7922  2.0469  1.0165
   74MOL   H48048806   0.886   6.797   5.959 -0.5038  0.9785 -1.8389
   74MOL   H48148807   0.720   6.851   5.953 -0.4792  0.1073  2.4503
   74MOL   H48248808   0.852   6.631   6.131 -0.6034 -0.7590  0.2061
   74MOL   H48348809   0.684   6.649   6.121 -0.5782  1.1235  0.0907
   74MOL   H48448810   0.886   6.871   6.188  0.3803 -0.8158 -0.4943
   74MOL   H48548811   0.716   6.875   6.245 -0.5915  0.2465 -1.3533
   74MOL   H48648812   0.925   6.687   6.344 -0.8069  0.1161 -1.1766
   74MOL   H48748813   0.857   6.837   6.412 -1.2528 -0.4464  0.6759
   74MOL   H48848814   0.634   6.703   6.404 -0.2453 -0.5577 -0.1170
   74MOL   H48948815   0.736   6.562   6.360  1.7460  0.6129 -0.2919
   74MOL   H49048816   0.878   6.577   6.564 -1.3924 -1.3135  1.0244
   74MOL   H49148817   0.786   6.709   6.621 -1.2479 -0.6356  1.3400
   74MOL   H49248818   0.580   6.566   6.602 -0.5378 -1.0904 -0.6555
   74MOL   H49348819   0.671   6.431   6.561  0.0010 -0.9761  0.9455
   74MOL   H49448820   0.724   6.569   6.834  1.9320 -0.4722  0.9378
   74MOL   H49548821   0.781   6.415   6.768 -1.2686 -1.1527 -1.3672
   74MOL   H49648822   0.605   6.441   6.812 -0.6131  0.8151 -1.2236
   74MOL   C49748823   0.726   6.436   5.796 -0.3570 -0.4228  0.1421
   74MOL   C49848824   0.645   6.367   5.904  0.3967 -0.0932 -0.5917
   74MOL   C49948825   0.711   6.241   5.968 -0.1785 -0.6194 -0.3448
   74MOL   C50048826   0.734   6.120   5.885  0.1246 -0.4413 -0.1846
   74MOL   C50148827   0.760   6.000   5.975 -0.2270 -0.7176 -0.1409
   74MOL   C50248828   0.890   6.018   6.053 -0.5622  0.3492 -0.7329
   74MOL   C50348829   0.925   5.900   6.136  0.0878  0.1358  0.1203
   74MOL   C50448830   1.042   5.922   6.231  0.0050 -0.1239 -0.3157
   74MOL   C50548831   1.061   5.800   6.329 -0.1071  0.4533 -0.6791
   74MOL   C50648832   1.176   5.813   6.430 -0.1093 -0.5172  0.0026
   74MOL   C50748833   1.200   5.685   6.511  1.0758  0.1267 -0.1004
   74MOL   H50848834   0.672   6.491   5.719  0.7325 -1.1383 -1.1501
   74MOL   H50948835   0.788   6.366   5.741 -1.9468 -0.5719 -1.5265
   74MOL   H51048836   0.628   6.437   5.986 -1.2520 -0.4446 -0.6167
   74MOL   H51148837   0.642   6.231   6.051 -0.6933 -0.8086 -0.7882
   74MOL   H51248838   0.808   6.275   6.005 -1.1473 -0.7665  2.4456
   74MOL   H51348839   0.812   6.126   5.809  0.6991 -1.0320  0.3574
   74MOL   H51448840   0.641   6.095   5.834  0.1083  1.7281 -1.3005
   74MOL   H51548841   0.672   5.994   6.039 -0.7619 -1.1297 -0.9044
   74MOL   H51648842   0.759   5.906   5.919  0.3156 -0.1237 -1.1602
   74MOL   H51748843   0.975   6.028   5.984 -1.1379  1.8605 -1.2373
   74MOL   H51848844   0.890   6.111   6.110  0.3722 -0.3623  0.4373
   74MOL   H51948845   0.837   5.891   6.200  0.9125  1.3750  1.4822
   74MOL   H52048846   0.939   5.807   6.082 -1.3883 -0.3556  0.5472
   74MOL   H52148847   1.036   6.014   6.288  0.6600  0.0405 -0.5099
   74MOL   H52248848   1.136   5.926   6.177  0.6753  3.3573  1.0068
   74MOL   H52348849   1.092   5.720   6.262 -0.1786  0.2838 -0.5116
   74MOL   H52448850   0.967   5.768   6.375  0.0635  0.0559 -0.5973
   74MOL   H52548851   1.167   5.902   6.492  1.3459 -0.0313 -0.4547
   74MOL   H52648852   1.272   5.849   6.393  0.0101  1.0653  1.7839
   74MOL   H52748853   1.291   5.680   6.570  0.8908 -1.3297  0.0841
   74MOL   H52848854   1.208   5.596   6.448  0.4736  0.1813 -0.2605
   74MOL   H52948855   1.116   5.675   6.579  1.3030 -0.3682  0.1083
   74MOL   C53048856   0.508   6.338   5.846 -0.5674  0.5455  0.2202
   74MOL   C53148857   0.401   6.335   5.955  0.1928  0.3637 -0.0042
   74MOL   C53248858   0.283   6.237   5.921 -0.5983  0.1515  0.2890
   74MOL   C53348859   0.320   6.084   5.947 -0.4619  0.5142  0.1846
   74MOL   C53448860   0.216   5.993   5.888  0.5444 -0.7457 -0.4610
   74MOL   C53548861   0.260   5.919   5.759 -0.5341 -0.4903 -0.0028
   74MOL   C53648862   0.153   5.826   5.693 -0.7673  1.2627  0.4829
   74MOL   C53748863   0.051   5.911   5.611 -0.1421 -0.1622 -0.0471
   74MOL   C53848864   7.643   5.828   5.553 -0.4930 -0.4690  0.8875
   74MOL   C53948865   7.525   5.912   5.500  0.1742  0.0987 -0.3756
   74MOL   C54048866   7.421   5.832   5.426  1.0077 -0.3438 -0.2342
   74MOL   H54148867   0.471   6.407   5.770  0.8093  1.6181  0.5083
   74MOL   H54248868   0.515   6.243   5.793 -1.2865  1.1344 -0.9372
   74MOL   H54348869   0.437   6.305   6.053 -1.3270 -0.0474  0.4444
   74MOL   H54448870   0.255   6.256   5.817 -1.0301 -0.1035  0.3604
   74MOL   H54548871   0.197   6.245   5.987 -0.6471  2.0900  0.0219
   74MOL   H54648872   0.313   6.063   6.053 -0.3434  0.0301  0.0945
   74MOL   H54748873   0.419   6.045   5.925 -0.9231 -0.8233  0.4142
   74MOL   H54848874   0.117   6.037   5.876  0.8046  0.2882  0.9504
   74MOL   H54948875   0.192   5.921   5.966 -0.6564  0.7320  0.5674
   74MOL   H55048876   0.354   5.867   5.776 -0.6791 -0.5866  0.5267
   74MOL   H55148877   0.297   5.996   5.691 -1.7436 -2.1045 -2.5976
   74MOL   H55248878   0.099   5.781   5.776  1.2665 -1.2902  0.5026
   74MOL   H55348879   0.199   5.749   5.630 -0.8027  1.4606  0.2164
   74MOL   H55448880   0.108   5.960   5.532  0.7711 -1.8657 -0.4687
   74MOL   H55548881   0.012   5.981   5.685 -3.0116  0.1986 -1.8477
   74MOL   H55648882   7.600   5.762   5.629 -1.3177 -3.1954 -1.8565
   74MOL   H55748883   7.688   5.772   5.471 -1.2955 -1.3077  1.0031
   74MOL   H55848884   7.563   5.993   5.437  0.6908  0.5374  0.4914
   74MOL   H55948885   7.476   5.948   5.590 -0.2679 -0.4733 -0.3901
   74MOL   H56048886   7.388   5.743   5.480 -0.5853 -0.4972 -1.3851
   74MOL   H56148887   7.342   5.897   5.387  0.0266 -1.0291  0.5745
   74MOL   H56248888   7.470   5.801   5.334  0.8680  1.2746 -0.8701
   74MOL   C56348889   0.342   6.481   5.964  0.9729  0.2800 -0.0190
   74MOL   C56448890   0.264   6.509   6.096  0.5839 -0.1876 -0.3788
   74MOL   C56548891   0.156   6.620   6.071 -0.0218 -1.0007  0.2688
   74MOL   C56648892   0.207   6.765   6.056 -0.1235 -0.2333  0.9589
   74MOL   C56748893   0.095   6.865   6.069 -0.4204 -0.5196 -0.2859
   74MOL   C56848894   0.136   7.010   6.064 -0.7920  0.5395  0.4740
   74MOL   C56948895   0.185   7.060   6.205  0.5057 -0.1133 -0.7182
   74MOL   C57048896   0.212   7.214   6.211 -0.2297  0.7801  0.0519
   74MOL   C57148897   0.240   7.261   6.363 -0.4350  0.4396  0.3898
   74MOL   C57248898   0.232   7.412   6.387 -0.1140  0.8618 -0.0556
   74MOL   C57348899   0.251   7.449   6.535  0.1272  0.6803  0.0435
   74MOL   H57448900   0.280   6.492   5.875  0.2428 -2.2697  0.1528
   74MOL   H57548901   0.425   6.552   5.957  2.0305 -1.1297 -2.5490
   74MOL   H57648902   0.202   6.420   6.111 -0.1633  0.3949  0.0052
   74MOL   H57748903   0.079   6.618   6.149 -0.5480 -2.0118 -0.2577
   74MOL   H57848904   0.093   6.605   5.984 -0.6542  2.6100  0.0572
   74MOL   H57948905   0.257   6.773   5.959 -1.3742  0.6778  0.3781
   74MOL   H58048906   0.285   6.782   6.131 -0.9006  1.0158  1.4833
   74MOL   H58148907   0.051   6.845   6.167  0.8160  1.3832  0.6768
   74MOL   H58248908   0.008   6.850   6.004 -1.6391  3.5780  0.2573
   74MOL   H58348909   0.217   7.025   5.992 -1.9620  1.7557 -0.6233
   74MOL   H58448910   0.052   7.072   6.031 -1.2346 -0.5964 -0.5493
   74MOL   H58548911   0.114   7.037   6.285 -1.0083  0.3979 -1.8889
   74MOL   H58648912   0.271   6.997   6.226  0.2882  0.1966  1.1478
   74MOL   H58748913   0.122   7.264   6.174  0.5891  1.2135 -1.4008
   74MOL   H58848914   0.294   7.239   6.143 -0.2694 -1.2511 -0.7942
   74MOL   H58948915   0.340   7.227   6.391  0.3563  2.9548  0.6816
   74MOL   H59048916   0.177   7.206   6.432  0.4363  1.5401  2.1079
   74MOL   H59148917   0.128   7.442   6.377 -1.0016 -1.6556  1.1355
   74MOL   H59248918   0.294   7.476   6.324 -0.0501  0.3695 -0.5041
   74MOL   H59348919   0.177   7.394   6.595  0.4916 -0.5234 -0.5950
   74MOL   H59448920   0.352   7.429   6.571 -0.0923  1.5989  1.2097
   74MOL   H59548921   0.238   7.554   6.561 -2.0524 -0.0088  1.9352
   74MOL   C59648922   0.359   6.535   6.217 -0.5148  0.8505 -0.5409
   74MOL   C59748923   0.281   6.512   6.348 -0.2551 -0.0064 -0.4809
   74MOL   C59848924   0.243   6.645   6.416  0.3987  0.4656 -0.3476
   74MOL   C59948925   0.358   6.701   6.502 -0.4619 -0.2437 -0.2703
   74MOL   C60048926   0.351   6.860   6.518  0.2949  0.5905  0.5912
   74MOL   C60148927   0.475   6.924   6.595  0.1562  0.1780  0.3443
   74MOL   C60248928   0.553   7.040   6.526 -0.9875 -0.6440 -0.6127
   74MOL   C60348929   0.644   7.115   6.629  0.0819 -0.0884  0.6101
   74MOL   C60448930   0.571   7.212   6.716 -0.7583 -0.2987 -0.0520
   74MOL   C60548931   0.665   7.334   6.755  0.2704  0.0753 -0.0688
   74MOL   C60648932   0.778   7.294   6.847  0.7870 -0.5249 -0.7930
   74MOL   H60748933   0.446   6.470   6.209 -2.6392 -2.0614 -1.0795
   74MOL   H60848934   0.408   6.632   6.215  0.5550  0.3391  0.5977
   74MOL   H60948935   0.180   6.474   6.331 -1.3091  2.2511  0.4311
   74MOL   H61048936   0.160   6.624   6.483  2.5182 -1.3620  1.7967
   74MOL   H61148937   0.214   6.717   6.339  1.9830  1.0031 -0.4568
   74MOL   H61248938   0.451   6.671   6.454  0.0487 -1.5697  1.5337
   74MOL   H61348939   0.355   6.660   6.602 -0.7309 -0.5976 -0.4244
   74MOL   H61448940   0.261   6.887   6.574 -0.6637  1.2362 -1.2365
   74MOL   H61548941   0.350   6.888   6.413  1.6849  0.4153  0.5156
   74MOL   H61648942   0.460   6.954   6.699 -0.7940 -2.9962  1.1896
   74MOL   H61748943   0.544   6.840   6.609 -2.0630 -1.3590  2.5900
   74MOL   H61848944   0.493   7.126   6.496  0.7838  1.6077  2.0833
   74MOL   H61948945   0.611   7.008   6.439 -2.0461 -1.8956 -0.8784
   74MOL   H62048946   0.726   7.173   6.585 -0.8853 -0.5619 -1.8900
   74MOL   H62148947   0.701   7.046   6.690  1.9473 -0.6708 -1.6966
   74MOL   H62248948   0.493   7.258   6.657 -1.9410 -2.2290 -0.0248
   74MOL   H62348949   0.524   7.170   6.805  2.8134 -3.1263  0.6256
   74MOL   H62448950   0.606   7.414   6.800 -0.4404 -1.6345  2.1746
   74MOL   H62548951   0.693   7.380   6.660  1.7419 -0.0152  0.3146
   74MOL   H62648952   0.754   7.223   6.926 -0.5463  0.7377 -0.0313
   74MOL   H62748953   0.870   7.253   6.805  2.8743  0.9112  2.1154
   74MOL   H62848954   0.819   7.384   6.893  0.6027 -1.1951  0.7078
   74MOL   C62948955   0.349   6.410   6.444  0.8626 -0.4625  0.4298
   74MOL   C63048956   0.356   6.265   6.394 -0.0733  0.9753 -0.2564
   74MOL   C63148957   0.412   6.165   6.495 -0.0965 -0.8339  0.3356
   74MOL   C63248958   0.424   6.018   6.450 -0.0830 -0.2109  0.1404
   74MOL   C63348959   0.518   5.930   6.532 -0.1447 -0.4511  0.6443
   74MOL   C63448960   0.554   5.815   6.437  1.0615  0.4326 -0.2480
   74MOL   C63548961   0.643   5.709   6.503 -0.5960  0.3946  0.3840
   74MOL   C63648962   0.675   5.603   6.397 -0.4396  0.4516  0.5639
   74MOL   C63748963   0.743   5.492   6.467  0.5041 -0.2446 -0.4644
   74MOL   C63848964   0.641   5.388   6.532 -0.3148  0.4256 -0.1183
   74MOL   C63948965   0.686   5.248   6.538 -0.0118  0.5707 -0.1402
   74MOL   H64048966   0.452   6.437   6.471  0.4596  2.0334 -0.4699
   74MOL   H64148967   0.300   6.416   6.541 -1.4700  2.1544 -0.8568
   74MOL   H64248968   0.255   6.238   6.362 -0.7840 -0.1188  2.7101
   74MOL   H64348969   0.515   6.191   6.520 -0.1515 -0.8448  0.5703
   74MOL   H64448970   0.363   6.185   6.590  0.5516  2.1046  0.0964
   74MOL   H64548971   0.456   6.016   6.346 -0.2062 -0.4588  0.1088
   74MOL   H64648972   0.323   5.980   6.444  0.1485 -1.1583  1.9510
   74MOL   H64748973   0.475   5.893   6.625 -1.6220 -1.7189 -0.5111
   74MOL   H64848974   0.608   5.983   6.561 -1.7860  1.4186  2.5256
   74MOL   H64948975   0.620   5.868   6.368  0.2738  1.2682 -0.3784
   74MOL   H65048976   0.468   5.771   6.387  0.0343 -0.7554  2.4985
   74MOL   H65148977   0.578   5.658   6.575 -0.1472 -0.1021  0.4395
   74MOL   H65248978   0.730   5.745   6.557 -0.3712 -1.2016  1.1350
   74MOL   H65348979   0.742   5.642   6.321 -0.5836  0.3613  0.3890
   74MOL   H65448980   0.588   5.563   6.345 -0.6023  0.2203  1.0119
   74MOL   H65548981   0.822   5.522   6.536 -0.8953  2.4268  0.0440
   74MOL   H65648982   0.805   5.429   6.402 -1.9413 -2.7911 -0.4229
   74MOL   H65748983   0.555   5.391   6.465 -1.2456  2.9615  1.1054
   74MOL   H65848984   0.601   5.423   6.627  1.8868  0.7988  0.6976
   74MOL   H65948985   0.604   5.189   6.580  0.4513 -0.5451 -0.7761
   74MOL   H66048986   0.764   5.236   6.612  2.0605  1.8177 -2.0682
   74MOL   H66148987   0.723   5.199   6.448  0.5858  1.6136 -0.4729
   74MOL   H66248988   0.414   6.264   6.302  0.6790  0.7025  0.2227
   75MOL     C148989   1.594   2.677   6.740  0.6342 -0.2072 -0.8656
   75MOL     C248990   1.571   2.629   6.885 -0.3286 -0.0700  0.0950
   75MOL     C348991   1.425   2.647   6.939  0.2229  0.6688 -0.1236
   75MOL     C448992   1.313   2.574   6.872  0.5684 -0.0016  0.1829
   75MOL     C548993   1.186   2.582   6.953  0.1925 -0.5257  0.0152
   75MOL     C648994   1.061   2.590   6.865  0.2980 -0.6098 -0.0221
   75MOL     C748995   0.939   2.625   6.948  0.0796 -0.0047  0.2873
   75MOL     C848996   0.819   2.672   6.863  0.1403  0.0651 -0.0816
   75MOL     C948997   0.689   2.659   6.951  0.0027  0.1086 -0.0671
   75MOL    C1048998   0.563   2.677   6.861 -0.7899  0.5891 -0.0576
   75MOL    C1148999   0.449   2.608   6.943  0.5421 -0.1099  0.3346
   75MOL    H1249000   1.581   2.785   6.743 -1.5952 -0.4758  0.4899
   75MOL    H1349001   1.516   2.638   6.675  0.2640 -0.9746  0.0351
   75MOL    H1449002   1.631   2.691   6.953  0.2824 -2.2635  1.6018
   75MOL    H1549003   1.402   2.752   6.920  0.8269  0.3238 -2.9534
   75MOL    H1649004   1.433   2.621   7.045 -0.6106  1.1176  0.0473
   75MOL    H1749005   1.347   2.473   6.850 -1.1400 -0.2679 -1.2904
   75MOL    H1849006   1.302   2.621   6.775  0.6498  0.8077  0.5594
   75MOL    H1949007   1.191   2.498   7.023  0.8292 -2.6522 -2.4928
   75MOL    H2049008   1.189   2.678   7.005  0.8012 -0.3181 -0.3945
   75MOL    H2149009   1.047   2.504   6.800  2.0051 -0.2357 -0.9129
   75MOL    H2249010   1.079   2.669   6.792 -2.3478  0.3566  0.3198
   75MOL    H2349011   0.915   2.532   7.000  0.0046  0.5923  1.3336
   75MOL    H2449012   0.969   2.702   7.019 -0.2741  0.1160  0.3039
   75MOL    H2549013   0.820   2.605   6.776  0.0027 -1.6426  1.2150
   75MOL    H2649014   0.833   2.775   6.829  0.3766  0.0083 -0.1573
   75MOL    H2749015   0.689   2.737   7.028  0.2474  1.2370 -1.1962
   75MOL    H2849016   0.689   2.561   6.998 -1.3989  0.6730  1.1275
   75MOL    H2949017   0.578   2.621   6.769  1.7706  0.7658  0.2141
   75MOL    H3049018   0.540   2.778   6.828 -0.1758  0.9966  0.7464
   75MOL    H3149019   0.416   2.644   7.041 -0.4868 -1.8753  0.6644
   75MOL    H3249020   0.360   2.613   6.880 -0.2383 -2.1970  1.2337
   75MOL    H3349021   0.469   2.502   6.954  0.1711 -0.5581 -2.7766
   75MOL    H3449022   1.693   2.643   6.708  1.6411  2.3086 -0.5515
   75MOL    C3549023   1.628   2.490   6.888  0.4639 -0.7993 -0.3504
   75MOL    C3649024   1.771   2.488   6.960  0.9272 -0.1952 -0.0368
   75MOL    C3749025   1.757   2.477   7.115  0.4474  0.0081  0.5601
   75MOL    C3849026   1.882   2.535   7.184 -0.4719  0.2539  0.5271
   75MOL    C3949027   1.878   2.523   7.342  0.1991  0.7589  0.1626
   75MOL    C4049028   2.000   2.582   7.413 -0.1690 -0.3470  0.3937
   75MOL    C4149029   1.981   2.587   7.564  0.2112 -0.0489  0.0316
   75MOL    C4249030   2.063   2.707   7.623 -0.0843  0.3892  0.6324
   75MOL    C4349031   2.028   2.736   0.070  0.4456  0.6694  0.1388
   75MOL    C4449032   1.884   2.770   0.099 -0.2149  0.3441 -0.4046
   75MOL    C4549033   1.869   2.811   0.253 -0.1401 -0.0518  0.5068
   75MOL    H4649034   1.631   2.461   6.783  1.9846  0.2004 -0.5829
   75MOL    H4749035   1.564   2.414   6.935  1.7643 -1.5620  0.2174
   75MOL    H4849036   1.807   2.591   6.951 -1.2836  0.6294  0.1552
   75MOL    H4949037   1.676   2.530   7.165  0.4257 -0.0104  0.5436
   75MOL    H5049038   1.716   2.381   7.144 -2.8161  1.5323  1.2582
   75MOL    H5149039   1.902   2.639   7.161  0.7405  0.1921  1.2553
   75MOL    H5249040   1.973   2.479   7.161  0.4367  2.0607 -0.4043
   75MOL    H5349041   1.873   2.416   7.362  1.0369  0.9205  1.2461
   75MOL    H5449042   1.782   2.556   7.381  0.7012 -1.0626  3.0681
   75MOL    H5549043   2.013   2.681   7.369 -0.1794 -0.6673 -0.3220
   75MOL    H5649044   2.087   2.520   7.390 -0.9620 -0.5556 -2.1713
   75MOL    H5749045   1.878   2.586   7.600  0.2787 -1.3106  0.2162
   75MOL    H5849046   2.037   2.505   7.609  0.7937  1.5087  2.1950
   75MOL    H5949047   2.041   2.800   7.570 -1.4128 -0.7080 -0.7869
   75MOL    H6049048   2.170   2.690   7.612 -0.7235 -4.2939  0.6861
   75MOL    H6149049   2.085   2.818   0.115  0.7001 -0.3007  1.6255
   75MOL    H6249050   2.043   2.652   0.137 -1.5248  1.7533  1.9880
   75MOL    H6349051   1.848   2.848   0.032 -0.3492 -0.3510 -1.1541
   75MOL    H6449052   1.826   2.681   0.074  1.1573 -0.7275  0.1459
   75MOL    H6549053   1.764   2.819   0.281 -0.0009 -0.2836  1.1001
   75MOL    H6649054   1.913   2.734   0.316 -2.2474 -0.8718  1.0117
   75MOL    H6749055   1.923   2.901   0.283 -0.0824 -0.2747  1.0690
   75MOL    C6849056   1.875   2.384   6.901  0.3023 -0.2999  0.2078
   75MOL    C6949057   1.959   2.447   6.790  0.9373  0.0202 -0.6112
   75MOL    C7049058   2.077   2.532   6.841 -0.4310  0.7115 -0.7853
   75MOL    C7149059   2.217   2.467   6.861  1.1449 -0.0325  0.1479
   75MOL    C7249060   2.315   2.557   6.932  0.2970 -0.1304  0.5063
   75MOL    C7349061   2.448   2.488   6.972  0.6520 -0.1393  0.2251
   75MOL    C7449062   2.533   2.562   7.087 -0.1434 -0.2063  0.2607
   75MOL    C7549063   2.680   2.502   7.106  0.1758  0.2223  0.3045
   75MOL    C7649064   2.756   2.571   7.223 -0.0665  0.0338 -0.1207
   75MOL    C7749065   2.871   2.478   7.264 -0.5494 -0.0845 -0.5118
   75MOL    C7849066   2.823   2.384   7.373 -0.2938  0.5364  0.0435
   75MOL    H7949067   1.814   2.300   6.867  0.0525  0.8318 -2.2683
   75MOL    H8049068   1.942   2.355   6.982 -0.4264 -1.2169  0.4877
   75MOL    H8149069   1.892   2.514   6.736 -0.6134  0.0502  1.2884
   75MOL    H8249070   2.036   2.573   6.933  0.4919 -2.2974  1.0298
   75MOL    H8349071   2.094   2.621   6.780 -2.6757  2.1172  0.5524
   75MOL    H8449072   2.196   2.370   6.907 -1.1480  1.3485  2.1812
   75MOL    H8549073   2.254   2.452   6.760 -2.2195 -2.5300 -0.8085
   75MOL    H8649074   2.255   2.589   7.017  0.6197 -0.0630  0.7074
   75MOL    H8749075   2.339   2.640   6.867 -0.7746 -0.2175 -0.0156
   75MOL    H8849076   2.434   2.389   7.016  1.0759 -0.4920 -0.4254
   75MOL    H8949077   2.518   2.468   6.891 -0.6204  2.3755 -1.5943
   75MOL    H9049078   2.474   2.565   7.178  0.0063 -0.5668  0.3723
   75MOL    H9149079   2.542   2.668   7.063  0.8152 -0.3524 -0.0529
   75MOL    H9249080   2.666   2.396   7.125 -0.9161  0.2137 -0.5086
   75MOL    H9349081   2.737   2.499   7.013 -1.3109 -2.1062 -0.5619
   75MOL    H9449082   2.810   2.663   7.199 -0.9521  1.3967  2.9116
   75MOL    H9549083   2.686   2.615   7.294  1.6077  2.3144  0.1781
   75MOL    H9649084   2.912   2.435   7.173  0.4014 -1.1287  0.3917
   75MOL    H9749085   2.948   2.537   7.314 -0.8873  0.8584 -1.0982
   75MOL    H9849086   2.817   2.438   7.467 -1.2426 -1.1731  0.9908
   75MOL    H9949087   2.891   2.299   7.383  1.8621  1.7649 -3.0976
   75MOL   H10049088   2.726   2.335   7.359 -1.7102  3.3499 -0.3390
   75MOL   C10149089   2.003   2.334   6.687  0.0342  0.5279  0.2669
   75MOL   C10249090   2.068   2.377   6.546 -0.2780  1.3196 -0.1695
   75MOL   C10349091   1.952   2.412   6.450 -0.6922  0.4527 -0.2822
   75MOL   C10449092   1.898   2.556   6.470  0.3356 -0.3233  0.1216
   75MOL   C10549093   1.853   2.609   6.326  0.5691  0.0472  0.7519
   75MOL   C10649094   1.783   2.743   6.340  0.4113  0.0731 -0.1625
   75MOL   C10749095   1.731   2.791   6.199  0.4773  0.2525 -1.0230
   75MOL   C10849096   1.704   2.936   6.195  0.2408  0.0527 -0.1820
   75MOL   C10949097   1.826   3.025   6.172 -0.0239  0.1177 -0.1687
   75MOL   C11049098   1.786   3.169   6.153 -0.4646 -0.1349  0.7062
   75MOL   C11149099   1.911   3.262   6.156 -0.2037 -0.3548 -0.1248
   75MOL   H11249100   2.071   2.265   6.737 -0.3362 -0.7049 -0.8790
   75MOL   H11349101   1.920   2.268   6.659  0.2133  0.9752 -1.3492
   75MOL   H11449102   2.130   2.464   6.566  1.4889  0.1013 -0.2533
   75MOL   H11549103   2.001   2.417   6.353  0.8244 -0.7845  0.3811
   75MOL   H11649104   1.884   2.327   6.440  0.6513 -0.6138 -0.5070
   75MOL   H11749105   1.805   2.542   6.526 -1.2570 -0.5952 -2.4867
   75MOL   H11849106   1.958   2.625   6.528  0.0803  1.2943 -1.4801
   75MOL   H11949107   1.944   2.614   6.266  0.3465 -1.4181  0.2739
   75MOL   H12049108   1.786   2.533   6.285  2.2627  0.3966 -2.7753
   75MOL   H12149109   1.700   2.742   6.410 -1.3297 -2.0778 -2.1529
   75MOL   H12249110   1.846   2.824   6.376 -1.6911  0.9541  1.6443
   75MOL   H12349111   1.642   2.733   6.176  1.8376 -2.0120 -0.7132
   75MOL   H12449112   1.805   2.776   6.120  1.6741 -0.6119  0.2304
   75MOL   H12549113   1.642   2.962   6.109 -1.1065  0.3294  0.8484
   75MOL   H12649114   1.643   2.964   6.281 -0.5867 -1.2181 -0.3405
   75MOL   H12749115   1.888   3.017   6.261  1.5381 -0.3641 -1.2742
   75MOL   H12849116   1.886   2.994   6.086  1.4637  2.0212  0.1622
   75MOL   H12949117   1.727   3.204   6.237 -0.5147  1.0868  0.1644
   75MOL   H13049118   1.732   3.191   6.062 -0.1651 -0.4936  0.4399
   75MOL   H13149119   1.879   3.366   6.151  1.1009 -0.0174 -1.9381
   75MOL   H13249120   1.970   3.249   6.247  0.1640  0.3185 -0.2673
   75MOL   H13349121   1.971   3.239   6.068 -1.9139 -1.6123 -0.9827
   75MOL   C13449122   2.172   2.272   6.494 -0.0809 -0.0241 -0.4579
   75MOL   C13549123   2.264   2.324   6.389 -0.4293 -0.3189 -0.0903
   75MOL   C13649124   2.311   2.214   6.289  0.0803 -0.7852 -0.3425
   75MOL   C13749125   2.196   2.164   6.195 -0.4485  0.1872 -0.5950
   75MOL   C13849126   2.235   2.036   6.111 -0.2354  0.2128 -0.2736
   75MOL   C13949127   2.129   2.004   6.003 -0.3131  0.0862  0.3499
   75MOL   C14049128   2.144   1.860   5.948 -1.0633 -0.0520  0.0049
   75MOL   C14149129   2.038   1.831   5.845  0.2104  0.7007 -0.5705
   75MOL   C14249130   2.060   1.687   5.773 -0.0464  0.1037 -0.0198
   75MOL   C14349131   2.194   1.673   5.710 -0.0663 -0.2683 -0.4382
   75MOL   C14449132   2.195   1.560   5.608 -0.1719 -0.2631 -0.8332
   75MOL   H14549133   2.232   2.237   6.578 -1.3762  0.5522  0.7447
   75MOL   H14649134   2.107   2.193   6.457 -0.3660 -0.7617  1.5808
   75MOL   H14749135   2.211   2.388   6.318 -1.2063 -0.3218  0.4813
   75MOL   H14849136   2.364   2.134   6.341 -2.8934 -2.6402 -0.0888
   75MOL   H14949137   2.381   2.255   6.216  0.0587 -1.5021 -0.7738
   75MOL   H15049138   2.105   2.150   6.253 -2.2019 -0.7604 -3.4756
   75MOL   H15149139   2.174   2.237   6.117  0.8328 -1.0342 -2.1457
   75MOL   H15249140   2.334   2.037   6.066 -0.4407 -0.8381 -0.7419
   75MOL   H15349141   2.249   1.961   6.189  0.2755 -0.8488 -1.3755
   75MOL   H15449142   2.031   2.032   6.041 -0.8629 -2.4542  0.8800
   75MOL   H15549143   2.128   2.075   5.920  1.0777  0.4906  0.6703
   75MOL   H15649144   2.245   1.854   5.907 -0.2623 -0.0676  1.9018
   75MOL   H15749145   2.144   1.791   6.033  2.3841  1.9491  1.7082
   75MOL   H15849146   1.935   1.847   5.877  0.1844 -0.3335 -0.1093
   75MOL   H15949147   2.051   1.904   5.766 -1.1578 -0.3858 -1.8237
   75MOL   H16049148   2.055   1.610   5.850  0.8203  0.5681  0.5097
   75MOL   H16149149   1.978   1.663   5.705  0.1477 -2.0191  0.4634
   75MOL   H16249150   2.217   1.757   5.645 -1.0316  0.0247 -0.4084
   75MOL   H16349151   2.279   1.663   5.777  0.1935  0.6606 -0.6240
   75MOL   H16449152   2.122   1.586   5.530 -0.5825  0.7471 -0.1270
   75MOL   H16549153   2.175   1.467   5.661 -1.2903  0.5241  0.1794
   75MOL   H16649154   2.294   1.552   5.563 -0.4922 -2.0755 -1.2522
   75MOL   C16749155   2.378   2.406   6.444 -0.3615  0.0833  0.3567
   75MOL   C16849156   2.428   2.522   6.350  0.3501 -0.4063  0.2442
   75MOL   C16949157   2.564   2.578   6.376  0.7349 -0.7924  0.1690
   75MOL   C17049158   2.587   2.636   6.512 -0.0648 -0.3199  0.0516
   75MOL   C17149159   2.733   2.678   6.537 -0.3270  1.2051 -0.2972
   75MOL   C17249160   2.736   2.758   6.676  0.3369 -0.9238  0.6531
   75MOL   C17349161   2.867   2.756   6.746  0.2658 -0.0871 -1.1950
   75MOL   C17449162   2.961   2.868   6.715 -0.4594  0.0656  0.6966
   75MOL   C17549163   3.100   2.857   6.779  0.1912 -0.0320 -0.2269
   75MOL   C17649164   3.183   2.984   6.743  0.6906  0.6349 -0.2217
   75MOL   C17749165   3.333   2.973   6.788 -0.3218  0.2739  0.2839
   75MOL   H17849166   2.350   2.457   6.537  0.8782  1.3248  0.0619
   75MOL   H17949167   2.462   2.342   6.466 -0.2719  0.6626  1.7451
   75MOL   H18049168   2.441   2.469   6.256  2.3647  1.0117 -0.3108
   75MOL   H18149169   2.576   2.659   6.304 -1.0631 -1.4542 -0.9114
   75MOL   H18249170   2.638   2.501   6.352 -1.1187 -3.1310  1.6852
   75MOL   H18349171   2.532   2.729   6.528  1.4503  0.6855 -0.4811
   75MOL   H18449172   2.562   2.572   6.597  0.1718  1.1071  1.2198
   75MOL   H18549173   2.782   2.736   6.460  3.2191 -0.8762  0.2367
   75MOL   H18649174   2.798   2.590   6.539 -0.0604  1.4079  1.2277
   75MOL   H18749175   2.701   2.861   6.666  0.7154 -0.9279 -0.9973
   75MOL   H18849176   2.669   2.710   6.746  0.7983 -1.0123  1.0367
   75MOL   H18949177   2.914   2.659   6.732 -2.2799 -1.2137 -2.2063
   75MOL   H19049178   2.849   2.752   6.854  1.1260 -2.0654 -1.0965
   75MOL   H19149179   2.979   2.865   6.608 -0.6712 -1.5424  0.6967
   75MOL   H19249180   2.918   2.966   6.737 -1.5350  0.0060 -1.0774
   75MOL   H19349181   3.152   2.767   6.747  0.4357 -0.2568  0.7894
   75MOL   H19449182   3.087   2.851   6.887 -1.6971  2.7329 -0.2323
   75MOL   H19549183   3.139   3.071   6.792  0.4281 -1.0707  2.6749
   75MOL   H19649184   3.186   2.995   6.634 -0.1290  0.0425 -0.3072
   75MOL   H19749185   3.333   2.947   6.894  2.0326 -1.7539 -0.1776
   75MOL   H19849186   3.396   3.061   6.777  0.5897 -0.3932  0.1068
   75MOL   H19949187   3.386   2.888   6.744 -1.9145  0.1140 -1.3664
   75MOL   C20049188   2.314   2.628   6.327 -0.8321 -0.2121  0.5328
   75MOL   C20149189   2.304   2.679   6.176 -0.1432 -0.8291 -0.6842
   75MOL   C20249190   2.241   2.817   6.161 -0.9546 -0.0712 -0.0771
   75MOL   C20349191   2.324   2.933   6.218 -0.0576 -0.1442 -0.3148
   75MOL   C20449192   2.246   3.068   6.217  0.3706  0.1934 -0.5899
   75MOL   C20549193   2.332   3.182   6.265 -0.6997 -0.2373  0.1564
   75MOL   C20649194   2.256   3.312   6.289  0.1940 -0.3966 -0.1762
   75MOL   C20749195   2.347   3.430   6.339 -0.0386 -0.0114 -0.1951
   75MOL   C20849196   2.266   3.558   6.385  0.4478  0.4807  0.2289
   75MOL   C20949197   2.358   3.682   6.395  0.0490 -0.0764 -0.6353
   75MOL   C21049198   2.288   3.804   6.442  0.1859  0.3329  0.3358
   75MOL   H21149199   2.217   2.607   6.372 -1.7414  2.4973 -0.0329
   75MOL   H21249200   2.341   2.708   6.397 -1.1798  1.4886 -1.2259
   75MOL   H21349201   2.404   2.699   6.137 -0.2894 -0.3969 -0.8419
   75MOL   H21449202   2.145   2.806   6.211 -1.1280  1.7478  0.0002
   75MOL   H21549203   2.223   2.840   6.056  1.8877 -0.6221 -0.7564
   75MOL   H21649204   2.412   2.949   6.156 -0.6424  0.7205 -0.9350
   75MOL   H21749205   2.356   2.913   6.321  0.1291 -0.2293 -0.3895
   75MOL   H21849206   2.171   3.050   6.295  2.4884  2.6787  2.1257
   75MOL   H21949207   2.195   3.093   6.124 -2.3006  0.8124  0.9752
   75MOL   H22049208   2.386   3.162   6.358 -0.0980 -0.7550 -0.3075
   75MOL   H22149209   2.404   3.183   6.183  0.3284 -2.0989  1.0072
   75MOL   H22249210   2.175   3.296   6.360 -0.7257  1.2610 -0.8150
   75MOL   H22349211   2.217   3.355   6.197  1.7003  3.0253  0.6865
   75MOL   H22449212   2.423   3.464   6.268  0.8977 -0.5370  0.5513
   75MOL   H22549213   2.409   3.403   6.424 -1.0863  1.0044  0.9184
   75MOL   H22649214   2.208   3.536   6.475 -1.7637 -1.3134 -1.5596
   75MOL   H22749215   2.199   3.578   6.302  0.2437 -3.8775 -0.7564
   75MOL   H22849216   2.434   3.654   6.468 -2.0715  1.4035  2.2370
   75MOL   H22949217   2.408   3.711   6.303  2.1342  1.2884  0.8565
   75MOL   H23049218   2.230   3.854   6.365  0.1776 -0.7207 -0.3517
   75MOL   H23149219   2.358   3.879   6.477  0.7354  0.2337 -0.5343
   75MOL   H23249220   2.221   3.773   6.522 -0.2619  0.7960  0.1410
   75MOL   C23349221   2.225   2.575   6.088  0.6830  0.2886  1.0061
   75MOL   C23449222   2.194   2.599   5.937  0.3305  0.2317  0.2878
   75MOL   C23549223   2.103   2.477   5.895  0.0865  0.5811 -0.1680
   75MOL   C23649224   1.952   2.490   5.906  0.2153 -0.0383 -0.2548
   75MOL   C23749225   1.881   2.354   5.912 -0.5178  0.1146  0.6417
   75MOL   C23849226   1.856   2.292   5.769 -0.8686 -0.3031  0.0485
   75MOL   C23949227   1.816   2.145   5.787 -0.1035  0.1507  0.2477
   75MOL   C24049228   1.755   2.083   5.662 -0.4711  1.0502  0.0606
   75MOL   C24149229   1.860   2.045   5.562  0.0477 -0.0628 -0.1804
   75MOL   C24249230   1.911   2.157   5.470  0.3996  0.0336 -0.1575
   75MOL   C24349231   1.948   2.108   5.333 -0.7321 -1.0566  0.4072
   75MOL   H24449232   2.133   2.545   6.139  0.7264  1.2949  1.6865
   75MOL   H24549233   2.286   2.485   6.094  1.3028  0.7580  1.7376
   75MOL   H24649234   2.132   2.688   5.941 -2.6615 -1.7148 -0.3885
   75MOL   H24749235   2.126   2.446   5.793 -0.1909  1.2738 -0.4469
   75MOL   H24849236   2.141   2.393   5.952  3.5311  2.3443  0.2900
   75MOL   H24949237   1.908   2.553   5.829 -1.0816  1.4039  1.6304
   75MOL   H25049238   1.922   2.550   5.992 -1.1185 -2.7265  1.2513
   75MOL   H25149239   1.783   2.358   5.958 -1.7992  1.3604 -2.0551
   75MOL   H25249240   1.936   2.283   5.974 -0.9456 -1.6233 -0.9328
   75MOL   H25349241   1.948   2.282   5.712  0.0724  0.2886  1.4350
   75MOL   H25449242   1.774   2.345   5.720  1.2545  1.2621 -1.9413
   75MOL   H25549243   1.896   2.079   5.821  0.9062  1.6115  0.8063
   75MOL   H25649244   1.738   2.134   5.862 -0.2691 -1.0457 -0.0892
   75MOL   H25749245   1.721   1.985   5.696 -2.9777  1.2617 -1.6598
   75MOL   H25849246   1.671   2.138   5.618 -1.0916  0.0744 -0.0130
   75MOL   H25949247   1.951   2.011   5.612  0.9121  1.0709 -0.9510
   75MOL   H26049248   1.828   1.956   5.507 -2.8513 -0.2779  1.7893
   75MOL   H26149249   1.990   2.224   5.504 -1.8320  1.3859  2.6003
   75MOL   H26249250   1.821   2.217   5.462 -0.1607 -0.5463  1.5178
   75MOL   H26349251   1.857   2.065   5.291  0.6628 -4.5870  0.8300
   75MOL   H26449252   2.030   2.036   5.331 -1.3199 -1.9575  3.9848
   75MOL   H26549253   1.967   2.190   5.264 -0.1664  0.7650  2.6377
   75MOL   C26649254   2.329   2.603   5.857  0.1864  0.6399  0.4190
   75MOL   C26749255   2.406   2.472   5.816 -0.1840 -0.0007  0.8817
   75MOL   C26849256   2.502   2.438   5.931  0.0642  0.0100 -0.1314
   75MOL   C26949257   2.521   2.276   5.950 -0.0405 -0.5664 -0.1385
   75MOL   C27049258   2.624   2.235   6.066  0.0311 -0.2990 -0.2289
   75MOL   C27149259   2.775   2.272   6.031  0.0830  0.2407 -0.7378
   75MOL   C27249260   2.879   2.234   6.140  0.0375  0.0368 -0.6672
   75MOL   C27349261   3.032   2.249   6.105 -0.4685  0.1520  0.1955
   75MOL   C27449262   3.126   2.148   6.175  0.4154 -0.2520 -0.4616
   75MOL   C27549263   3.173   2.168   6.323  0.3325  0.5487  0.2632
   75MOL   C27649264   3.063   2.142   6.421  0.1794 -0.5686 -0.2649
   75MOL   H27749265   2.392   2.674   5.910 -0.2888  1.6860 -0.4062
   75MOL   H27849266   2.313   2.660   5.765  0.3867 -1.9524 -1.2737
   75MOL   H27949267   2.343   2.384   5.803 -0.5345 -0.1764  3.5801
   75MOL   H28049268   2.596   2.487   5.906  1.0581  0.1716  3.5887
   75MOL   H28149269   2.462   2.472   6.027 -1.1263  2.3744 -1.4194
   75MOL   H28249270   2.552   2.230   5.856  2.1240  1.9841 -0.7417
   75MOL   H28349271   2.422   2.238   5.976 -1.8163  0.8184 -4.3805
   75MOL   H28449272   2.631   2.129   6.087  0.0597 -0.7906 -2.6045
   75MOL   H28549273   2.619   2.301   6.153  0.6788  2.9081 -2.5213
   75MOL   H28649274   2.790   2.379   6.018 -0.4485  0.3367 -0.5569
   75MOL   H28749275   2.801   2.221   5.939  0.3872 -0.1146 -0.4577
   75MOL   H28849276   2.848   2.303   6.218  1.1429  0.3026 -0.4460
   75MOL   H28949277   2.864   2.132   6.177  0.1752 -0.4589 -1.9558
   75MOL   H29049278   3.062   2.353   6.118 -0.0429  0.0301  0.1819
   75MOL   H29149279   3.043   2.225   6.000 -0.1105  1.7104 -0.1343
   75MOL   H29249280   3.083   2.049   6.159  0.5058 -0.1719 -1.2306
   75MOL   H29349281   3.227   2.147   6.133  1.5031  0.2398  2.0241
   75MOL   H29449282   3.205   2.270   6.342  2.2500  0.0254 -0.0777
   75MOL   H29549283   3.264   2.109   6.337  0.3431 -0.3044 -3.0256
   75MOL   H29649284   3.115   2.147   6.517 -0.5551 -0.0978  0.1074
   75MOL   H29749285   3.014   2.045   6.410  1.8635 -1.3878 -0.6798
   75MOL   H29849286   2.977   2.208   6.410  1.4029  1.1132  0.0415
   75MOL   C29949287   2.468   2.481   5.672 -0.3555  0.4647  0.0722
   75MOL   C30049288   2.366   2.475   5.552 -0.4240 -0.3335  0.0743
   75MOL   C30149289   2.397   2.360   5.460  0.0254  0.0993  0.0716
   75MOL   C30249290   2.348   2.230   5.520  0.1145 -0.0574  0.4606
   75MOL   C30349291   2.349   2.115   5.417  0.9157  0.0194  0.8500
   75MOL   C30449292   2.292   1.978   5.470 -0.1422 -0.2905 -0.2762
   75MOL   C30549293   2.262   1.877   5.363  0.1685 -0.1103  0.4284
   75MOL   C30649294   2.373   1.796   5.298 -0.2682 -0.3620 -0.3071
   75MOL   C30749295   2.329   1.661   5.226 -0.1754 -0.4077 -0.1623
   75MOL   C30849296   2.260   1.691   5.097 -0.0398 -0.5039  0.9422
   75MOL   C30949297   2.199   1.559   5.038  0.2402  0.0892 -0.1076
   75MOL   H31049298   2.542   2.401   5.665 -1.3781 -0.4865  0.0359
   75MOL   H31149299   2.533   2.568   5.658 -1.6234  1.3678 -0.3049
   75MOL   H31249300   2.266   2.472   5.595 -0.1262  0.2912  0.8210
   75MOL   H31349301   2.351   2.378   5.363 -1.8968 -0.1137  0.9314
   75MOL   H31449302   2.504   2.351   5.442 -0.4473 -2.1411 -1.8457
   75MOL   H31549303   2.411   2.204   5.606  0.3791 -0.2258  0.2154
   75MOL   H31649304   2.252   2.238   5.570  0.0522  0.6849  0.2140
   75MOL   H31749305   2.279   2.136   5.335  0.0073 -0.0696  1.5916
   75MOL   H31849306   2.448   2.102   5.374  0.1517 -3.0254 -0.1311
   75MOL   H31949307   2.197   2.002   5.518 -1.7972 -1.9184 -2.6215
   75MOL   H32049308   2.357   1.938   5.548  0.8969  0.2914 -0.8376
   75MOL   H32149309   2.184   1.816   5.409 -0.9353 -0.3312 -1.6421
   75MOL   H32249310   2.206   1.922   5.281 -1.0739 -0.7438  0.9123
   75MOL   H32349311   2.428   1.760   5.385  0.8797  0.0082 -0.8614
   75MOL   H32449312   2.442   1.862   5.245  0.4166 -0.0690  0.9312
   75MOL   H32549313   2.254   1.621   5.294  0.5563 -0.9057  0.3456
   75MOL   H32649314   2.403   1.583   5.209 -1.7275 -1.5815 -1.8065
   75MOL   H32749315   2.327   1.731   5.021  1.5916 -1.8016  1.6749
   75MOL   H32849316   2.181   1.766   5.103 -0.0913 -0.5463  0.8139
   75MOL   H32949317   2.141   1.588   4.951 -0.2646  0.2257  0.2743
   75MOL   H33049318   2.270   1.490   4.991  1.1850  1.5733 -0.8837
   75MOL   H33149319   2.141   1.499   5.108  0.2718  0.2899  0.0913
   75MOL   C33249320   2.367   2.613   5.477  0.4991 -0.4524  0.8237
   75MOL   C33349321   2.238   2.647   5.399  0.0047 -0.0270 -0.3077
   75MOL   C33449322   2.268   2.749   5.280  0.6788  0.3066 -0.6846
   75MOL   C33549323   2.352   2.682   5.162  0.2565  0.1912  0.2347
   75MOL   C33649324   2.325   2.742   5.028  0.3405  0.5893  0.1457
   75MOL   C33749325   2.403   2.671   4.912 -0.0694  0.0680 -1.0041
   75MOL   C33849326   2.332   2.680   4.773  0.4677  0.8373 -0.3419
   75MOL   C33949327   2.372   2.574   4.666  0.0020 -0.2087  0.0373
   75MOL   C34049328   2.499   2.614   4.578  0.2436  0.6067 -0.5878
   75MOL   C34149329   2.513   2.543   4.440  0.2029  0.3690  0.5646
   75MOL   C34249330   2.599   2.419   4.448 -0.2452  1.0659  0.4818
   75MOL   H34349331   2.384   2.695   5.547 -4.3082  0.4912  1.0599
   75MOL   H34449332   2.454   2.623   5.411 -0.5926 -1.1319 -0.7393
   75MOL   H34549333   2.195   2.554   5.361 -3.4028  1.9104 -1.4419
   75MOL   H34649334   2.318   2.836   5.322  1.9746 -1.0451  0.6524
   75MOL   H34749335   2.180   2.799   5.240 -0.0722  0.0469  0.6088
   75MOL   H34849336   2.458   2.673   5.186  0.4860 -0.1622 -0.8833
   75MOL   H34949337   2.314   2.580   5.151 -0.4551  0.2762  1.6823
   75MOL   H35049338   2.221   2.754   5.001  0.7100  0.8570 -1.1699
   75MOL   H35149339   2.364   2.844   5.030 -1.5019  1.3397 -1.5103
   75MOL   H35249340   2.410   2.567   4.943  0.6672  0.4900  0.2932
   75MOL   H35349341   2.504   2.710   4.902 -0.5448  1.2992 -1.1481
   75MOL   H35449342   2.336   2.780   4.730  0.1628  1.7819  1.7626
   75MOL   H35549343   2.228   2.653   4.788  0.8185 -1.0483 -1.1538
   75MOL   H35649344   2.373   2.470   4.701 -0.4337 -0.5164 -0.8425
   75MOL   H35749345   2.285   2.568   4.601 -2.0564  0.9030  2.5979
   75MOL   H35849346   2.587   2.608   4.642 -1.1411 -0.4389  1.2637
   75MOL   H35949347   2.489   2.722   4.568 -1.4426  0.5220  0.0051
   75MOL   H36049348   2.559   2.608   4.366  1.0959  0.0674  0.8472
   75MOL   H36149349   2.417   2.515   4.398  1.0367  1.1744 -1.9818
   75MOL   H36249350   2.586   2.363   4.356  2.5949  0.3186  0.4978
   75MOL   H36349351   2.704   2.437   4.472 -0.0802 -0.1698  0.7165
   75MOL   H36449352   2.563   2.357   4.531  0.4858 -1.1456 -0.7974
   75MOL   C36549353   2.132   2.706   5.497 -0.0614 -0.4704  0.2493
   75MOL   C36649354   1.987   2.729   5.441  0.6746 -0.0184 -0.4389
   75MOL   C36749355   1.880   2.633   5.498  0.4626 -0.2493  0.1386
   75MOL   C36849356   1.845   2.515   5.408 -0.1189 -0.6791  0.4128
   75MOL   C36949357   1.766   2.544   5.279  0.1593 -0.4960 -0.1316
   75MOL   C37049358   1.734   2.416   5.208 -0.4424  0.2864  0.6794
   75MOL   C37149359   1.681   2.440   5.061 -0.1805 -0.1896  0.4039
   75MOL   C37249360   1.771   2.516   4.964 -0.2386  0.2206  0.6143
   75MOL   C37349361   1.893   2.429   4.914 -0.6178  0.7497 -0.2797
   75MOL   C37449362   1.965   2.517   4.801  0.2340 -0.0958 -0.4613
   75MOL   C37549363   2.076   2.442   4.731  0.2731 -0.0289  0.2785
   75MOL   H37649364   2.128   2.653   5.592 -1.4495 -0.3976  0.2304
   75MOL   H37749365   2.174   2.798   5.539 -0.5238  1.5496 -3.5548
   75MOL   H37849366   2.007   2.701   5.338 -0.4372  0.4930 -0.8014
   75MOL   H37949367   1.787   2.682   5.525 -0.2347 -0.4638 -1.7676
   75MOL   H38049368   1.901   2.596   5.598  0.3247  0.0665  0.2874
   75MOL   H38149369   1.790   2.447   5.472 -1.2394 -0.2818 -0.1105
   75MOL   H38249370   1.927   2.449   5.381  1.0156  1.3604 -1.2927
   75MOL   H38349371   1.820   2.614   5.216 -1.9821  0.0051 -1.4381
   75MOL   H38449372   1.677   2.602   5.300  0.4353 -0.0561 -0.1864
   75MOL   H38549373   1.660   2.359   5.264 -2.4099  2.1834  0.1022
   75MOL   H38649374   1.825   2.360   5.188 -0.6307  0.4434 -0.6763
   75MOL   H38749375   1.667   2.340   5.020  1.7865 -1.1522  1.9941
   75MOL   H38849376   1.579   2.477   5.055  0.6665  1.7444 -2.6392
   75MOL   H38949377   1.800   2.617   4.994 -0.8145  0.3423  0.7564
   75MOL   H39049378   1.704   2.535   4.880 -1.1145 -0.1885  1.2145
   75MOL   H39149379   1.959   2.410   4.999  0.7925  0.5091 -1.4126
   75MOL   H39249380   1.856   2.335   4.873 -0.6744 -0.1022  1.6763
   75MOL   H39349381   1.894   2.544   4.723 -0.3699 -0.9166 -0.2161
   75MOL   H39449382   1.991   2.616   4.836  2.0800 -0.9454  0.6421
   75MOL   H39549383   2.099   2.500   4.642 -2.1501 -1.8412 -1.6260
   75MOL   H39649384   2.043   2.349   4.684 -0.8437 -0.0415  1.0514
   75MOL   H39749385   2.165   2.425   4.791  0.5479  0.1716 -0.0775
   75MOL   C39849386   1.939   2.879   5.439 -0.3864  0.4455  0.2912
   75MOL   C39949387   1.824   2.911   5.343  0.2343 -0.6608  0.1273
   75MOL   C40049388   1.871   2.905   5.198 -0.5130 -0.6051  0.5384
   75MOL   C40149389   1.981   3.009   5.158 -0.5312  0.9838  1.1117
   75MOL   C40249390   2.023   2.992   5.016  0.0261 -0.1833  0.4096
   75MOL   C40349391   2.132   3.090   4.971 -0.5330  0.5782 -0.4450
   75MOL   C40449392   2.171   3.070   4.826  0.3522 -0.0131  0.0018
   75MOL   C40549393   2.278   3.158   4.768  0.1839 -0.2498 -0.2159
   75MOL   C40649394   2.282   3.141   4.617 -0.8652 -0.6574 -0.0671
   75MOL   C40749395   2.182   3.228   4.546  0.9674  0.3263 -0.3880
   75MOL   C40849396   2.159   3.179   4.400  0.1282  0.3403 -0.2096
   75MOL   H40949397   2.020   2.950   5.416 -1.8962  1.7839 -1.0720
   75MOL   H41049398   1.905   2.901   5.540  1.6868 -2.3057  1.6421
   75MOL   H41149399   1.751   2.830   5.344 -0.3111 -0.1656  0.7741
   75MOL   H41249400   1.786   2.905   5.130 -0.0237  1.3075 -0.1000
   75MOL   H41349401   1.923   2.812   5.174 -1.8790 -1.2731  0.1512
   75MOL   H41449402   1.951   3.113   5.166 -1.3850  0.6117  3.0571
   75MOL   H41549403   2.070   2.990   5.219  0.9867 -0.6557 -1.5446
   75MOL   H41649404   2.061   2.894   4.988 -2.2082 -0.4744 -1.7502
   75MOL   H41749405   1.938   3.012   4.950 -1.0865 -1.4405  1.4433
   75MOL   H41849406   2.221   3.082   5.033 -0.4564 -1.4996 -0.7753
   75MOL   H41949407   2.090   3.190   4.964 -1.2323  0.4720  1.6789
   75MOL   H42049408   2.207   2.969   4.807 -1.4105 -0.4751 -1.0455
   75MOL   H42149409   2.081   3.082   4.765  0.1675 -1.7790 -0.0942
   75MOL   H42249410   2.373   3.133   4.814 -0.3622 -0.2770  0.9119
   75MOL   H42349411   2.246   3.258   4.797  1.4353 -0.5984  2.5676
   75MOL   H42449412   2.385   3.171   4.594 -1.3047  1.1519  0.2721
   75MOL   H42549413   2.292   3.035   4.591  0.7053 -0.9459  1.5591
   75MOL   H42649414   2.206   3.334   4.541  3.1454 -0.0126  1.6887
   75MOL   H42749415   2.086   3.225   4.598  0.3970  1.1235 -1.3904
   75MOL   H42849416   2.252   3.215   4.357  0.5600  0.0955  0.5270
   75MOL   H42949417   2.073   3.238   4.368 -1.2131 -1.0728  0.7003
   75MOL   H43049418   2.133   3.073   4.388  0.7263  0.2729 -0.9308
   75MOL   C43149419   1.757   3.047   5.387 -0.2145  0.6515  0.3862
   75MOL   C43249420   1.628   3.085   5.315  0.1019  0.7088 -0.2791
   75MOL   C43349421   1.603   3.236   5.323  0.3606 -0.4779 -0.3300
   75MOL   C43449422   1.595   3.277   5.476  0.1947  0.4679 -0.0562
   75MOL   C43549423   1.564   3.422   5.498  0.4902  0.1235 -0.0067
   75MOL   C43649424   1.575   3.436   5.652 -0.5394 -0.4936 -0.5262
   75MOL   C43749425   1.524   3.570   5.710 -0.7141  0.1535 -0.3507
   75MOL   C43849426   1.630   3.673   5.666  0.0649 -0.1830 -0.7722
   75MOL   C43949427   1.592   3.811   5.711 -0.6910  0.6983  0.4308
   75MOL   C44049428   1.712   3.904   5.692 -0.1269 -0.0167 -0.7062
   75MOL   C44149429   1.680   4.039   5.758 -0.1694  0.1069 -0.1252
   75MOL   H44249430   1.820   3.136   5.380  0.7709 -0.0200  0.7195
   75MOL   H44349431   1.746   3.037   5.494 -1.8852 -1.7234  0.0358
   75MOL   H44449432   1.643   3.063   5.209 -1.7287  0.3495 -0.4811
   75MOL   H44549433   1.690   3.285   5.278 -0.5700  1.5632  0.0199
   75MOL   H44649434   1.518   3.272   5.266 -1.2636 -2.7501  0.6118
   75MOL   H44749435   1.692   3.260   5.523 -0.2759  0.5204  0.9545
   75MOL   H44849436   1.521   3.228   5.540 -0.3505  0.8661 -0.3702
   75MOL   H44949437   1.460   3.437   5.469  0.8113  0.9282 -0.7470
   75MOL   H45049438   1.641   3.477   5.443  0.6385  0.8259  0.9074
   75MOL   H45149439   1.676   3.410   5.685 -0.9729 -0.3025  1.0077
   75MOL   H45249440   1.519   3.364   5.713 -0.4515  0.5452  0.8186
   75MOL   H45349441   1.507   3.574   5.817 -0.5624  1.3303 -0.3602
   75MOL   H45449442   1.424   3.592   5.674 -1.3310 -0.6479  0.8535
   75MOL   H45549443   1.724   3.641   5.713 -0.7175 -3.1794 -1.1074
   75MOL   H45649444   1.642   3.668   5.558 -0.5815 -2.6918 -0.7622
   75MOL   H45749445   1.585   3.803   5.820  0.9558  0.4262  0.5252
   75MOL   H45849446   1.505   3.850   5.658  0.6442  1.1811 -1.4620
   75MOL   H45949447   1.749   3.927   5.592 -1.1861  0.8040 -0.9174
   75MOL   H46049448   1.791   3.864   5.755  0.0660  2.2701  0.5724
   75MOL   H46149449   1.609   4.094   5.697  0.3934  0.0954 -0.8042
   75MOL   H46249450   1.643   4.028   5.860 -0.7185 -2.1543 -0.5488
   75MOL   H46349451   1.778   4.087   5.760  0.1562 -0.5873  1.2680
   75MOL   C46449452   1.515   3.005   5.371 -0.7507  0.1327  0.1728
   75MOL   C46549453   1.367   3.018   5.306 -0.2296 -0.4755 -0.6159
   75MOL   C46649454   1.357   3.002   5.151  0.6171  0.3378  0.1085
   75MOL   C46749455   1.430   2.881   5.090  0.0795  0.1989 -0.3703
   75MOL   C46849456   1.394   2.861   4.942  0.0159  0.9895 -0.2046
   75MOL   C46949457   1.512   2.783   4.873  0.5463  0.0573  0.1421
   75MOL   C47049458   1.500   2.776   4.718 -0.5734 -0.3602 -0.8648
   75MOL   C47149459   1.604   2.677   4.653 -0.6320  0.2438 -0.4570
   75MOL   C47249460   1.628   2.723   4.507 -0.3836 -0.2007 -0.1337
   75MOL   C47349461   1.509   2.686   4.416  0.6052  0.2827  0.1096
   75MOL   C47449462   1.548   2.592   4.303  0.0411 -0.1844  0.1668
   75MOL   H47549463   1.504   3.020   5.478  3.4666 -2.5474  1.1144
   75MOL   H47649464   1.546   2.901   5.372 -3.7868 -0.8655 -1.9973
   75MOL   H47749465   1.326   3.119   5.316 -2.9981 -1.2694 -3.1553
   75MOL   H47849466   1.393   3.093   5.104 -2.9134  1.4704 -0.5458
   75MOL   H47949467   1.253   2.989   5.121  0.3044  0.2054  1.2435
   75MOL   H48049468   1.532   2.920   5.092  0.2411 -0.2509  0.0207
   75MOL   H48149469   1.415   2.789   5.145 -0.6389  1.3012  1.3030
   75MOL   H48249470   1.384   2.955   4.888 -0.3981  1.3897  0.5662
   75MOL   H48349471   1.300   2.807   4.935  0.6212 -0.3347  1.3505
   75MOL   H48449472   1.616   2.812   4.887  1.0950 -1.9980  0.4744
   75MOL   H48549473   1.506   2.680   4.909 -1.5924  1.4262  4.0361
   75MOL   H48649474   1.402   2.740   4.687 -0.0680 -2.9289  0.4066
   75MOL   H48749475   1.509   2.879   4.684 -2.1804  0.4577  1.0962
   75MOL   H48849476   1.695   2.686   4.712 -1.3439 -0.0404  0.6948
   75MOL   H48949477   1.583   2.570   4.656  1.1310 -0.1089  0.0060
   75MOL   H49049478   1.662   2.826   4.503  0.4010 -0.5448 -3.3214
   75MOL   H49149479   1.719   2.669   4.480 -1.8713 -2.0369 -1.6864
   75MOL   H49249480   1.437   2.629   4.475 -0.3006  0.7499 -0.5349
   75MOL   H49349481   1.458   2.772   4.374  2.2064  0.8746 -0.6785
   75MOL   H49449482   1.632   2.614   4.237 -1.3452  2.6470 -0.7373
   75MOL   H49549483   1.457   2.571   4.247 -0.1988 -1.4270  1.0013
   75MOL   H49649484   1.573   2.494   4.343 -2.1733 -0.8994 -0.1273
   75MOL   C49749485   1.269   2.926   5.386 -0.1203  0.3122 -0.2771
   75MOL   C49849486   1.216   2.965   5.524  0.9571  0.2790 -0.3277
   75MOL   C49949487   1.258   2.860   5.634  0.4943 -0.4952  0.0639
   75MOL   C50049488   1.260   2.912   5.781  0.1212  0.3113  0.2986
   75MOL   C50149489   1.383   2.995   5.808  0.1918 -0.2505  0.1688
   75MOL   C50249490   1.514   2.925   5.808 -0.7097  0.3318 -0.1848
   75MOL   C50349491   1.636   3.013   5.794  0.4437 -0.4728 -0.0200
   75MOL   C50449492   1.759   2.926   5.818 -0.4212 -0.2829 -0.1515
   75MOL   C50549493   1.887   3.010   5.803  0.2892  0.1663 -0.2263
   75MOL   C50649494   2.012   2.922   5.814 -0.1683 -0.1857  0.7521
   75MOL   C50749495   2.142   3.002   5.799  0.9500  0.2573  0.2039
   75MOL   H50849496   1.177   2.906   5.331 -0.3027  0.4830 -0.0367
   75MOL   H50949497   1.324   2.832   5.394 -0.0055  0.4588  0.7508
   75MOL   H51049498   1.244   3.069   5.545  1.6236  0.2157 -0.9111
   75MOL   H51149499   1.350   2.809   5.603  0.9407  0.6372 -0.5084
   75MOL   H51249500   1.192   2.773   5.629 -0.2808  0.1172 -0.4851
   75MOL   H51349501   1.241   2.828   5.848  0.7377  0.2689  0.4207
   75MOL   H51449502   1.169   2.971   5.792  0.3952  0.7779  0.0769
   75MOL   H51549503   1.372   3.089   5.752 -1.1630  0.1872  1.1403
   75MOL   H51649504   1.364   3.041   5.905 -1.1673 -0.8898  0.2223
   75MOL   H51749505   1.522   2.858   5.894  0.3335 -2.3749 -2.3129
   75MOL   H51849506   1.519   2.854   5.725  1.2778 -0.5106  0.6282
   75MOL   H51949507   1.644   3.047   5.690 -0.2644  0.6387  0.2766
   75MOL   H52049508   1.642   3.101   5.857  0.2256  1.0605 -2.0616
   75MOL   H52149509   1.772   2.857   5.734 -1.4649 -0.4790 -0.1520
   75MOL   H52249510   1.772   2.878   5.916  2.3042 -0.5563 -0.6032
   75MOL   H52349511   1.884   3.080   5.887  0.7276 -0.4333  0.2922
   75MOL   H52449512   1.889   3.056   5.704 -0.7547 -0.5567 -0.5882
   75MOL   H52549513   2.011   2.842   5.741  0.2287  1.9121 -1.6317
   75MOL   H52649514   2.027   2.865   5.906 -0.5140  1.3469  1.7754
   75MOL   H52749515   2.161   3.066   5.885  3.0506  1.2263 -0.9418
   75MOL   H52849516   2.147   3.067   5.712 -2.2302 -0.5716 -0.6468
   75MOL   H52949517   2.230   2.938   5.804  0.7889  0.0962  1.1575
   75MOL   C53049518   1.052   2.976   5.520  0.0789 -0.0155  0.2651
   75MOL   C53149519   1.002   3.096   5.436 -0.3825 -0.0878  0.7106
   75MOL   C53249520   0.966   3.223   5.515 -0.8647  0.2923 -0.0108
   75MOL   C53349521   1.091   3.298   5.561  0.5410 -0.2693  0.0032
   75MOL   C53449522   1.063   3.434   5.638  0.2782  0.5606  0.9008
   75MOL   C53549523   0.974   3.422   5.765  0.5825  0.3606  0.5888
   75MOL   C53649524   0.963   3.557   5.850 -0.5654  0.1651 -0.4539
   75MOL   C53749525   1.097   3.623   5.885  0.3695  0.4508  0.1740
   75MOL   C53849526   1.080   3.747   5.963  0.5872  0.3175  0.2548
   75MOL   C53949527   1.209   3.790   6.045  0.6720 -0.0336  0.5717
   75MOL   C54049528   1.333   3.818   5.949 -0.9351 -0.4406 -0.6401
   75MOL   H54149529   1.006   2.885   5.480 -0.5431  1.4988 -2.6147
   75MOL   H54249530   1.019   2.990   5.623 -1.6694 -1.9686  0.0178
   75MOL   H54349531   1.085   3.120   5.369 -0.7950 -1.1014 -0.1821
   75MOL   H54449532   0.901   3.204   5.601  0.7345  1.6843  1.5593
   75MOL   H54549533   0.907   3.295   5.458  0.9011  3.4638  1.9751
   75MOL   H54649534   1.152   3.333   5.477  2.3790 -0.4311  1.2287
   75MOL   H54749535   1.155   3.234   5.621  3.4743  2.1808 -0.3412
   75MOL   H54849536   1.015   3.505   5.571 -1.7621 -0.3204  1.4024
   75MOL   H54949537   1.159   3.482   5.659 -1.4499  3.5521  2.3373
   75MOL   H55049538   1.016   3.339   5.822  0.7189 -0.9565 -1.3727
   75MOL   H55149539   0.881   3.374   5.734  1.7899 -1.7545  0.1211
   75MOL   H55249540   0.893   3.540   5.931 -0.1777  0.4179 -0.0639
   75MOL   H55349541   0.921   3.634   5.786 -0.2862  0.5816 -0.1381
   75MOL   H55449542   1.156   3.641   5.795 -0.1761  0.6056 -0.1570
   75MOL   H55549543   1.157   3.562   5.952  3.3365  2.1384 -0.8541
   75MOL   H55649544   0.996   3.736   6.032 -0.3491  1.7903 -0.6143
   75MOL   H55749545   1.052   3.824   5.891 -2.7419 -2.4807 -1.6015
   75MOL   H55849546   1.219   3.714   6.122 -1.3536 -1.2932 -0.3410
   75MOL   H55949547   1.184   3.884   6.094  0.8597  2.3000 -3.6249
   75MOL   H56049548   1.335   3.745   5.869 -1.8631 -0.4067 -0.6963
   75MOL   H56149549   1.323   3.912   5.895 -1.6943 -0.1333  0.0194
   75MOL   H56249550   1.429   3.818   6.002 -1.1381 -2.0843 -0.2550
   75MOL   C56349551   0.886   3.061   5.334 -0.9243 -0.3284 -0.2469
   75MOL   C56449552   0.883   3.150   5.208 -0.3915 -0.3730  0.5941
   75MOL   C56549553   0.737   3.171   5.158  0.3156 -0.2431  0.5205
   75MOL   C56649554   0.671   3.288   5.228 -0.7607 -0.0260  1.1192
   75MOL   C56749555   0.523   3.301   5.198 -0.2185  0.7531  0.3055
   75MOL   C56849556   0.459   3.413   5.281 -0.0283 -0.3225 -0.2130
   75MOL   C56949557   0.306   3.413   5.263 -0.5261 -0.2291 -1.0122
   75MOL   C57049558   0.243   3.540   5.328 -0.2000 -0.3237  0.3159
   75MOL   C57149559   0.101   3.556   5.275  0.8635 -0.4079  0.1483
   75MOL   C57249560   0.021   3.660   5.346  0.1070  0.5962  0.7242
   75MOL   C57349561   7.583   3.654   5.287  0.9029 -0.5384 -0.0804
   75MOL   H57449562   0.802   3.052   5.403 -0.9040 -2.5935 -0.4767
   75MOL   H57549563   0.895   2.959   5.295 -0.3366  0.5269 -2.3895
   75MOL   H57649564   0.921   3.249   5.234 -0.3440  0.0023 -0.8723
   75MOL   H57749565   0.681   3.078   5.170  0.3801 -0.1247  1.8020
   75MOL   H57849566   0.739   3.188   5.050 -0.3432  0.7222  0.6531
   75MOL   H57949567   0.714   3.384   5.201 -0.6682 -0.3537  0.0735
   75MOL   H58049568   0.681   3.281   5.337  3.8510  1.7454  0.9180
   75MOL   H58149569   0.481   3.201   5.208  0.0526  0.4543 -1.2850
   75MOL   H58249570   0.514   3.313   5.090  0.9085 -0.6257  0.0479
   75MOL   H58349571   0.486   3.408   5.386 -2.7786 -1.4929  0.4777
   75MOL   H58449572   0.494   3.502   5.228 -1.5311  0.9530  0.9030
   75MOL   H58549573   0.270   3.410   5.161 -1.5993 -1.2130 -0.6170
   75MOL   H58649574   0.268   3.322   5.310  0.9470 -0.0382  0.6286
   75MOL   H58749575   0.303   3.629   5.309 -0.4316 -0.0534  0.8415
   75MOL   H58849576   0.253   3.537   5.437  0.1527  0.7421  0.3177
   75MOL   H58949577   0.058   3.456   5.279  1.0796 -0.5977 -1.7647
   75MOL   H59049578   0.099   3.586   5.170 -1.1348  1.0674  0.5933
   75MOL   H59149579   0.061   3.756   5.314  0.6367 -0.5328 -2.1724
   75MOL   H59249580   0.032   3.659   5.455 -0.7238 -0.1623  0.8167
   75MOL   H59349581   7.581   3.713   5.196  1.7371 -1.0332 -0.4226
   75MOL   H59449582   7.543   3.554   5.269  0.4124 -0.4770  0.6237
   75MOL   H59549583   7.525   3.706   5.363  1.1914 -1.8734  1.0817
   75MOL   C59649584   0.974   3.101   5.097 -0.1911 -0.8862 -0.1562
   75MOL   C59749585   1.008   3.209   4.992 -0.5227 -0.2574  0.3093
   75MOL   C59849586   1.026   3.141   4.857  1.0154 -0.1145 -0.4332
   75MOL   C59949587   1.132   3.030   4.849 -0.0369  0.2704 -0.1055
   75MOL   C60049588   1.109   2.934   4.740 -0.5582  0.2423  0.0693
   75MOL   C60149589   0.982   2.841   4.749  0.4203  0.4278 -0.4250
   75MOL   C60249590   0.962   2.760   4.876  0.6094  0.0494 -0.0490
   75MOL   C60349591   0.815   2.790   4.917 -0.2723  0.0368 -0.1679
   75MOL   C60449592   0.801   2.754   5.066 -0.3167 -0.7865 -0.0207
   75MOL   C60549593   0.649   2.739   5.099  0.1389 -0.1301  0.4781
   75MOL   C60649594   0.606   2.695   5.242  0.7278  0.7705 -0.0808
   75MOL   H60749595   1.064   3.060   5.142  0.8644  1.5709  0.0321
   75MOL   H60849596   0.922   3.018   5.048  1.5277 -1.6480 -0.7362
   75MOL   H60949597   0.922   3.274   4.980 -0.8188 -0.3844  1.6937
   75MOL   H61049598   1.058   3.212   4.781 -1.9093  0.0345 -1.5916
   75MOL   H61149599   0.930   3.107   4.818 -0.9389  1.3318  2.9284
   75MOL   H61249600   1.156   2.982   4.943  2.8546  1.9615  0.0908
   75MOL   H61349601   1.222   3.072   4.802  0.0283 -2.8311 -2.9215
   75MOL   H61449602   1.202   2.880   4.726  0.3639  1.9228 -0.3657
   75MOL   H61549603   1.106   2.994   4.649  1.0435  0.1657 -0.0341
   75MOL   H61649604   0.898   2.906   4.725 -1.3504 -1.9527 -0.8606
   75MOL   H61749605   0.990   2.767   4.669  0.8402 -2.3292  2.0482
   75MOL   H61849606   1.028   2.797   4.955 -0.1708  1.3582  0.0055
   75MOL   H61949607   0.979   2.655   4.852  0.0161 -0.1880  0.5492
   75MOL   H62049608   0.742   2.734   4.859 -1.5123 -1.1870  2.4544
   75MOL   H62149609   0.789   2.896   4.918 -1.5612 -0.2718 -0.1658
   75MOL   H62249610   0.843   2.654   5.075 -4.1058 -2.2775  1.6515
   75MOL   H62349611   0.851   2.812   5.144  0.8000 -1.6390 -0.0924
   75MOL   H62449612   0.603   2.662   5.036  0.4305  1.3807 -1.6345
   75MOL   H62549613   0.592   2.821   5.056 -0.3884  1.1110  3.4377
   75MOL   H62649614   0.644   2.761   5.320  0.3865 -0.2866  1.0058
   75MOL   H62749615   0.497   2.697   5.254  0.6108 -2.6351 -0.0002
   75MOL   H62849616   0.646   2.598   5.273 -0.7334  0.8443  2.1055
   75MOL   C62949617   1.137   3.297   5.001  0.0797 -0.2099 -0.2129
   75MOL   C63049618   1.133   3.387   5.126 -0.2656 -0.1290 -0.3572
   75MOL   C63149619   1.239   3.500   5.132 -0.5954 -0.5181  0.0523
   75MOL   C63249620   1.237   3.589   5.258 -0.8589  0.1759 -0.1368
   75MOL   C63349621   1.355   3.684   5.267 -0.2404 -0.4463 -0.3460
   75MOL   C63449622   1.336   3.810   5.347  0.4055 -0.2985  0.2709
   75MOL   C63549623   1.437   3.918   5.291  0.5015  0.1088 -0.0162
   75MOL   C63649624   1.461   4.028   5.393 -0.0701  0.0407 -0.3090
   75MOL   C63749625   1.572   4.119   5.361 -0.5191 -0.2057 -0.0186
   75MOL   C63849626   1.535   4.212   5.240  0.9318  0.6037  0.5354
   75MOL   C63949627   1.648   4.283   5.172 -0.4934  0.1159 -0.2318
   75MOL   H64049628   1.227   3.236   5.004  0.9893  1.1358  0.5414
   75MOL   H64149629   1.144   3.360   4.913  0.1972 -0.7127 -0.5621
   75MOL   H64249630   1.037   3.435   5.146  0.4051  1.1344 -0.1116
   75MOL   H64349631   1.330   3.440   5.130 -0.4184 -0.2410 -0.2212
   75MOL   H64449632   1.239   3.557   5.039  1.3899 -2.7461 -1.3781
   75MOL   H64549633   1.232   3.540   5.355  0.0425 -0.5449 -0.4523
   75MOL   H64649634   1.154   3.658   5.247 -1.3166 -0.2622  0.5519
   75MOL   H64749635   1.377   3.713   5.165 -1.1628  0.4033 -0.3149
   75MOL   H64849636   1.445   3.632   5.299 -1.3359 -1.9493  0.3827
   75MOL   H64949637   1.342   3.802   5.456  0.2169 -0.3454  0.2769
   75MOL   H65049638   1.231   3.832   5.330 -0.1788 -1.5871  2.0372
   75MOL   H65149639   1.413   3.954   5.191 -4.1016 -4.0959 -0.6581
   75MOL   H65249640   1.535   3.872   5.278  0.0471 -0.4340 -1.6362
   75MOL   H65349641   1.453   4.000   5.498 -1.0222 -0.6524 -0.5580
   75MOL   H65449642   1.368   4.084   5.395 -1.1924 -1.7309 -1.3522
   75MOL   H65549643   1.670   4.072   5.347 -0.0325  0.7201  0.2246
   75MOL   H65649644   1.594   4.189   5.442  0.7573 -0.6671  0.0547
   75MOL   H65749645   1.458   4.281   5.277 -1.0806 -0.5728 -1.3535
   75MOL   H65849646   1.492   4.154   5.159  0.0986  0.4314  1.0912
   75MOL   H65949647   1.703   4.354   5.233 -0.2127 -1.0305  0.8748
   75MOL   H66049648   1.620   4.347   5.088  0.8355 -1.7688 -2.1662
   75MOL   H66149649   1.715   4.205   5.135 -0.9949 -0.7670  0.6907
   75MOL   H66249650   1.136   3.315   5.208 -1.4854  0.9740  0.6730
   7.70328   7.70328   7.70328
