;
; Gromacs include topology (itp) file.
; For Molecular Group XYZ
; Force field scheme: opls2005
; Produced from DL_FIELD v4.11
;


[ moleculetype ]
; name    nrexcl
XYZ    3

[ atoms ]
; nr   type   resnr   residu    atom    cgnr    charge    mass
    1        CT    1  MOL      C1     1  -0.1800000   12.0115
    2        CT    1  MOL      C2     2  -0.0600000   12.0115
    3        CT    1  MOL      C3     3  -0.1200000   12.0115
    4        CT    1  MOL      C4     4  -0.1200000   12.0115
    5        CT    1  MOL      C5     5  -0.1200000   12.0115
    6        CT    1  MOL      C6     6  -0.1200000   12.0115
    7        CT    1  MOL      C7     7  -0.1200000   12.0115
    8        CT    1  MOL      C8     8  -0.1200000   12.0115
    9        CT    1  MOL      C9     9  -0.1200000   12.0115
   10        CT    1  MOL     C10    10  -0.1200000   12.0115
   11        CT    1  MOL     C11    11  -0.1800000   12.0115
   12        HC    1  MOL     H12    12   0.0600000    1.0080
   13        HC    1  MOL     H13    13   0.0600000    1.0080
   14        HC    1  MOL     H14    14   0.0600000    1.0080
   15        HC    1  MOL     H15    15   0.0600000    1.0080
   16        HC    1  MOL     H16    16   0.0600000    1.0080
   17        HC    1  MOL     H17    17   0.0600000    1.0080
   18        HC    1  MOL     H18    18   0.0600000    1.0080
   19        HC    1  MOL     H19    19   0.0600000    1.0080
   20        HC    1  MOL     H20    20   0.0600000    1.0080
   21        HC    1  MOL     H21    21   0.0600000    1.0080
   22        HC    1  MOL     H22    22   0.0600000    1.0080
   23        HC    1  MOL     H23    23   0.0600000    1.0080
   24        HC    1  MOL     H24    24   0.0600000    1.0080
   25        HC    1  MOL     H25    25   0.0600000    1.0080
   26        HC    1  MOL     H26    26   0.0600000    1.0080
   27        HC    1  MOL     H27    27   0.0600000    1.0080
   28        HC    1  MOL     H28    28   0.0600000    1.0080
   29        HC    1  MOL     H29    29   0.0600000    1.0080
   30        HC    1  MOL     H30    30   0.0600000    1.0080
   31        HC    1  MOL     H31    31   0.0600000    1.0080
   32        HC    1  MOL     H32    32   0.0600000    1.0080
   33        HC    1  MOL     H33    33   0.0600000    1.0080
   34        HC    1  MOL     H34    34   0.0600000    1.0080
   35        CT    1  MOL     C35    35  -0.1200000   12.0115
   36        CT    1  MOL     C36    36  -0.0600000   12.0115
   37        CT    1  MOL     C37    37  -0.1200000   12.0115
   38        CT    1  MOL     C38    38  -0.1200000   12.0115
   39        CT    1  MOL     C39    39  -0.1200000   12.0115
   40        CT    1  MOL     C40    40  -0.1200000   12.0115
   41        CT    1  MOL     C41    41  -0.1200000   12.0115
   42        CT    1  MOL     C42    42  -0.1200000   12.0115
   43        CT    1  MOL     C43    43  -0.1200000   12.0115
   44        CT    1  MOL     C44    44  -0.1200000   12.0115
   45        CT    1  MOL     C45    45  -0.1800000   12.0115
   46        HC    1  MOL     H46    46   0.0600000    1.0080
   47        HC    1  MOL     H47    47   0.0600000    1.0080
   48        HC    1  MOL     H48    48   0.0600000    1.0080
   49        HC    1  MOL     H49    49   0.0600000    1.0080
   50        HC    1  MOL     H50    50   0.0600000    1.0080
   51        HC    1  MOL     H51    51   0.0600000    1.0080
   52        HC    1  MOL     H52    52   0.0600000    1.0080
   53        HC    1  MOL     H53    53   0.0600000    1.0080
   54        HC    1  MOL     H54    54   0.0600000    1.0080
   55        HC    1  MOL     H55    55   0.0600000    1.0080
   56        HC    1  MOL     H56    56   0.0600000    1.0080
   57        HC    1  MOL     H57    57   0.0600000    1.0080
   58        HC    1  MOL     H58    58   0.0600000    1.0080
   59        HC    1  MOL     H59    59   0.0600000    1.0080
   60        HC    1  MOL     H60    60   0.0600000    1.0080
   61        HC    1  MOL     H61    61   0.0600000    1.0080
   62        HC    1  MOL     H62    62   0.0600000    1.0080
   63        HC    1  MOL     H63    63   0.0600000    1.0080
   64        HC    1  MOL     H64    64   0.0600000    1.0080
   65        HC    1  MOL     H65    65   0.0600000    1.0080
   66        HC    1  MOL     H66    66   0.0600000    1.0080
   67        HC    1  MOL     H67    67   0.0600000    1.0080
   68        CT    1  MOL     C68    68  -0.1200000   12.0115
   69        CT    1  MOL     C69    69  -0.0600000   12.0115
   70        CT    1  MOL     C70    70  -0.1200000   12.0115
   71        CT    1  MOL     C71    71  -0.1200000   12.0115
   72        CT    1  MOL     C72    72  -0.1200000   12.0115
   73        CT    1  MOL     C73    73  -0.1200000   12.0115
   74        CT    1  MOL     C74    74  -0.1200000   12.0115
   75        CT    1  MOL     C75    75  -0.1200000   12.0115
   76        CT    1  MOL     C76    76  -0.1200000   12.0115
   77        CT    1  MOL     C77    77  -0.1200000   12.0115
   78        CT    1  MOL     C78    78  -0.1800000   12.0115
   79        HC    1  MOL     H79    79   0.0600000    1.0080
   80        HC    1  MOL     H80    80   0.0600000    1.0080
   81        HC    1  MOL     H81    81   0.0600000    1.0080
   82        HC    1  MOL     H82    82   0.0600000    1.0080
   83        HC    1  MOL     H83    83   0.0600000    1.0080
   84        HC    1  MOL     H84    84   0.0600000    1.0080
   85        HC    1  MOL     H85    85   0.0600000    1.0080
   86        HC    1  MOL     H86    86   0.0600000    1.0080
   87        HC    1  MOL     H87    87   0.0600000    1.0080
   88        HC    1  MOL     H88    88   0.0600000    1.0080
   89        HC    1  MOL     H89    89   0.0600000    1.0080
   90        HC    1  MOL     H90    90   0.0600000    1.0080
   91        HC    1  MOL     H91    91   0.0600000    1.0080
   92        HC    1  MOL     H92    92   0.0600000    1.0080
   93        HC    1  MOL     H93    93   0.0600000    1.0080
   94        HC    1  MOL     H94    94   0.0600000    1.0080
   95        HC    1  MOL     H95    95   0.0600000    1.0080
   96        HC    1  MOL     H96    96   0.0600000    1.0080
   97        HC    1  MOL     H97    97   0.0600000    1.0080
   98        HC    1  MOL     H98    98   0.0600000    1.0080
   99        HC    1  MOL     H99    99   0.0600000    1.0080
  100        HC    1  MOL    H100   100   0.0600000    1.0080
  101        CT    1  MOL    C101   101  -0.1200000   12.0115
  102        CT    1  MOL    C102   102  -0.0600000   12.0115
  103        CT    1  MOL    C103   103  -0.1200000   12.0115
  104        CT    1  MOL    C104   104  -0.1200000   12.0115
  105        CT    1  MOL    C105   105  -0.1200000   12.0115
  106        CT    1  MOL    C106   106  -0.1200000   12.0115
  107        CT    1  MOL    C107   107  -0.1200000   12.0115
  108        CT    1  MOL    C108   108  -0.1200000   12.0115
  109        CT    1  MOL    C109   109  -0.1200000   12.0115
  110        CT    1  MOL    C110   110  -0.1200000   12.0115
  111        CT    1  MOL    C111   111  -0.1800000   12.0115
  112        HC    1  MOL    H112   112   0.0600000    1.0080
  113        HC    1  MOL    H113   113   0.0600000    1.0080
  114        HC    1  MOL    H114   114   0.0600000    1.0080
  115        HC    1  MOL    H115   115   0.0600000    1.0080
  116        HC    1  MOL    H116   116   0.0600000    1.0080
  117        HC    1  MOL    H117   117   0.0600000    1.0080
  118        HC    1  MOL    H118   118   0.0600000    1.0080
  119        HC    1  MOL    H119   119   0.0600000    1.0080
  120        HC    1  MOL    H120   120   0.0600000    1.0080
  121        HC    1  MOL    H121   121   0.0600000    1.0080
  122        HC    1  MOL    H122   122   0.0600000    1.0080
  123        HC    1  MOL    H123   123   0.0600000    1.0080
  124        HC    1  MOL    H124   124   0.0600000    1.0080
  125        HC    1  MOL    H125   125   0.0600000    1.0080
  126        HC    1  MOL    H126   126   0.0600000    1.0080
  127        HC    1  MOL    H127   127   0.0600000    1.0080
  128        HC    1  MOL    H128   128   0.0600000    1.0080
  129        HC    1  MOL    H129   129   0.0600000    1.0080
  130        HC    1  MOL    H130   130   0.0600000    1.0080
  131        HC    1  MOL    H131   131   0.0600000    1.0080
  132        HC    1  MOL    H132   132   0.0600000    1.0080
  133        HC    1  MOL    H133   133   0.0600000    1.0080
  134        CT    1  MOL    C134   134  -0.1200000   12.0115
  135        CT    1  MOL    C135   135  -0.0600000   12.0115
  136        CT    1  MOL    C136   136  -0.1200000   12.0115
  137        CT    1  MOL    C137   137  -0.1200000   12.0115
  138        CT    1  MOL    C138   138  -0.1200000   12.0115
  139        CT    1  MOL    C139   139  -0.1200000   12.0115
  140        CT    1  MOL    C140   140  -0.1200000   12.0115
  141        CT    1  MOL    C141   141  -0.1200000   12.0115
  142        CT    1  MOL    C142   142  -0.1200000   12.0115
  143        CT    1  MOL    C143   143  -0.1200000   12.0115
  144        CT    1  MOL    C144   144  -0.1800000   12.0115
  145        HC    1  MOL    H145   145   0.0600000    1.0080
  146        HC    1  MOL    H146   146   0.0600000    1.0080
  147        HC    1  MOL    H147   147   0.0600000    1.0080
  148        HC    1  MOL    H148   148   0.0600000    1.0080
  149        HC    1  MOL    H149   149   0.0600000    1.0080
  150        HC    1  MOL    H150   150   0.0600000    1.0080
  151        HC    1  MOL    H151   151   0.0600000    1.0080
  152        HC    1  MOL    H152   152   0.0600000    1.0080
  153        HC    1  MOL    H153   153   0.0600000    1.0080
  154        HC    1  MOL    H154   154   0.0600000    1.0080
  155        HC    1  MOL    H155   155   0.0600000    1.0080
  156        HC    1  MOL    H156   156   0.0600000    1.0080
  157        HC    1  MOL    H157   157   0.0600000    1.0080
  158        HC    1  MOL    H158   158   0.0600000    1.0080
  159        HC    1  MOL    H159   159   0.0600000    1.0080
  160        HC    1  MOL    H160   160   0.0600000    1.0080
  161        HC    1  MOL    H161   161   0.0600000    1.0080
  162        HC    1  MOL    H162   162   0.0600000    1.0080
  163        HC    1  MOL    H163   163   0.0600000    1.0080
  164        HC    1  MOL    H164   164   0.0600000    1.0080
  165        HC    1  MOL    H165   165   0.0600000    1.0080
  166        HC    1  MOL    H166   166   0.0600000    1.0080
  167        CT    1  MOL    C167   167  -0.1200000   12.0115
  168        CT    1  MOL    C168   168  -0.0600000   12.0115
  169        CT    1  MOL    C169   169  -0.1200000   12.0115
  170        CT    1  MOL    C170   170  -0.1200000   12.0115
  171        CT    1  MOL    C171   171  -0.1200000   12.0115
  172        CT    1  MOL    C172   172  -0.1200000   12.0115
  173        CT    1  MOL    C173   173  -0.1200000   12.0115
  174        CT    1  MOL    C174   174  -0.1200000   12.0115
  175        CT    1  MOL    C175   175  -0.1200000   12.0115
  176        CT    1  MOL    C176   176  -0.1200000   12.0115
  177        CT    1  MOL    C177   177  -0.1800000   12.0115
  178        HC    1  MOL    H178   178   0.0600000    1.0080
  179        HC    1  MOL    H179   179   0.0600000    1.0080
  180        HC    1  MOL    H180   180   0.0600000    1.0080
  181        HC    1  MOL    H181   181   0.0600000    1.0080
  182        HC    1  MOL    H182   182   0.0600000    1.0080
  183        HC    1  MOL    H183   183   0.0600000    1.0080
  184        HC    1  MOL    H184   184   0.0600000    1.0080
  185        HC    1  MOL    H185   185   0.0600000    1.0080
  186        HC    1  MOL    H186   186   0.0600000    1.0080
  187        HC    1  MOL    H187   187   0.0600000    1.0080
  188        HC    1  MOL    H188   188   0.0600000    1.0080
  189        HC    1  MOL    H189   189   0.0600000    1.0080
  190        HC    1  MOL    H190   190   0.0600000    1.0080
  191        HC    1  MOL    H191   191   0.0600000    1.0080
  192        HC    1  MOL    H192   192   0.0600000    1.0080
  193        HC    1  MOL    H193   193   0.0600000    1.0080
  194        HC    1  MOL    H194   194   0.0600000    1.0080
  195        HC    1  MOL    H195   195   0.0600000    1.0080
  196        HC    1  MOL    H196   196   0.0600000    1.0080
  197        HC    1  MOL    H197   197   0.0600000    1.0080
  198        HC    1  MOL    H198   198   0.0600000    1.0080
  199        HC    1  MOL    H199   199   0.0600000    1.0080
  200        CT    1  MOL    C200   200  -0.1200000   12.0115
  201        CT    1  MOL    C201   201  -0.0600000   12.0115
  202        CT    1  MOL    C202   202  -0.1200000   12.0115
  203        CT    1  MOL    C203   203  -0.1200000   12.0115
  204        CT    1  MOL    C204   204  -0.1200000   12.0115
  205        CT    1  MOL    C205   205  -0.1200000   12.0115
  206        CT    1  MOL    C206   206  -0.1200000   12.0115
  207        CT    1  MOL    C207   207  -0.1200000   12.0115
  208        CT    1  MOL    C208   208  -0.1200000   12.0115
  209        CT    1  MOL    C209   209  -0.1200000   12.0115
  210        CT    1  MOL    C210   210  -0.1800000   12.0115
  211        HC    1  MOL    H211   211   0.0600000    1.0080
  212        HC    1  MOL    H212   212   0.0600000    1.0080
  213        HC    1  MOL    H213   213   0.0600000    1.0080
  214        HC    1  MOL    H214   214   0.0600000    1.0080
  215        HC    1  MOL    H215   215   0.0600000    1.0080
  216        HC    1  MOL    H216   216   0.0600000    1.0080
  217        HC    1  MOL    H217   217   0.0600000    1.0080
  218        HC    1  MOL    H218   218   0.0600000    1.0080
  219        HC    1  MOL    H219   219   0.0600000    1.0080
  220        HC    1  MOL    H220   220   0.0600000    1.0080
  221        HC    1  MOL    H221   221   0.0600000    1.0080
  222        HC    1  MOL    H222   222   0.0600000    1.0080
  223        HC    1  MOL    H223   223   0.0600000    1.0080
  224        HC    1  MOL    H224   224   0.0600000    1.0080
  225        HC    1  MOL    H225   225   0.0600000    1.0080
  226        HC    1  MOL    H226   226   0.0600000    1.0080
  227        HC    1  MOL    H227   227   0.0600000    1.0080
  228        HC    1  MOL    H228   228   0.0600000    1.0080
  229        HC    1  MOL    H229   229   0.0600000    1.0080
  230        HC    1  MOL    H230   230   0.0600000    1.0080
  231        HC    1  MOL    H231   231   0.0600000    1.0080
  232        HC    1  MOL    H232   232   0.0600000    1.0080
  233        CT    1  MOL    C233   233  -0.1200000   12.0115
  234        CT    1  MOL    C234   234  -0.0600000   12.0115
  235        CT    1  MOL    C235   235  -0.1200000   12.0115
  236        CT    1  MOL    C236   236  -0.1200000   12.0115
  237        CT    1  MOL    C237   237  -0.1200000   12.0115
  238        CT    1  MOL    C238   238  -0.1200000   12.0115
  239        CT    1  MOL    C239   239  -0.1200000   12.0115
  240        CT    1  MOL    C240   240  -0.1200000   12.0115
  241        CT    1  MOL    C241   241  -0.1200000   12.0115
  242        CT    1  MOL    C242   242  -0.1200000   12.0115
  243        CT    1  MOL    C243   243  -0.1800000   12.0115
  244        HC    1  MOL    H244   244   0.0600000    1.0080
  245        HC    1  MOL    H245   245   0.0600000    1.0080
  246        HC    1  MOL    H246   246   0.0600000    1.0080
  247        HC    1  MOL    H247   247   0.0600000    1.0080
  248        HC    1  MOL    H248   248   0.0600000    1.0080
  249        HC    1  MOL    H249   249   0.0600000    1.0080
  250        HC    1  MOL    H250   250   0.0600000    1.0080
  251        HC    1  MOL    H251   251   0.0600000    1.0080
  252        HC    1  MOL    H252   252   0.0600000    1.0080
  253        HC    1  MOL    H253   253   0.0600000    1.0080
  254        HC    1  MOL    H254   254   0.0600000    1.0080
  255        HC    1  MOL    H255   255   0.0600000    1.0080
  256        HC    1  MOL    H256   256   0.0600000    1.0080
  257        HC    1  MOL    H257   257   0.0600000    1.0080
  258        HC    1  MOL    H258   258   0.0600000    1.0080
  259        HC    1  MOL    H259   259   0.0600000    1.0080
  260        HC    1  MOL    H260   260   0.0600000    1.0080
  261        HC    1  MOL    H261   261   0.0600000    1.0080
  262        HC    1  MOL    H262   262   0.0600000    1.0080
  263        HC    1  MOL    H263   263   0.0600000    1.0080
  264        HC    1  MOL    H264   264   0.0600000    1.0080
  265        HC    1  MOL    H265   265   0.0600000    1.0080
  266        CT    1  MOL    C266   266  -0.1200000   12.0115
  267        CT    1  MOL    C267   267  -0.0600000   12.0115
  268        CT    1  MOL    C268   268  -0.1200000   12.0115
  269        CT    1  MOL    C269   269  -0.1200000   12.0115
  270        CT    1  MOL    C270   270  -0.1200000   12.0115
  271        CT    1  MOL    C271   271  -0.1200000   12.0115
  272        CT    1  MOL    C272   272  -0.1200000   12.0115
  273        CT    1  MOL    C273   273  -0.1200000   12.0115
  274        CT    1  MOL    C274   274  -0.1200000   12.0115
  275        CT    1  MOL    C275   275  -0.1200000   12.0115
  276        CT    1  MOL    C276   276  -0.1800000   12.0115
  277        HC    1  MOL    H277   277   0.0600000    1.0080
  278        HC    1  MOL    H278   278   0.0600000    1.0080
  279        HC    1  MOL    H279   279   0.0600000    1.0080
  280        HC    1  MOL    H280   280   0.0600000    1.0080
  281        HC    1  MOL    H281   281   0.0600000    1.0080
  282        HC    1  MOL    H282   282   0.0600000    1.0080
  283        HC    1  MOL    H283   283   0.0600000    1.0080
  284        HC    1  MOL    H284   284   0.0600000    1.0080
  285        HC    1  MOL    H285   285   0.0600000    1.0080
  286        HC    1  MOL    H286   286   0.0600000    1.0080
  287        HC    1  MOL    H287   287   0.0600000    1.0080
  288        HC    1  MOL    H288   288   0.0600000    1.0080
  289        HC    1  MOL    H289   289   0.0600000    1.0080
  290        HC    1  MOL    H290   290   0.0600000    1.0080
  291        HC    1  MOL    H291   291   0.0600000    1.0080
  292        HC    1  MOL    H292   292   0.0600000    1.0080
  293        HC    1  MOL    H293   293   0.0600000    1.0080
  294        HC    1  MOL    H294   294   0.0600000    1.0080
  295        HC    1  MOL    H295   295   0.0600000    1.0080
  296        HC    1  MOL    H296   296   0.0600000    1.0080
  297        HC    1  MOL    H297   297   0.0600000    1.0080
  298        HC    1  MOL    H298   298   0.0600000    1.0080
  299        CT    1  MOL    C299   299  -0.1200000   12.0115
  300        CT    1  MOL    C300   300  -0.0600000   12.0115
  301        CT    1  MOL    C301   301  -0.1200000   12.0115
  302        CT    1  MOL    C302   302  -0.1200000   12.0115
  303        CT    1  MOL    C303   303  -0.1200000   12.0115
  304        CT    1  MOL    C304   304  -0.1200000   12.0115
  305        CT    1  MOL    C305   305  -0.1200000   12.0115
  306        CT    1  MOL    C306   306  -0.1200000   12.0115
  307        CT    1  MOL    C307   307  -0.1200000   12.0115
  308        CT    1  MOL    C308   308  -0.1200000   12.0115
  309        CT    1  MOL    C309   309  -0.1800000   12.0115
  310        HC    1  MOL    H310   310   0.0600000    1.0080
  311        HC    1  MOL    H311   311   0.0600000    1.0080
  312        HC    1  MOL    H312   312   0.0600000    1.0080
  313        HC    1  MOL    H313   313   0.0600000    1.0080
  314        HC    1  MOL    H314   314   0.0600000    1.0080
  315        HC    1  MOL    H315   315   0.0600000    1.0080
  316        HC    1  MOL    H316   316   0.0600000    1.0080
  317        HC    1  MOL    H317   317   0.0600000    1.0080
  318        HC    1  MOL    H318   318   0.0600000    1.0080
  319        HC    1  MOL    H319   319   0.0600000    1.0080
  320        HC    1  MOL    H320   320   0.0600000    1.0080
  321        HC    1  MOL    H321   321   0.0600000    1.0080
  322        HC    1  MOL    H322   322   0.0600000    1.0080
  323        HC    1  MOL    H323   323   0.0600000    1.0080
  324        HC    1  MOL    H324   324   0.0600000    1.0080
  325        HC    1  MOL    H325   325   0.0600000    1.0080
  326        HC    1  MOL    H326   326   0.0600000    1.0080
  327        HC    1  MOL    H327   327   0.0600000    1.0080
  328        HC    1  MOL    H328   328   0.0600000    1.0080
  329        HC    1  MOL    H329   329   0.0600000    1.0080
  330        HC    1  MOL    H330   330   0.0600000    1.0080
  331        HC    1  MOL    H331   331   0.0600000    1.0080
  332        CT    1  MOL    C332   332  -0.1200000   12.0115
  333        CT    1  MOL    C333   333  -0.0600000   12.0115
  334        CT    1  MOL    C334   334  -0.1200000   12.0115
  335        CT    1  MOL    C335   335  -0.1200000   12.0115
  336        CT    1  MOL    C336   336  -0.1200000   12.0115
  337        CT    1  MOL    C337   337  -0.1200000   12.0115
  338        CT    1  MOL    C338   338  -0.1200000   12.0115
  339        CT    1  MOL    C339   339  -0.1200000   12.0115
  340        CT    1  MOL    C340   340  -0.1200000   12.0115
  341        CT    1  MOL    C341   341  -0.1200000   12.0115
  342        CT    1  MOL    C342   342  -0.1800000   12.0115
  343        HC    1  MOL    H343   343   0.0600000    1.0080
  344        HC    1  MOL    H344   344   0.0600000    1.0080
  345        HC    1  MOL    H345   345   0.0600000    1.0080
  346        HC    1  MOL    H346   346   0.0600000    1.0080
  347        HC    1  MOL    H347   347   0.0600000    1.0080
  348        HC    1  MOL    H348   348   0.0600000    1.0080
  349        HC    1  MOL    H349   349   0.0600000    1.0080
  350        HC    1  MOL    H350   350   0.0600000    1.0080
  351        HC    1  MOL    H351   351   0.0600000    1.0080
  352        HC    1  MOL    H352   352   0.0600000    1.0080
  353        HC    1  MOL    H353   353   0.0600000    1.0080
  354        HC    1  MOL    H354   354   0.0600000    1.0080
  355        HC    1  MOL    H355   355   0.0600000    1.0080
  356        HC    1  MOL    H356   356   0.0600000    1.0080
  357        HC    1  MOL    H357   357   0.0600000    1.0080
  358        HC    1  MOL    H358   358   0.0600000    1.0080
  359        HC    1  MOL    H359   359   0.0600000    1.0080
  360        HC    1  MOL    H360   360   0.0600000    1.0080
  361        HC    1  MOL    H361   361   0.0600000    1.0080
  362        HC    1  MOL    H362   362   0.0600000    1.0080
  363        HC    1  MOL    H363   363   0.0600000    1.0080
  364        HC    1  MOL    H364   364   0.0600000    1.0080
  365        CT    1  MOL    C365   365  -0.1200000   12.0115
  366        CT    1  MOL    C366   366  -0.0600000   12.0115
  367        CT    1  MOL    C367   367  -0.1200000   12.0115
  368        CT    1  MOL    C368   368  -0.1200000   12.0115
  369        CT    1  MOL    C369   369  -0.1200000   12.0115
  370        CT    1  MOL    C370   370  -0.1200000   12.0115
  371        CT    1  MOL    C371   371  -0.1200000   12.0115
  372        CT    1  MOL    C372   372  -0.1200000   12.0115
  373        CT    1  MOL    C373   373  -0.1200000   12.0115
  374        CT    1  MOL    C374   374  -0.1200000   12.0115
  375        CT    1  MOL    C375   375  -0.1800000   12.0115
  376        HC    1  MOL    H376   376   0.0600000    1.0080
  377        HC    1  MOL    H377   377   0.0600000    1.0080
  378        HC    1  MOL    H378   378   0.0600000    1.0080
  379        HC    1  MOL    H379   379   0.0600000    1.0080
  380        HC    1  MOL    H380   380   0.0600000    1.0080
  381        HC    1  MOL    H381   381   0.0600000    1.0080
  382        HC    1  MOL    H382   382   0.0600000    1.0080
  383        HC    1  MOL    H383   383   0.0600000    1.0080
  384        HC    1  MOL    H384   384   0.0600000    1.0080
  385        HC    1  MOL    H385   385   0.0600000    1.0080
  386        HC    1  MOL    H386   386   0.0600000    1.0080
  387        HC    1  MOL    H387   387   0.0600000    1.0080
  388        HC    1  MOL    H388   388   0.0600000    1.0080
  389        HC    1  MOL    H389   389   0.0600000    1.0080
  390        HC    1  MOL    H390   390   0.0600000    1.0080
  391        HC    1  MOL    H391   391   0.0600000    1.0080
  392        HC    1  MOL    H392   392   0.0600000    1.0080
  393        HC    1  MOL    H393   393   0.0600000    1.0080
  394        HC    1  MOL    H394   394   0.0600000    1.0080
  395        HC    1  MOL    H395   395   0.0600000    1.0080
  396        HC    1  MOL    H396   396   0.0600000    1.0080
  397        HC    1  MOL    H397   397   0.0600000    1.0080
  398        CT    1  MOL    C398   398  -0.1200000   12.0115
  399        CT    1  MOL    C399   399  -0.0600000   12.0115
  400        CT    1  MOL    C400   400  -0.1200000   12.0115
  401        CT    1  MOL    C401   401  -0.1200000   12.0115
  402        CT    1  MOL    C402   402  -0.1200000   12.0115
  403        CT    1  MOL    C403   403  -0.1200000   12.0115
  404        CT    1  MOL    C404   404  -0.1200000   12.0115
  405        CT    1  MOL    C405   405  -0.1200000   12.0115
  406        CT    1  MOL    C406   406  -0.1200000   12.0115
  407        CT    1  MOL    C407   407  -0.1200000   12.0115
  408        CT    1  MOL    C408   408  -0.1800000   12.0115
  409        HC    1  MOL    H409   409   0.0600000    1.0080
  410        HC    1  MOL    H410   410   0.0600000    1.0080
  411        HC    1  MOL    H411   411   0.0600000    1.0080
  412        HC    1  MOL    H412   412   0.0600000    1.0080
  413        HC    1  MOL    H413   413   0.0600000    1.0080
  414        HC    1  MOL    H414   414   0.0600000    1.0080
  415        HC    1  MOL    H415   415   0.0600000    1.0080
  416        HC    1  MOL    H416   416   0.0600000    1.0080
  417        HC    1  MOL    H417   417   0.0600000    1.0080
  418        HC    1  MOL    H418   418   0.0600000    1.0080
  419        HC    1  MOL    H419   419   0.0600000    1.0080
  420        HC    1  MOL    H420   420   0.0600000    1.0080
  421        HC    1  MOL    H421   421   0.0600000    1.0080
  422        HC    1  MOL    H422   422   0.0600000    1.0080
  423        HC    1  MOL    H423   423   0.0600000    1.0080
  424        HC    1  MOL    H424   424   0.0600000    1.0080
  425        HC    1  MOL    H425   425   0.0600000    1.0080
  426        HC    1  MOL    H426   426   0.0600000    1.0080
  427        HC    1  MOL    H427   427   0.0600000    1.0080
  428        HC    1  MOL    H428   428   0.0600000    1.0080
  429        HC    1  MOL    H429   429   0.0600000    1.0080
  430        HC    1  MOL    H430   430   0.0600000    1.0080
  431        CT    1  MOL    C431   431  -0.1200000   12.0115
  432        CT    1  MOL    C432   432  -0.0600000   12.0115
  433        CT    1  MOL    C433   433  -0.1200000   12.0115
  434        CT    1  MOL    C434   434  -0.1200000   12.0115
  435        CT    1  MOL    C435   435  -0.1200000   12.0115
  436        CT    1  MOL    C436   436  -0.1200000   12.0115
  437        CT    1  MOL    C437   437  -0.1200000   12.0115
  438        CT    1  MOL    C438   438  -0.1200000   12.0115
  439        CT    1  MOL    C439   439  -0.1200000   12.0115
  440        CT    1  MOL    C440   440  -0.1200000   12.0115
  441        CT    1  MOL    C441   441  -0.1800000   12.0115
  442        HC    1  MOL    H442   442   0.0600000    1.0080
  443        HC    1  MOL    H443   443   0.0600000    1.0080
  444        HC    1  MOL    H444   444   0.0600000    1.0080
  445        HC    1  MOL    H445   445   0.0600000    1.0080
  446        HC    1  MOL    H446   446   0.0600000    1.0080
  447        HC    1  MOL    H447   447   0.0600000    1.0080
  448        HC    1  MOL    H448   448   0.0600000    1.0080
  449        HC    1  MOL    H449   449   0.0600000    1.0080
  450        HC    1  MOL    H450   450   0.0600000    1.0080
  451        HC    1  MOL    H451   451   0.0600000    1.0080
  452        HC    1  MOL    H452   452   0.0600000    1.0080
  453        HC    1  MOL    H453   453   0.0600000    1.0080
  454        HC    1  MOL    H454   454   0.0600000    1.0080
  455        HC    1  MOL    H455   455   0.0600000    1.0080
  456        HC    1  MOL    H456   456   0.0600000    1.0080
  457        HC    1  MOL    H457   457   0.0600000    1.0080
  458        HC    1  MOL    H458   458   0.0600000    1.0080
  459        HC    1  MOL    H459   459   0.0600000    1.0080
  460        HC    1  MOL    H460   460   0.0600000    1.0080
  461        HC    1  MOL    H461   461   0.0600000    1.0080
  462        HC    1  MOL    H462   462   0.0600000    1.0080
  463        HC    1  MOL    H463   463   0.0600000    1.0080
  464        CT    1  MOL    C464   464  -0.1200000   12.0115
  465        CT    1  MOL    C465   465  -0.0600000   12.0115
  466        CT    1  MOL    C466   466  -0.1200000   12.0115
  467        CT    1  MOL    C467   467  -0.1200000   12.0115
  468        CT    1  MOL    C468   468  -0.1200000   12.0115
  469        CT    1  MOL    C469   469  -0.1200000   12.0115
  470        CT    1  MOL    C470   470  -0.1200000   12.0115
  471        CT    1  MOL    C471   471  -0.1200000   12.0115
  472        CT    1  MOL    C472   472  -0.1200000   12.0115
  473        CT    1  MOL    C473   473  -0.1200000   12.0115
  474        CT    1  MOL    C474   474  -0.1800000   12.0115
  475        HC    1  MOL    H475   475   0.0600000    1.0080
  476        HC    1  MOL    H476   476   0.0600000    1.0080
  477        HC    1  MOL    H477   477   0.0600000    1.0080
  478        HC    1  MOL    H478   478   0.0600000    1.0080
  479        HC    1  MOL    H479   479   0.0600000    1.0080
  480        HC    1  MOL    H480   480   0.0600000    1.0080
  481        HC    1  MOL    H481   481   0.0600000    1.0080
  482        HC    1  MOL    H482   482   0.0600000    1.0080
  483        HC    1  MOL    H483   483   0.0600000    1.0080
  484        HC    1  MOL    H484   484   0.0600000    1.0080
  485        HC    1  MOL    H485   485   0.0600000    1.0080
  486        HC    1  MOL    H486   486   0.0600000    1.0080
  487        HC    1  MOL    H487   487   0.0600000    1.0080
  488        HC    1  MOL    H488   488   0.0600000    1.0080
  489        HC    1  MOL    H489   489   0.0600000    1.0080
  490        HC    1  MOL    H490   490   0.0600000    1.0080
  491        HC    1  MOL    H491   491   0.0600000    1.0080
  492        HC    1  MOL    H492   492   0.0600000    1.0080
  493        HC    1  MOL    H493   493   0.0600000    1.0080
  494        HC    1  MOL    H494   494   0.0600000    1.0080
  495        HC    1  MOL    H495   495   0.0600000    1.0080
  496        HC    1  MOL    H496   496   0.0600000    1.0080
  497        CT    1  MOL    C497   497  -0.1200000   12.0115
  498        CT    1  MOL    C498   498  -0.0600000   12.0115
  499        CT    1  MOL    C499   499  -0.1200000   12.0115
  500        CT    1  MOL    C500   500  -0.1200000   12.0115
  501        CT    1  MOL    C501   501  -0.1200000   12.0115
  502        CT    1  MOL    C502   502  -0.1200000   12.0115
  503        CT    1  MOL    C503   503  -0.1200000   12.0115
  504        CT    1  MOL    C504   504  -0.1200000   12.0115
  505        CT    1  MOL    C505   505  -0.1200000   12.0115
  506        CT    1  MOL    C506   506  -0.1200000   12.0115
  507        CT    1  MOL    C507   507  -0.1800000   12.0115
  508        HC    1  MOL    H508   508   0.0600000    1.0080
  509        HC    1  MOL    H509   509   0.0600000    1.0080
  510        HC    1  MOL    H510   510   0.0600000    1.0080
  511        HC    1  MOL    H511   511   0.0600000    1.0080
  512        HC    1  MOL    H512   512   0.0600000    1.0080
  513        HC    1  MOL    H513   513   0.0600000    1.0080
  514        HC    1  MOL    H514   514   0.0600000    1.0080
  515        HC    1  MOL    H515   515   0.0600000    1.0080
  516        HC    1  MOL    H516   516   0.0600000    1.0080
  517        HC    1  MOL    H517   517   0.0600000    1.0080
  518        HC    1  MOL    H518   518   0.0600000    1.0080
  519        HC    1  MOL    H519   519   0.0600000    1.0080
  520        HC    1  MOL    H520   520   0.0600000    1.0080
  521        HC    1  MOL    H521   521   0.0600000    1.0080
  522        HC    1  MOL    H522   522   0.0600000    1.0080
  523        HC    1  MOL    H523   523   0.0600000    1.0080
  524        HC    1  MOL    H524   524   0.0600000    1.0080
  525        HC    1  MOL    H525   525   0.0600000    1.0080
  526        HC    1  MOL    H526   526   0.0600000    1.0080
  527        HC    1  MOL    H527   527   0.0600000    1.0080
  528        HC    1  MOL    H528   528   0.0600000    1.0080
  529        HC    1  MOL    H529   529   0.0600000    1.0080
  530        CT    1  MOL    C530   530  -0.1200000   12.0115
  531        CT    1  MOL    C531   531  -0.0600000   12.0115
  532        CT    1  MOL    C532   532  -0.1200000   12.0115
  533        CT    1  MOL    C533   533  -0.1200000   12.0115
  534        CT    1  MOL    C534   534  -0.1200000   12.0115
  535        CT    1  MOL    C535   535  -0.1200000   12.0115
  536        CT    1  MOL    C536   536  -0.1200000   12.0115
  537        CT    1  MOL    C537   537  -0.1200000   12.0115
  538        CT    1  MOL    C538   538  -0.1200000   12.0115
  539        CT    1  MOL    C539   539  -0.1200000   12.0115
  540        CT    1  MOL    C540   540  -0.1800000   12.0115
  541        HC    1  MOL    H541   541   0.0600000    1.0080
  542        HC    1  MOL    H542   542   0.0600000    1.0080
  543        HC    1  MOL    H543   543   0.0600000    1.0080
  544        HC    1  MOL    H544   544   0.0600000    1.0080
  545        HC    1  MOL    H545   545   0.0600000    1.0080
  546        HC    1  MOL    H546   546   0.0600000    1.0080
  547        HC    1  MOL    H547   547   0.0600000    1.0080
  548        HC    1  MOL    H548   548   0.0600000    1.0080
  549        HC    1  MOL    H549   549   0.0600000    1.0080
  550        HC    1  MOL    H550   550   0.0600000    1.0080
  551        HC    1  MOL    H551   551   0.0600000    1.0080
  552        HC    1  MOL    H552   552   0.0600000    1.0080
  553        HC    1  MOL    H553   553   0.0600000    1.0080
  554        HC    1  MOL    H554   554   0.0600000    1.0080
  555        HC    1  MOL    H555   555   0.0600000    1.0080
  556        HC    1  MOL    H556   556   0.0600000    1.0080
  557        HC    1  MOL    H557   557   0.0600000    1.0080
  558        HC    1  MOL    H558   558   0.0600000    1.0080
  559        HC    1  MOL    H559   559   0.0600000    1.0080
  560        HC    1  MOL    H560   560   0.0600000    1.0080
  561        HC    1  MOL    H561   561   0.0600000    1.0080
  562        HC    1  MOL    H562   562   0.0600000    1.0080
  563        CT    1  MOL    C563   563  -0.1200000   12.0115
  564        CT    1  MOL    C564   564  -0.0600000   12.0115
  565        CT    1  MOL    C565   565  -0.1200000   12.0115
  566        CT    1  MOL    C566   566  -0.1200000   12.0115
  567        CT    1  MOL    C567   567  -0.1200000   12.0115
  568        CT    1  MOL    C568   568  -0.1200000   12.0115
  569        CT    1  MOL    C569   569  -0.1200000   12.0115
  570        CT    1  MOL    C570   570  -0.1200000   12.0115
  571        CT    1  MOL    C571   571  -0.1200000   12.0115
  572        CT    1  MOL    C572   572  -0.1200000   12.0115
  573        CT    1  MOL    C573   573  -0.1800000   12.0115
  574        HC    1  MOL    H574   574   0.0600000    1.0080
  575        HC    1  MOL    H575   575   0.0600000    1.0080
  576        HC    1  MOL    H576   576   0.0600000    1.0080
  577        HC    1  MOL    H577   577   0.0600000    1.0080
  578        HC    1  MOL    H578   578   0.0600000    1.0080
  579        HC    1  MOL    H579   579   0.0600000    1.0080
  580        HC    1  MOL    H580   580   0.0600000    1.0080
  581        HC    1  MOL    H581   581   0.0600000    1.0080
  582        HC    1  MOL    H582   582   0.0600000    1.0080
  583        HC    1  MOL    H583   583   0.0600000    1.0080
  584        HC    1  MOL    H584   584   0.0600000    1.0080
  585        HC    1  MOL    H585   585   0.0600000    1.0080
  586        HC    1  MOL    H586   586   0.0600000    1.0080
  587        HC    1  MOL    H587   587   0.0600000    1.0080
  588        HC    1  MOL    H588   588   0.0600000    1.0080
  589        HC    1  MOL    H589   589   0.0600000    1.0080
  590        HC    1  MOL    H590   590   0.0600000    1.0080
  591        HC    1  MOL    H591   591   0.0600000    1.0080
  592        HC    1  MOL    H592   592   0.0600000    1.0080
  593        HC    1  MOL    H593   593   0.0600000    1.0080
  594        HC    1  MOL    H594   594   0.0600000    1.0080
  595        HC    1  MOL    H595   595   0.0600000    1.0080
  596        CT    1  MOL    C596   596  -0.1200000   12.0115
  597        CT    1  MOL    C597   597  -0.0600000   12.0115
  598        CT    1  MOL    C598   598  -0.1200000   12.0115
  599        CT    1  MOL    C599   599  -0.1200000   12.0115
  600        CT    1  MOL    C600   600  -0.1200000   12.0115
  601        CT    1  MOL    C601   601  -0.1200000   12.0115
  602        CT    1  MOL    C602   602  -0.1200000   12.0115
  603        CT    1  MOL    C603   603  -0.1200000   12.0115
  604        CT    1  MOL    C604   604  -0.1200000   12.0115
  605        CT    1  MOL    C605   605  -0.1200000   12.0115
  606        CT    1  MOL    C606   606  -0.1800000   12.0115
  607        HC    1  MOL    H607   607   0.0600000    1.0080
  608        HC    1  MOL    H608   608   0.0600000    1.0080
  609        HC    1  MOL    H609   609   0.0600000    1.0080
  610        HC    1  MOL    H610   610   0.0600000    1.0080
  611        HC    1  MOL    H611   611   0.0600000    1.0080
  612        HC    1  MOL    H612   612   0.0600000    1.0080
  613        HC    1  MOL    H613   613   0.0600000    1.0080
  614        HC    1  MOL    H614   614   0.0600000    1.0080
  615        HC    1  MOL    H615   615   0.0600000    1.0080
  616        HC    1  MOL    H616   616   0.0600000    1.0080
  617        HC    1  MOL    H617   617   0.0600000    1.0080
  618        HC    1  MOL    H618   618   0.0600000    1.0080
  619        HC    1  MOL    H619   619   0.0600000    1.0080
  620        HC    1  MOL    H620   620   0.0600000    1.0080
  621        HC    1  MOL    H621   621   0.0600000    1.0080
  622        HC    1  MOL    H622   622   0.0600000    1.0080
  623        HC    1  MOL    H623   623   0.0600000    1.0080
  624        HC    1  MOL    H624   624   0.0600000    1.0080
  625        HC    1  MOL    H625   625   0.0600000    1.0080
  626        HC    1  MOL    H626   626   0.0600000    1.0080
  627        HC    1  MOL    H627   627   0.0600000    1.0080
  628        HC    1  MOL    H628   628   0.0600000    1.0080
  629        CT    1  MOL    C629   629  -0.1200000   12.0115
  630        CT    1  MOL    C630   630  -0.1200000   12.0115
  631        CT    1  MOL    C631   631  -0.1200000   12.0115
  632        CT    1  MOL    C632   632  -0.1200000   12.0115
  633        CT    1  MOL    C633   633  -0.1200000   12.0115
  634        CT    1  MOL    C634   634  -0.1200000   12.0115
  635        CT    1  MOL    C635   635  -0.1200000   12.0115
  636        CT    1  MOL    C636   636  -0.1200000   12.0115
  637        CT    1  MOL    C637   637  -0.1200000   12.0115
  638        CT    1  MOL    C638   638  -0.1200000   12.0115
  639        CT    1  MOL    C639   639  -0.1800000   12.0115
  640        HC    1  MOL    H640   640   0.0600000    1.0080
  641        HC    1  MOL    H641   641   0.0600000    1.0080
  642        HC    1  MOL    H642   642   0.0600000    1.0080
  643        HC    1  MOL    H643   643   0.0600000    1.0080
  644        HC    1  MOL    H644   644   0.0600000    1.0080
  645        HC    1  MOL    H645   645   0.0600000    1.0080
  646        HC    1  MOL    H646   646   0.0600000    1.0080
  647        HC    1  MOL    H647   647   0.0600000    1.0080
  648        HC    1  MOL    H648   648   0.0600000    1.0080
  649        HC    1  MOL    H649   649   0.0600000    1.0080
  650        HC    1  MOL    H650   650   0.0600000    1.0080
  651        HC    1  MOL    H651   651   0.0600000    1.0080
  652        HC    1  MOL    H652   652   0.0600000    1.0080
  653        HC    1  MOL    H653   653   0.0600000    1.0080
  654        HC    1  MOL    H654   654   0.0600000    1.0080
  655        HC    1  MOL    H655   655   0.0600000    1.0080
  656        HC    1  MOL    H656   656   0.0600000    1.0080
  657        HC    1  MOL    H657   657   0.0600000    1.0080
  658        HC    1  MOL    H658   658   0.0600000    1.0080
  659        HC    1  MOL    H659   659   0.0600000    1.0080
  660        HC    1  MOL    H660   660   0.0600000    1.0080
  661        HC    1  MOL    H661   661   0.0600000    1.0080
  662        HC    1  MOL    H662   662   0.0600000    1.0080

[ bonds ]
      1      2   1      0.1529 224262.4000
      1     12   1      0.1090 284512.0000
      1     13   1      0.1090 284512.0000
      1     34   1      0.1090 284512.0000
      2      3   1      0.1529 224262.4000
      2     14   1      0.1090 284512.0000
      2     35   1      0.1529 224262.4000
      3      4   1      0.1529 224262.4000
      3     15   1      0.1090 284512.0000
      3     16   1      0.1090 284512.0000
      4      5   1      0.1529 224262.4000
      4     17   1      0.1090 284512.0000
      4     18   1      0.1090 284512.0000
      5      6   1      0.1529 224262.4000
      5     19   1      0.1090 284512.0000
      5     20   1      0.1090 284512.0000
      6      7   1      0.1529 224262.4000
      6     21   1      0.1090 284512.0000
      6     22   1      0.1090 284512.0000
      7      8   1      0.1529 224262.4000
      7     23   1      0.1090 284512.0000
      7     24   1      0.1090 284512.0000
      8      9   1      0.1529 224262.4000
      8     25   1      0.1090 284512.0000
      8     26   1      0.1090 284512.0000
      9     10   1      0.1529 224262.4000
      9     27   1      0.1090 284512.0000
      9     28   1      0.1090 284512.0000
     10     11   1      0.1529 224262.4000
     10     29   1      0.1090 284512.0000
     10     30   1      0.1090 284512.0000
     11     31   1      0.1090 284512.0000
     11     32   1      0.1090 284512.0000
     11     33   1      0.1090 284512.0000
     35     36   1      0.1529 224262.4000
     35     46   1      0.1090 284512.0000
     35     47   1      0.1090 284512.0000
     36     37   1      0.1529 224262.4000
     36     48   1      0.1090 284512.0000
     36     68   1      0.1529 224262.4000
     37     38   1      0.1529 224262.4000
     37     49   1      0.1090 284512.0000
     37     50   1      0.1090 284512.0000
     38     39   1      0.1529 224262.4000
     38     51   1      0.1090 284512.0000
     38     52   1      0.1090 284512.0000
     39     40   1      0.1529 224262.4000
     39     53   1      0.1090 284512.0000
     39     54   1      0.1090 284512.0000
     40     41   1      0.1529 224262.4000
     40     55   1      0.1090 284512.0000
     40     56   1      0.1090 284512.0000
     41     42   1      0.1529 224262.4000
     41     57   1      0.1090 284512.0000
     41     58   1      0.1090 284512.0000
     42     43   1      0.1529 224262.4000
     42     59   1      0.1090 284512.0000
     42     60   1      0.1090 284512.0000
     43     44   1      0.1529 224262.4000
     43     61   1      0.1090 284512.0000
     43     62   1      0.1090 284512.0000
     44     45   1      0.1529 224262.4000
     44     63   1      0.1090 284512.0000
     44     64   1      0.1090 284512.0000
     45     65   1      0.1090 284512.0000
     45     66   1      0.1090 284512.0000
     45     67   1      0.1090 284512.0000
     68     69   1      0.1529 224262.4000
     68     79   1      0.1090 284512.0000
     68     80   1      0.1090 284512.0000
     69     70   1      0.1529 224262.4000
     69     81   1      0.1090 284512.0000
     69    101   1      0.1529 224262.4000
     70     71   1      0.1529 224262.4000
     70     82   1      0.1090 284512.0000
     70     83   1      0.1090 284512.0000
     71     72   1      0.1529 224262.4000
     71     84   1      0.1090 284512.0000
     71     85   1      0.1090 284512.0000
     72     73   1      0.1529 224262.4000
     72     86   1      0.1090 284512.0000
     72     87   1      0.1090 284512.0000
     73     74   1      0.1529 224262.4000
     73     88   1      0.1090 284512.0000
     73     89   1      0.1090 284512.0000
     74     75   1      0.1529 224262.4000
     74     90   1      0.1090 284512.0000
     74     91   1      0.1090 284512.0000
     75     76   1      0.1529 224262.4000
     75     92   1      0.1090 284512.0000
     75     93   1      0.1090 284512.0000
     76     77   1      0.1529 224262.4000
     76     94   1      0.1090 284512.0000
     76     95   1      0.1090 284512.0000
     77     78   1      0.1529 224262.4000
     77     96   1      0.1090 284512.0000
     77     97   1      0.1090 284512.0000
     78     98   1      0.1090 284512.0000
     78     99   1      0.1090 284512.0000
     78    100   1      0.1090 284512.0000
    101    102   1      0.1529 224262.4000
    101    112   1      0.1090 284512.0000
    101    113   1      0.1090 284512.0000
    102    103   1      0.1529 224262.4000
    102    114   1      0.1090 284512.0000
    102    134   1      0.1529 224262.4000
    103    104   1      0.1529 224262.4000
    103    115   1      0.1090 284512.0000
    103    116   1      0.1090 284512.0000
    104    105   1      0.1529 224262.4000
    104    117   1      0.1090 284512.0000
    104    118   1      0.1090 284512.0000
    105    106   1      0.1529 224262.4000
    105    119   1      0.1090 284512.0000
    105    120   1      0.1090 284512.0000
    106    107   1      0.1529 224262.4000
    106    121   1      0.1090 284512.0000
    106    122   1      0.1090 284512.0000
    107    108   1      0.1529 224262.4000
    107    123   1      0.1090 284512.0000
    107    124   1      0.1090 284512.0000
    108    109   1      0.1529 224262.4000
    108    125   1      0.1090 284512.0000
    108    126   1      0.1090 284512.0000
    109    110   1      0.1529 224262.4000
    109    127   1      0.1090 284512.0000
    109    128   1      0.1090 284512.0000
    110    111   1      0.1529 224262.4000
    110    129   1      0.1090 284512.0000
    110    130   1      0.1090 284512.0000
    111    131   1      0.1090 284512.0000
    111    132   1      0.1090 284512.0000
    111    133   1      0.1090 284512.0000
    134    135   1      0.1529 224262.4000
    134    145   1      0.1090 284512.0000
    134    146   1      0.1090 284512.0000
    135    136   1      0.1529 224262.4000
    135    147   1      0.1090 284512.0000
    135    167   1      0.1529 224262.4000
    136    137   1      0.1529 224262.4000
    136    148   1      0.1090 284512.0000
    136    149   1      0.1090 284512.0000
    137    138   1      0.1529 224262.4000
    137    150   1      0.1090 284512.0000
    137    151   1      0.1090 284512.0000
    138    139   1      0.1529 224262.4000
    138    152   1      0.1090 284512.0000
    138    153   1      0.1090 284512.0000
    139    140   1      0.1529 224262.4000
    139    154   1      0.1090 284512.0000
    139    155   1      0.1090 284512.0000
    140    141   1      0.1529 224262.4000
    140    156   1      0.1090 284512.0000
    140    157   1      0.1090 284512.0000
    141    142   1      0.1529 224262.4000
    141    158   1      0.1090 284512.0000
    141    159   1      0.1090 284512.0000
    142    143   1      0.1529 224262.4000
    142    160   1      0.1090 284512.0000
    142    161   1      0.1090 284512.0000
    143    144   1      0.1529 224262.4000
    143    162   1      0.1090 284512.0000
    143    163   1      0.1090 284512.0000
    144    164   1      0.1090 284512.0000
    144    165   1      0.1090 284512.0000
    144    166   1      0.1090 284512.0000
    167    168   1      0.1529 224262.4000
    167    178   1      0.1090 284512.0000
    167    179   1      0.1090 284512.0000
    168    169   1      0.1529 224262.4000
    168    180   1      0.1090 284512.0000
    168    200   1      0.1529 224262.4000
    169    170   1      0.1529 224262.4000
    169    181   1      0.1090 284512.0000
    169    182   1      0.1090 284512.0000
    170    171   1      0.1529 224262.4000
    170    183   1      0.1090 284512.0000
    170    184   1      0.1090 284512.0000
    171    172   1      0.1529 224262.4000
    171    185   1      0.1090 284512.0000
    171    186   1      0.1090 284512.0000
    172    173   1      0.1529 224262.4000
    172    187   1      0.1090 284512.0000
    172    188   1      0.1090 284512.0000
    173    174   1      0.1529 224262.4000
    173    189   1      0.1090 284512.0000
    173    190   1      0.1090 284512.0000
    174    175   1      0.1529 224262.4000
    174    191   1      0.1090 284512.0000
    174    192   1      0.1090 284512.0000
    175    176   1      0.1529 224262.4000
    175    193   1      0.1090 284512.0000
    175    194   1      0.1090 284512.0000
    176    177   1      0.1529 224262.4000
    176    195   1      0.1090 284512.0000
    176    196   1      0.1090 284512.0000
    177    197   1      0.1090 284512.0000
    177    198   1      0.1090 284512.0000
    177    199   1      0.1090 284512.0000
    200    201   1      0.1529 224262.4000
    200    211   1      0.1090 284512.0000
    200    212   1      0.1090 284512.0000
    201    202   1      0.1529 224262.4000
    201    213   1      0.1090 284512.0000
    201    233   1      0.1529 224262.4000
    202    203   1      0.1529 224262.4000
    202    214   1      0.1090 284512.0000
    202    215   1      0.1090 284512.0000
    203    204   1      0.1529 224262.4000
    203    216   1      0.1090 284512.0000
    203    217   1      0.1090 284512.0000
    204    205   1      0.1529 224262.4000
    204    218   1      0.1090 284512.0000
    204    219   1      0.1090 284512.0000
    205    206   1      0.1529 224262.4000
    205    220   1      0.1090 284512.0000
    205    221   1      0.1090 284512.0000
    206    207   1      0.1529 224262.4000
    206    222   1      0.1090 284512.0000
    206    223   1      0.1090 284512.0000
    207    208   1      0.1529 224262.4000
    207    224   1      0.1090 284512.0000
    207    225   1      0.1090 284512.0000
    208    209   1      0.1529 224262.4000
    208    226   1      0.1090 284512.0000
    208    227   1      0.1090 284512.0000
    209    210   1      0.1529 224262.4000
    209    228   1      0.1090 284512.0000
    209    229   1      0.1090 284512.0000
    210    230   1      0.1090 284512.0000
    210    231   1      0.1090 284512.0000
    210    232   1      0.1090 284512.0000
    233    234   1      0.1529 224262.4000
    233    244   1      0.1090 284512.0000
    233    245   1      0.1090 284512.0000
    234    235   1      0.1529 224262.4000
    234    246   1      0.1090 284512.0000
    234    266   1      0.1529 224262.4000
    235    236   1      0.1529 224262.4000
    235    247   1      0.1090 284512.0000
    235    248   1      0.1090 284512.0000
    236    237   1      0.1529 224262.4000
    236    249   1      0.1090 284512.0000
    236    250   1      0.1090 284512.0000
    237    238   1      0.1529 224262.4000
    237    251   1      0.1090 284512.0000
    237    252   1      0.1090 284512.0000
    238    239   1      0.1529 224262.4000
    238    253   1      0.1090 284512.0000
    238    254   1      0.1090 284512.0000
    239    240   1      0.1529 224262.4000
    239    255   1      0.1090 284512.0000
    239    256   1      0.1090 284512.0000
    240    241   1      0.1529 224262.4000
    240    257   1      0.1090 284512.0000
    240    258   1      0.1090 284512.0000
    241    242   1      0.1529 224262.4000
    241    259   1      0.1090 284512.0000
    241    260   1      0.1090 284512.0000
    242    243   1      0.1529 224262.4000
    242    261   1      0.1090 284512.0000
    242    262   1      0.1090 284512.0000
    243    263   1      0.1090 284512.0000
    243    264   1      0.1090 284512.0000
    243    265   1      0.1090 284512.0000
    266    267   1      0.1529 224262.4000
    266    277   1      0.1090 284512.0000
    266    278   1      0.1090 284512.0000
    267    268   1      0.1529 224262.4000
    267    279   1      0.1090 284512.0000
    267    299   1      0.1529 224262.4000
    268    269   1      0.1529 224262.4000
    268    280   1      0.1090 284512.0000
    268    281   1      0.1090 284512.0000
    269    270   1      0.1529 224262.4000
    269    282   1      0.1090 284512.0000
    269    283   1      0.1090 284512.0000
    270    271   1      0.1529 224262.4000
    270    284   1      0.1090 284512.0000
    270    285   1      0.1090 284512.0000
    271    272   1      0.1529 224262.4000
    271    286   1      0.1090 284512.0000
    271    287   1      0.1090 284512.0000
    272    273   1      0.1529 224262.4000
    272    288   1      0.1090 284512.0000
    272    289   1      0.1090 284512.0000
    273    274   1      0.1529 224262.4000
    273    290   1      0.1090 284512.0000
    273    291   1      0.1090 284512.0000
    274    275   1      0.1529 224262.4000
    274    292   1      0.1090 284512.0000
    274    293   1      0.1090 284512.0000
    275    276   1      0.1529 224262.4000
    275    294   1      0.1090 284512.0000
    275    295   1      0.1090 284512.0000
    276    296   1      0.1090 284512.0000
    276    297   1      0.1090 284512.0000
    276    298   1      0.1090 284512.0000
    299    300   1      0.1529 224262.4000
    299    310   1      0.1090 284512.0000
    299    311   1      0.1090 284512.0000
    300    301   1      0.1529 224262.4000
    300    312   1      0.1090 284512.0000
    300    332   1      0.1529 224262.4000
    301    302   1      0.1529 224262.4000
    301    313   1      0.1090 284512.0000
    301    314   1      0.1090 284512.0000
    302    303   1      0.1529 224262.4000
    302    315   1      0.1090 284512.0000
    302    316   1      0.1090 284512.0000
    303    304   1      0.1529 224262.4000
    303    317   1      0.1090 284512.0000
    303    318   1      0.1090 284512.0000
    304    305   1      0.1529 224262.4000
    304    319   1      0.1090 284512.0000
    304    320   1      0.1090 284512.0000
    305    306   1      0.1529 224262.4000
    305    321   1      0.1090 284512.0000
    305    322   1      0.1090 284512.0000
    306    307   1      0.1529 224262.4000
    306    323   1      0.1090 284512.0000
    306    324   1      0.1090 284512.0000
    307    308   1      0.1529 224262.4000
    307    325   1      0.1090 284512.0000
    307    326   1      0.1090 284512.0000
    308    309   1      0.1529 224262.4000
    308    327   1      0.1090 284512.0000
    308    328   1      0.1090 284512.0000
    309    329   1      0.1090 284512.0000
    309    330   1      0.1090 284512.0000
    309    331   1      0.1090 284512.0000
    332    333   1      0.1529 224262.4000
    332    343   1      0.1090 284512.0000
    332    344   1      0.1090 284512.0000
    333    334   1      0.1529 224262.4000
    333    345   1      0.1090 284512.0000
    333    365   1      0.1529 224262.4000
    334    335   1      0.1529 224262.4000
    334    346   1      0.1090 284512.0000
    334    347   1      0.1090 284512.0000
    335    336   1      0.1529 224262.4000
    335    348   1      0.1090 284512.0000
    335    349   1      0.1090 284512.0000
    336    337   1      0.1529 224262.4000
    336    350   1      0.1090 284512.0000
    336    351   1      0.1090 284512.0000
    337    338   1      0.1529 224262.4000
    337    352   1      0.1090 284512.0000
    337    353   1      0.1090 284512.0000
    338    339   1      0.1529 224262.4000
    338    354   1      0.1090 284512.0000
    338    355   1      0.1090 284512.0000
    339    340   1      0.1529 224262.4000
    339    356   1      0.1090 284512.0000
    339    357   1      0.1090 284512.0000
    340    341   1      0.1529 224262.4000
    340    358   1      0.1090 284512.0000
    340    359   1      0.1090 284512.0000
    341    342   1      0.1529 224262.4000
    341    360   1      0.1090 284512.0000
    341    361   1      0.1090 284512.0000
    342    362   1      0.1090 284512.0000
    342    363   1      0.1090 284512.0000
    342    364   1      0.1090 284512.0000
    365    366   1      0.1529 224262.4000
    365    376   1      0.1090 284512.0000
    365    377   1      0.1090 284512.0000
    366    367   1      0.1529 224262.4000
    366    378   1      0.1090 284512.0000
    366    398   1      0.1529 224262.4000
    367    368   1      0.1529 224262.4000
    367    379   1      0.1090 284512.0000
    367    380   1      0.1090 284512.0000
    368    369   1      0.1529 224262.4000
    368    381   1      0.1090 284512.0000
    368    382   1      0.1090 284512.0000
    369    370   1      0.1529 224262.4000
    369    383   1      0.1090 284512.0000
    369    384   1      0.1090 284512.0000
    370    371   1      0.1529 224262.4000
    370    385   1      0.1090 284512.0000
    370    386   1      0.1090 284512.0000
    371    372   1      0.1529 224262.4000
    371    387   1      0.1090 284512.0000
    371    388   1      0.1090 284512.0000
    372    373   1      0.1529 224262.4000
    372    389   1      0.1090 284512.0000
    372    390   1      0.1090 284512.0000
    373    374   1      0.1529 224262.4000
    373    391   1      0.1090 284512.0000
    373    392   1      0.1090 284512.0000
    374    375   1      0.1529 224262.4000
    374    393   1      0.1090 284512.0000
    374    394   1      0.1090 284512.0000
    375    395   1      0.1090 284512.0000
    375    396   1      0.1090 284512.0000
    375    397   1      0.1090 284512.0000
    398    399   1      0.1529 224262.4000
    398    409   1      0.1090 284512.0000
    398    410   1      0.1090 284512.0000
    399    400   1      0.1529 224262.4000
    399    411   1      0.1090 284512.0000
    399    431   1      0.1529 224262.4000
    400    401   1      0.1529 224262.4000
    400    412   1      0.1090 284512.0000
    400    413   1      0.1090 284512.0000
    401    402   1      0.1529 224262.4000
    401    414   1      0.1090 284512.0000
    401    415   1      0.1090 284512.0000
    402    403   1      0.1529 224262.4000
    402    416   1      0.1090 284512.0000
    402    417   1      0.1090 284512.0000
    403    404   1      0.1529 224262.4000
    403    418   1      0.1090 284512.0000
    403    419   1      0.1090 284512.0000
    404    405   1      0.1529 224262.4000
    404    420   1      0.1090 284512.0000
    404    421   1      0.1090 284512.0000
    405    406   1      0.1529 224262.4000
    405    422   1      0.1090 284512.0000
    405    423   1      0.1090 284512.0000
    406    407   1      0.1529 224262.4000
    406    424   1      0.1090 284512.0000
    406    425   1      0.1090 284512.0000
    407    408   1      0.1529 224262.4000
    407    426   1      0.1090 284512.0000
    407    427   1      0.1090 284512.0000
    408    428   1      0.1090 284512.0000
    408    429   1      0.1090 284512.0000
    408    430   1      0.1090 284512.0000
    431    432   1      0.1529 224262.4000
    431    442   1      0.1090 284512.0000
    431    443   1      0.1090 284512.0000
    432    433   1      0.1529 224262.4000
    432    444   1      0.1090 284512.0000
    432    464   1      0.1529 224262.4000
    433    434   1      0.1529 224262.4000
    433    445   1      0.1090 284512.0000
    433    446   1      0.1090 284512.0000
    434    435   1      0.1529 224262.4000
    434    447   1      0.1090 284512.0000
    434    448   1      0.1090 284512.0000
    435    436   1      0.1529 224262.4000
    435    449   1      0.1090 284512.0000
    435    450   1      0.1090 284512.0000
    436    437   1      0.1529 224262.4000
    436    451   1      0.1090 284512.0000
    436    452   1      0.1090 284512.0000
    437    438   1      0.1529 224262.4000
    437    453   1      0.1090 284512.0000
    437    454   1      0.1090 284512.0000
    438    439   1      0.1529 224262.4000
    438    455   1      0.1090 284512.0000
    438    456   1      0.1090 284512.0000
    439    440   1      0.1529 224262.4000
    439    457   1      0.1090 284512.0000
    439    458   1      0.1090 284512.0000
    440    441   1      0.1529 224262.4000
    440    459   1      0.1090 284512.0000
    440    460   1      0.1090 284512.0000
    441    461   1      0.1090 284512.0000
    441    462   1      0.1090 284512.0000
    441    463   1      0.1090 284512.0000
    464    465   1      0.1529 224262.4000
    464    475   1      0.1090 284512.0000
    464    476   1      0.1090 284512.0000
    465    466   1      0.1529 224262.4000
    465    477   1      0.1090 284512.0000
    465    497   1      0.1529 224262.4000
    466    467   1      0.1529 224262.4000
    466    478   1      0.1090 284512.0000
    466    479   1      0.1090 284512.0000
    467    468   1      0.1529 224262.4000
    467    480   1      0.1090 284512.0000
    467    481   1      0.1090 284512.0000
    468    469   1      0.1529 224262.4000
    468    482   1      0.1090 284512.0000
    468    483   1      0.1090 284512.0000
    469    470   1      0.1529 224262.4000
    469    484   1      0.1090 284512.0000
    469    485   1      0.1090 284512.0000
    470    471   1      0.1529 224262.4000
    470    486   1      0.1090 284512.0000
    470    487   1      0.1090 284512.0000
    471    472   1      0.1529 224262.4000
    471    488   1      0.1090 284512.0000
    471    489   1      0.1090 284512.0000
    472    473   1      0.1529 224262.4000
    472    490   1      0.1090 284512.0000
    472    491   1      0.1090 284512.0000
    473    474   1      0.1529 224262.4000
    473    492   1      0.1090 284512.0000
    473    493   1      0.1090 284512.0000
    474    494   1      0.1090 284512.0000
    474    495   1      0.1090 284512.0000
    474    496   1      0.1090 284512.0000
    497    498   1      0.1529 224262.4000
    497    508   1      0.1090 284512.0000
    497    509   1      0.1090 284512.0000
    498    499   1      0.1529 224262.4000
    498    510   1      0.1090 284512.0000
    498    530   1      0.1529 224262.4000
    499    500   1      0.1529 224262.4000
    499    511   1      0.1090 284512.0000
    499    512   1      0.1090 284512.0000
    500    501   1      0.1529 224262.4000
    500    513   1      0.1090 284512.0000
    500    514   1      0.1090 284512.0000
    501    502   1      0.1529 224262.4000
    501    515   1      0.1090 284512.0000
    501    516   1      0.1090 284512.0000
    502    503   1      0.1529 224262.4000
    502    517   1      0.1090 284512.0000
    502    518   1      0.1090 284512.0000
    503    504   1      0.1529 224262.4000
    503    519   1      0.1090 284512.0000
    503    520   1      0.1090 284512.0000
    504    505   1      0.1529 224262.4000
    504    521   1      0.1090 284512.0000
    504    522   1      0.1090 284512.0000
    505    506   1      0.1529 224262.4000
    505    523   1      0.1090 284512.0000
    505    524   1      0.1090 284512.0000
    506    507   1      0.1529 224262.4000
    506    525   1      0.1090 284512.0000
    506    526   1      0.1090 284512.0000
    507    527   1      0.1090 284512.0000
    507    528   1      0.1090 284512.0000
    507    529   1      0.1090 284512.0000
    530    531   1      0.1529 224262.4000
    530    541   1      0.1090 284512.0000
    530    542   1      0.1090 284512.0000
    531    532   1      0.1529 224262.4000
    531    543   1      0.1090 284512.0000
    531    563   1      0.1529 224262.4000
    532    533   1      0.1529 224262.4000
    532    544   1      0.1090 284512.0000
    532    545   1      0.1090 284512.0000
    533    534   1      0.1529 224262.4000
    533    546   1      0.1090 284512.0000
    533    547   1      0.1090 284512.0000
    534    535   1      0.1529 224262.4000
    534    548   1      0.1090 284512.0000
    534    549   1      0.1090 284512.0000
    535    536   1      0.1529 224262.4000
    535    550   1      0.1090 284512.0000
    535    551   1      0.1090 284512.0000
    536    537   1      0.1529 224262.4000
    536    552   1      0.1090 284512.0000
    536    553   1      0.1090 284512.0000
    537    538   1      0.1529 224262.4000
    537    554   1      0.1090 284512.0000
    537    555   1      0.1090 284512.0000
    538    539   1      0.1529 224262.4000
    538    556   1      0.1090 284512.0000
    538    557   1      0.1090 284512.0000
    539    540   1      0.1529 224262.4000
    539    558   1      0.1090 284512.0000
    539    559   1      0.1090 284512.0000
    540    560   1      0.1090 284512.0000
    540    561   1      0.1090 284512.0000
    540    562   1      0.1090 284512.0000
    563    564   1      0.1529 224262.4000
    563    574   1      0.1090 284512.0000
    563    575   1      0.1090 284512.0000
    564    565   1      0.1529 224262.4000
    564    576   1      0.1090 284512.0000
    564    596   1      0.1529 224262.4000
    565    566   1      0.1529 224262.4000
    565    577   1      0.1090 284512.0000
    565    578   1      0.1090 284512.0000
    566    567   1      0.1529 224262.4000
    566    579   1      0.1090 284512.0000
    566    580   1      0.1090 284512.0000
    567    568   1      0.1529 224262.4000
    567    581   1      0.1090 284512.0000
    567    582   1      0.1090 284512.0000
    568    569   1      0.1529 224262.4000
    568    583   1      0.1090 284512.0000
    568    584   1      0.1090 284512.0000
    569    570   1      0.1529 224262.4000
    569    585   1      0.1090 284512.0000
    569    586   1      0.1090 284512.0000
    570    571   1      0.1529 224262.4000
    570    587   1      0.1090 284512.0000
    570    588   1      0.1090 284512.0000
    571    572   1      0.1529 224262.4000
    571    589   1      0.1090 284512.0000
    571    590   1      0.1090 284512.0000
    572    573   1      0.1529 224262.4000
    572    591   1      0.1090 284512.0000
    572    592   1      0.1090 284512.0000
    573    593   1      0.1090 284512.0000
    573    594   1      0.1090 284512.0000
    573    595   1      0.1090 284512.0000
    596    597   1      0.1529 224262.4000
    596    607   1      0.1090 284512.0000
    596    608   1      0.1090 284512.0000
    597    598   1      0.1529 224262.4000
    597    609   1      0.1090 284512.0000
    597    629   1      0.1529 224262.4000
    598    599   1      0.1529 224262.4000
    598    610   1      0.1090 284512.0000
    598    611   1      0.1090 284512.0000
    599    600   1      0.1529 224262.4000
    599    612   1      0.1090 284512.0000
    599    613   1      0.1090 284512.0000
    600    601   1      0.1529 224262.4000
    600    614   1      0.1090 284512.0000
    600    615   1      0.1090 284512.0000
    601    602   1      0.1529 224262.4000
    601    616   1      0.1090 284512.0000
    601    617   1      0.1090 284512.0000
    602    603   1      0.1529 224262.4000
    602    618   1      0.1090 284512.0000
    602    619   1      0.1090 284512.0000
    603    604   1      0.1529 224262.4000
    603    620   1      0.1090 284512.0000
    603    621   1      0.1090 284512.0000
    604    605   1      0.1529 224262.4000
    604    622   1      0.1090 284512.0000
    604    623   1      0.1090 284512.0000
    605    606   1      0.1529 224262.4000
    605    624   1      0.1090 284512.0000
    605    625   1      0.1090 284512.0000
    606    626   1      0.1090 284512.0000
    606    627   1      0.1090 284512.0000
    606    628   1      0.1090 284512.0000
    629    630   1      0.1529 224262.4000
    629    640   1      0.1090 284512.0000
    629    641   1      0.1090 284512.0000
    630    631   1      0.1529 224262.4000
    630    642   1      0.1090 284512.0000
    630    662   1      0.1090 284512.0000
    631    632   1      0.1529 224262.4000
    631    643   1      0.1090 284512.0000
    631    644   1      0.1090 284512.0000
    632    633   1      0.1529 224262.4000
    632    645   1      0.1090 284512.0000
    632    646   1      0.1090 284512.0000
    633    634   1      0.1529 224262.4000
    633    647   1      0.1090 284512.0000
    633    648   1      0.1090 284512.0000
    634    635   1      0.1529 224262.4000
    634    649   1      0.1090 284512.0000
    634    650   1      0.1090 284512.0000
    635    636   1      0.1529 224262.4000
    635    651   1      0.1090 284512.0000
    635    652   1      0.1090 284512.0000
    636    637   1      0.1529 224262.4000
    636    653   1      0.1090 284512.0000
    636    654   1      0.1090 284512.0000
    637    638   1      0.1529 224262.4000
    637    655   1      0.1090 284512.0000
    637    656   1      0.1090 284512.0000
    638    639   1      0.1529 224262.4000
    638    657   1      0.1090 284512.0000
    638    658   1      0.1090 284512.0000
    639    659   1      0.1090 284512.0000
    639    660   1      0.1090 284512.0000
    639    661   1      0.1090 284512.0000

[ pairs ]
; ai   aj   funct   fudge_QQ  charge_i   charge_j   c6    c12
     12      3   2   0.50000     0.0600000   -0.1200000   2.494471e-04  1.671101e-07
     12     14   2   0.50000     0.0600000    0.0600000   6.128906e-05  1.496315e-08
     12     35   2   0.50000     0.0600000   -0.1200000   2.494471e-04  1.671101e-07
     13      3   2   0.50000     0.0600000   -0.1200000   2.494471e-04  1.671101e-07
     13     14   2   0.50000     0.0600000    0.0600000   6.128906e-05  1.496315e-08
     13     35   2   0.50000     0.0600000   -0.1200000   2.494471e-04  1.671101e-07
     34      3   2   0.50000     0.0600000   -0.1200000   2.494471e-04  1.671101e-07
     34     14   2   0.50000     0.0600000    0.0600000   6.128906e-05  1.496315e-08
     34     35   2   0.50000     0.0600000   -0.1200000   2.494471e-04  1.671101e-07
      1      4   2   0.50000    -0.1800000   -0.1200000   1.015252e-03  1.866303e-06
      1     15   2   0.50000    -0.1800000    0.0600000   2.494471e-04  1.671101e-07
      1     16   2   0.50000    -0.1800000    0.0600000   2.494471e-04  1.671101e-07
     14      4   2   0.50000     0.0600000   -0.1200000   2.494471e-04  1.671101e-07
     14     15   2   0.50000     0.0600000    0.0600000   6.128906e-05  1.496315e-08
     14     16   2   0.50000     0.0600000    0.0600000   6.128906e-05  1.496315e-08
     35      4   2   0.50000    -0.1200000   -0.1200000   1.015252e-03  1.866303e-06
     35     15   2   0.50000    -0.1200000    0.0600000   2.494471e-04  1.671101e-07
     35     16   2   0.50000    -0.1200000    0.0600000   2.494471e-04  1.671101e-07
      1     36   2   0.50000    -0.1800000   -0.0600000   1.015252e-03  1.866303e-06
      1     46   2   0.50000    -0.1800000    0.0600000   2.494471e-04  1.671101e-07
      1     47   2   0.50000    -0.1800000    0.0600000   2.494471e-04  1.671101e-07
      3     36   2   0.50000    -0.1200000   -0.0600000   1.015252e-03  1.866303e-06
      3     46   2   0.50000    -0.1200000    0.0600000   2.494471e-04  1.671101e-07
      3     47   2   0.50000    -0.1200000    0.0600000   2.494471e-04  1.671101e-07
     14     36   2   0.50000     0.0600000   -0.0600000   2.494471e-04  1.671101e-07
     14     46   2   0.50000     0.0600000    0.0600000   6.128906e-05  1.496315e-08
     14     47   2   0.50000     0.0600000    0.0600000   6.128906e-05  1.496315e-08
      2      5   2   0.50000    -0.0600000   -0.1200000   1.015252e-03  1.866303e-06
      2     17   2   0.50000    -0.0600000    0.0600000   2.494471e-04  1.671101e-07
      2     18   2   0.50000    -0.0600000    0.0600000   2.494471e-04  1.671101e-07
     15      5   2   0.50000     0.0600000   -0.1200000   2.494471e-04  1.671101e-07
     15     17   2   0.50000     0.0600000    0.0600000   6.128906e-05  1.496315e-08
     15     18   2   0.50000     0.0600000    0.0600000   6.128906e-05  1.496315e-08
     16      5   2   0.50000     0.0600000   -0.1200000   2.494471e-04  1.671101e-07
     16     17   2   0.50000     0.0600000    0.0600000   6.128906e-05  1.496315e-08
     16     18   2   0.50000     0.0600000    0.0600000   6.128906e-05  1.496315e-08
      3      6   2   0.50000    -0.1200000   -0.1200000   1.015252e-03  1.866303e-06
      3     19   2   0.50000    -0.1200000    0.0600000   2.494471e-04  1.671101e-07
      3     20   2   0.50000    -0.1200000    0.0600000   2.494471e-04  1.671101e-07
     17      6   2   0.50000     0.0600000   -0.1200000   2.494471e-04  1.671101e-07
     17     19   2   0.50000     0.0600000    0.0600000   6.128906e-05  1.496315e-08
     17     20   2   0.50000     0.0600000    0.0600000   6.128906e-05  1.496315e-08
     18      6   2   0.50000     0.0600000   -0.1200000   2.494471e-04  1.671101e-07
     18     19   2   0.50000     0.0600000    0.0600000   6.128906e-05  1.496315e-08
     18     20   2   0.50000     0.0600000    0.0600000   6.128906e-05  1.496315e-08
      4      7   2   0.50000    -0.1200000   -0.1200000   1.015252e-03  1.866303e-06
      4     21   2   0.50000    -0.1200000    0.0600000   2.494471e-04  1.671101e-07
      4     22   2   0.50000    -0.1200000    0.0600000   2.494471e-04  1.671101e-07
     19      7   2   0.50000     0.0600000   -0.1200000   2.494471e-04  1.671101e-07
     19     21   2   0.50000     0.0600000    0.0600000   6.128906e-05  1.496315e-08
     19     22   2   0.50000     0.0600000    0.0600000   6.128906e-05  1.496315e-08
     20      7   2   0.50000     0.0600000   -0.1200000   2.494471e-04  1.671101e-07
     20     21   2   0.50000     0.0600000    0.0600000   6.128906e-05  1.496315e-08
     20     22   2   0.50000     0.0600000    0.0600000   6.128906e-05  1.496315e-08
      5      8   2   0.50000    -0.1200000   -0.1200000   1.015252e-03  1.866303e-06
      5     23   2   0.50000    -0.1200000    0.0600000   2.494471e-04  1.671101e-07
      5     24   2   0.50000    -0.1200000    0.0600000   2.494471e-04  1.671101e-07
     21      8   2   0.50000     0.0600000   -0.1200000   2.494471e-04  1.671101e-07
     21     23   2   0.50000     0.0600000    0.0600000   6.128906e-05  1.496315e-08
     21     24   2   0.50000     0.0600000    0.0600000   6.128906e-05  1.496315e-08
     22      8   2   0.50000     0.0600000   -0.1200000   2.494471e-04  1.671101e-07
     22     23   2   0.50000     0.0600000    0.0600000   6.128906e-05  1.496315e-08
     22     24   2   0.50000     0.0600000    0.0600000   6.128906e-05  1.496315e-08
      6      9   2   0.50000    -0.1200000   -0.1200000   1.015252e-03  1.866303e-06
      6     25   2   0.50000    -0.1200000    0.0600000   2.494471e-04  1.671101e-07
      6     26   2   0.50000    -0.1200000    0.0600000   2.494471e-04  1.671101e-07
     23      9   2   0.50000     0.0600000   -0.1200000   2.494471e-04  1.671101e-07
     23     25   2   0.50000     0.0600000    0.0600000   6.128906e-05  1.496315e-08
     23     26   2   0.50000     0.0600000    0.0600000   6.128906e-05  1.496315e-08
     24      9   2   0.50000     0.0600000   -0.1200000   2.494471e-04  1.671101e-07
     24     25   2   0.50000     0.0600000    0.0600000   6.128906e-05  1.496315e-08
     24     26   2   0.50000     0.0600000    0.0600000   6.128906e-05  1.496315e-08
      7     10   2   0.50000    -0.1200000   -0.1200000   1.015252e-03  1.866303e-06
      7     27   2   0.50000    -0.1200000    0.0600000   2.494471e-04  1.671101e-07
      7     28   2   0.50000    -0.1200000    0.0600000   2.494471e-04  1.671101e-07
     25     10   2   0.50000     0.0600000   -0.1200000   2.494471e-04  1.671101e-07
     25     27   2   0.50000     0.0600000    0.0600000   6.128906e-05  1.496315e-08
     25     28   2   0.50000     0.0600000    0.0600000   6.128906e-05  1.496315e-08
     26     10   2   0.50000     0.0600000   -0.1200000   2.494471e-04  1.671101e-07
     26     27   2   0.50000     0.0600000    0.0600000   6.128906e-05  1.496315e-08
     26     28   2   0.50000     0.0600000    0.0600000   6.128906e-05  1.496315e-08
      8     11   2   0.50000    -0.1200000   -0.1800000   1.015252e-03  1.866303e-06
      8     29   2   0.50000    -0.1200000    0.0600000   2.494471e-04  1.671101e-07
      8     30   2   0.50000    -0.1200000    0.0600000   2.494471e-04  1.671101e-07
     27     11   2   0.50000     0.0600000   -0.1800000   2.494471e-04  1.671101e-07
     27     29   2   0.50000     0.0600000    0.0600000   6.128906e-05  1.496315e-08
     27     30   2   0.50000     0.0600000    0.0600000   6.128906e-05  1.496315e-08
     28     11   2   0.50000     0.0600000   -0.1800000   2.494471e-04  1.671101e-07
     28     29   2   0.50000     0.0600000    0.0600000   6.128906e-05  1.496315e-08
     28     30   2   0.50000     0.0600000    0.0600000   6.128906e-05  1.496315e-08
      9     31   2   0.50000    -0.1200000    0.0600000   2.494471e-04  1.671101e-07
      9     32   2   0.50000    -0.1200000    0.0600000   2.494471e-04  1.671101e-07
      9     33   2   0.50000    -0.1200000    0.0600000   2.494471e-04  1.671101e-07
     29     31   2   0.50000     0.0600000    0.0600000   6.128906e-05  1.496315e-08
     29     32   2   0.50000     0.0600000    0.0600000   6.128906e-05  1.496315e-08
     29     33   2   0.50000     0.0600000    0.0600000   6.128906e-05  1.496315e-08
     30     31   2   0.50000     0.0600000    0.0600000   6.128906e-05  1.496315e-08
     30     32   2   0.50000     0.0600000    0.0600000   6.128906e-05  1.496315e-08
     30     33   2   0.50000     0.0600000    0.0600000   6.128906e-05  1.496315e-08
      2     37   2   0.50000    -0.0600000   -0.1200000   1.015252e-03  1.866303e-06
      2     48   2   0.50000    -0.0600000    0.0600000   2.494471e-04  1.671101e-07
      2     68   2   0.50000    -0.0600000   -0.1200000   1.015252e-03  1.866303e-06
     46     37   2   0.50000     0.0600000   -0.1200000   2.494471e-04  1.671101e-07
     46     48   2   0.50000     0.0600000    0.0600000   6.128906e-05  1.496315e-08
     46     68   2   0.50000     0.0600000   -0.1200000   2.494471e-04  1.671101e-07
     47     37   2   0.50000     0.0600000   -0.1200000   2.494471e-04  1.671101e-07
     47     48   2   0.50000     0.0600000    0.0600000   6.128906e-05  1.496315e-08
     47     68   2   0.50000     0.0600000   -0.1200000   2.494471e-04  1.671101e-07
     35     38   2   0.50000    -0.1200000   -0.1200000   1.015252e-03  1.866303e-06
     35     49   2   0.50000    -0.1200000    0.0600000   2.494471e-04  1.671101e-07
     35     50   2   0.50000    -0.1200000    0.0600000   2.494471e-04  1.671101e-07
     48     38   2   0.50000     0.0600000   -0.1200000   2.494471e-04  1.671101e-07
     48     49   2   0.50000     0.0600000    0.0600000   6.128906e-05  1.496315e-08
     48     50   2   0.50000     0.0600000    0.0600000   6.128906e-05  1.496315e-08
     68     38   2   0.50000    -0.1200000   -0.1200000   1.015252e-03  1.866303e-06
     68     49   2   0.50000    -0.1200000    0.0600000   2.494471e-04  1.671101e-07
     68     50   2   0.50000    -0.1200000    0.0600000   2.494471e-04  1.671101e-07
     35     69   2   0.50000    -0.1200000   -0.0600000   1.015252e-03  1.866303e-06
     35     79   2   0.50000    -0.1200000    0.0600000   2.494471e-04  1.671101e-07
     35     80   2   0.50000    -0.1200000    0.0600000   2.494471e-04  1.671101e-07
     37     69   2   0.50000    -0.1200000   -0.0600000   1.015252e-03  1.866303e-06
     37     79   2   0.50000    -0.1200000    0.0600000   2.494471e-04  1.671101e-07
     37     80   2   0.50000    -0.1200000    0.0600000   2.494471e-04  1.671101e-07
     48     69   2   0.50000     0.0600000   -0.0600000   2.494471e-04  1.671101e-07
     48     79   2   0.50000     0.0600000    0.0600000   6.128906e-05  1.496315e-08
     48     80   2   0.50000     0.0600000    0.0600000   6.128906e-05  1.496315e-08
     36     39   2   0.50000    -0.0600000   -0.1200000   1.015252e-03  1.866303e-06
     36     51   2   0.50000    -0.0600000    0.0600000   2.494471e-04  1.671101e-07
     36     52   2   0.50000    -0.0600000    0.0600000   2.494471e-04  1.671101e-07
     49     39   2   0.50000     0.0600000   -0.1200000   2.494471e-04  1.671101e-07
     49     51   2   0.50000     0.0600000    0.0600000   6.128906e-05  1.496315e-08
     49     52   2   0.50000     0.0600000    0.0600000   6.128906e-05  1.496315e-08
     50     39   2   0.50000     0.0600000   -0.1200000   2.494471e-04  1.671101e-07
     50     51   2   0.50000     0.0600000    0.0600000   6.128906e-05  1.496315e-08
     50     52   2   0.50000     0.0600000    0.0600000   6.128906e-05  1.496315e-08
     37     40   2   0.50000    -0.1200000   -0.1200000   1.015252e-03  1.866303e-06
     37     53   2   0.50000    -0.1200000    0.0600000   2.494471e-04  1.671101e-07
     37     54   2   0.50000    -0.1200000    0.0600000   2.494471e-04  1.671101e-07
     51     40   2   0.50000     0.0600000   -0.1200000   2.494471e-04  1.671101e-07
     51     53   2   0.50000     0.0600000    0.0600000   6.128906e-05  1.496315e-08
     51     54   2   0.50000     0.0600000    0.0600000   6.128906e-05  1.496315e-08
     52     40   2   0.50000     0.0600000   -0.1200000   2.494471e-04  1.671101e-07
     52     53   2   0.50000     0.0600000    0.0600000   6.128906e-05  1.496315e-08
     52     54   2   0.50000     0.0600000    0.0600000   6.128906e-05  1.496315e-08
     38     41   2   0.50000    -0.1200000   -0.1200000   1.015252e-03  1.866303e-06
     38     55   2   0.50000    -0.1200000    0.0600000   2.494471e-04  1.671101e-07
     38     56   2   0.50000    -0.1200000    0.0600000   2.494471e-04  1.671101e-07
     53     41   2   0.50000     0.0600000   -0.1200000   2.494471e-04  1.671101e-07
     53     55   2   0.50000     0.0600000    0.0600000   6.128906e-05  1.496315e-08
     53     56   2   0.50000     0.0600000    0.0600000   6.128906e-05  1.496315e-08
     54     41   2   0.50000     0.0600000   -0.1200000   2.494471e-04  1.671101e-07
     54     55   2   0.50000     0.0600000    0.0600000   6.128906e-05  1.496315e-08
     54     56   2   0.50000     0.0600000    0.0600000   6.128906e-05  1.496315e-08
     39     42   2   0.50000    -0.1200000   -0.1200000   1.015252e-03  1.866303e-06
     39     57   2   0.50000    -0.1200000    0.0600000   2.494471e-04  1.671101e-07
     39     58   2   0.50000    -0.1200000    0.0600000   2.494471e-04  1.671101e-07
     55     42   2   0.50000     0.0600000   -0.1200000   2.494471e-04  1.671101e-07
     55     57   2   0.50000     0.0600000    0.0600000   6.128906e-05  1.496315e-08
     55     58   2   0.50000     0.0600000    0.0600000   6.128906e-05  1.496315e-08
     56     42   2   0.50000     0.0600000   -0.1200000   2.494471e-04  1.671101e-07
     56     57   2   0.50000     0.0600000    0.0600000   6.128906e-05  1.496315e-08
     56     58   2   0.50000     0.0600000    0.0600000   6.128906e-05  1.496315e-08
     40     43   2   0.50000    -0.1200000   -0.1200000   1.015252e-03  1.866303e-06
     40     59   2   0.50000    -0.1200000    0.0600000   2.494471e-04  1.671101e-07
     40     60   2   0.50000    -0.1200000    0.0600000   2.494471e-04  1.671101e-07
     57     43   2   0.50000     0.0600000   -0.1200000   2.494471e-04  1.671101e-07
     57     59   2   0.50000     0.0600000    0.0600000   6.128906e-05  1.496315e-08
     57     60   2   0.50000     0.0600000    0.0600000   6.128906e-05  1.496315e-08
     58     43   2   0.50000     0.0600000   -0.1200000   2.494471e-04  1.671101e-07
     58     59   2   0.50000     0.0600000    0.0600000   6.128906e-05  1.496315e-08
     58     60   2   0.50000     0.0600000    0.0600000   6.128906e-05  1.496315e-08
     41     44   2   0.50000    -0.1200000   -0.1200000   1.015252e-03  1.866303e-06
     41     61   2   0.50000    -0.1200000    0.0600000   2.494471e-04  1.671101e-07
     41     62   2   0.50000    -0.1200000    0.0600000   2.494471e-04  1.671101e-07
     59     44   2   0.50000     0.0600000   -0.1200000   2.494471e-04  1.671101e-07
     59     61   2   0.50000     0.0600000    0.0600000   6.128906e-05  1.496315e-08
     59     62   2   0.50000     0.0600000    0.0600000   6.128906e-05  1.496315e-08
     60     44   2   0.50000     0.0600000   -0.1200000   2.494471e-04  1.671101e-07
     60     61   2   0.50000     0.0600000    0.0600000   6.128906e-05  1.496315e-08
     60     62   2   0.50000     0.0600000    0.0600000   6.128906e-05  1.496315e-08
     42     45   2   0.50000    -0.1200000   -0.1800000   1.015252e-03  1.866303e-06
     42     63   2   0.50000    -0.1200000    0.0600000   2.494471e-04  1.671101e-07
     42     64   2   0.50000    -0.1200000    0.0600000   2.494471e-04  1.671101e-07
     61     45   2   0.50000     0.0600000   -0.1800000   2.494471e-04  1.671101e-07
     61     63   2   0.50000     0.0600000    0.0600000   6.128906e-05  1.496315e-08
     61     64   2   0.50000     0.0600000    0.0600000   6.128906e-05  1.496315e-08
     62     45   2   0.50000     0.0600000   -0.1800000   2.494471e-04  1.671101e-07
     62     63   2   0.50000     0.0600000    0.0600000   6.128906e-05  1.496315e-08
     62     64   2   0.50000     0.0600000    0.0600000   6.128906e-05  1.496315e-08
     43     65   2   0.50000    -0.1200000    0.0600000   2.494471e-04  1.671101e-07
     43     66   2   0.50000    -0.1200000    0.0600000   2.494471e-04  1.671101e-07
     43     67   2   0.50000    -0.1200000    0.0600000   2.494471e-04  1.671101e-07
     63     65   2   0.50000     0.0600000    0.0600000   6.128906e-05  1.496315e-08
     63     66   2   0.50000     0.0600000    0.0600000   6.128906e-05  1.496315e-08
     63     67   2   0.50000     0.0600000    0.0600000   6.128906e-05  1.496315e-08
     64     65   2   0.50000     0.0600000    0.0600000   6.128906e-05  1.496315e-08
     64     66   2   0.50000     0.0600000    0.0600000   6.128906e-05  1.496315e-08
     64     67   2   0.50000     0.0600000    0.0600000   6.128906e-05  1.496315e-08
     36     70   2   0.50000    -0.0600000   -0.1200000   1.015252e-03  1.866303e-06
     36     81   2   0.50000    -0.0600000    0.0600000   2.494471e-04  1.671101e-07
     36    101   2   0.50000    -0.0600000   -0.1200000   1.015252e-03  1.866303e-06
     79     70   2   0.50000     0.0600000   -0.1200000   2.494471e-04  1.671101e-07
     79     81   2   0.50000     0.0600000    0.0600000   6.128906e-05  1.496315e-08
     79    101   2   0.50000     0.0600000   -0.1200000   2.494471e-04  1.671101e-07
     80     70   2   0.50000     0.0600000   -0.1200000   2.494471e-04  1.671101e-07
     80     81   2   0.50000     0.0600000    0.0600000   6.128906e-05  1.496315e-08
     80    101   2   0.50000     0.0600000   -0.1200000   2.494471e-04  1.671101e-07
     68     71   2   0.50000    -0.1200000   -0.1200000   1.015252e-03  1.866303e-06
     68     82   2   0.50000    -0.1200000    0.0600000   2.494471e-04  1.671101e-07
     68     83   2   0.50000    -0.1200000    0.0600000   2.494471e-04  1.671101e-07
     81     71   2   0.50000     0.0600000   -0.1200000   2.494471e-04  1.671101e-07
     81     82   2   0.50000     0.0600000    0.0600000   6.128906e-05  1.496315e-08
     81     83   2   0.50000     0.0600000    0.0600000   6.128906e-05  1.496315e-08
    101     71   2   0.50000    -0.1200000   -0.1200000   1.015252e-03  1.866303e-06
    101     82   2   0.50000    -0.1200000    0.0600000   2.494471e-04  1.671101e-07
    101     83   2   0.50000    -0.1200000    0.0600000   2.494471e-04  1.671101e-07
     68    102   2   0.50000    -0.1200000   -0.0600000   1.015252e-03  1.866303e-06
     68    112   2   0.50000    -0.1200000    0.0600000   2.494471e-04  1.671101e-07
     68    113   2   0.50000    -0.1200000    0.0600000   2.494471e-04  1.671101e-07
     70    102   2   0.50000    -0.1200000   -0.0600000   1.015252e-03  1.866303e-06
     70    112   2   0.50000    -0.1200000    0.0600000   2.494471e-04  1.671101e-07
     70    113   2   0.50000    -0.1200000    0.0600000   2.494471e-04  1.671101e-07
     81    102   2   0.50000     0.0600000   -0.0600000   2.494471e-04  1.671101e-07
     81    112   2   0.50000     0.0600000    0.0600000   6.128906e-05  1.496315e-08
     81    113   2   0.50000     0.0600000    0.0600000   6.128906e-05  1.496315e-08
     69     72   2   0.50000    -0.0600000   -0.1200000   1.015252e-03  1.866303e-06
     69     84   2   0.50000    -0.0600000    0.0600000   2.494471e-04  1.671101e-07
     69     85   2   0.50000    -0.0600000    0.0600000   2.494471e-04  1.671101e-07
     82     72   2   0.50000     0.0600000   -0.1200000   2.494471e-04  1.671101e-07
     82     84   2   0.50000     0.0600000    0.0600000   6.128906e-05  1.496315e-08
     82     85   2   0.50000     0.0600000    0.0600000   6.128906e-05  1.496315e-08
     83     72   2   0.50000     0.0600000   -0.1200000   2.494471e-04  1.671101e-07
     83     84   2   0.50000     0.0600000    0.0600000   6.128906e-05  1.496315e-08
     83     85   2   0.50000     0.0600000    0.0600000   6.128906e-05  1.496315e-08
     70     73   2   0.50000    -0.1200000   -0.1200000   1.015252e-03  1.866303e-06
     70     86   2   0.50000    -0.1200000    0.0600000   2.494471e-04  1.671101e-07
     70     87   2   0.50000    -0.1200000    0.0600000   2.494471e-04  1.671101e-07
     84     73   2   0.50000     0.0600000   -0.1200000   2.494471e-04  1.671101e-07
     84     86   2   0.50000     0.0600000    0.0600000   6.128906e-05  1.496315e-08
     84     87   2   0.50000     0.0600000    0.0600000   6.128906e-05  1.496315e-08
     85     73   2   0.50000     0.0600000   -0.1200000   2.494471e-04  1.671101e-07
     85     86   2   0.50000     0.0600000    0.0600000   6.128906e-05  1.496315e-08
     85     87   2   0.50000     0.0600000    0.0600000   6.128906e-05  1.496315e-08
     71     74   2   0.50000    -0.1200000   -0.1200000   1.015252e-03  1.866303e-06
     71     88   2   0.50000    -0.1200000    0.0600000   2.494471e-04  1.671101e-07
     71     89   2   0.50000    -0.1200000    0.0600000   2.494471e-04  1.671101e-07
     86     74   2   0.50000     0.0600000   -0.1200000   2.494471e-04  1.671101e-07
     86     88   2   0.50000     0.0600000    0.0600000   6.128906e-05  1.496315e-08
     86     89   2   0.50000     0.0600000    0.0600000   6.128906e-05  1.496315e-08
     87     74   2   0.50000     0.0600000   -0.1200000   2.494471e-04  1.671101e-07
     87     88   2   0.50000     0.0600000    0.0600000   6.128906e-05  1.496315e-08
     87     89   2   0.50000     0.0600000    0.0600000   6.128906e-05  1.496315e-08
     72     75   2   0.50000    -0.1200000   -0.1200000   1.015252e-03  1.866303e-06
     72     90   2   0.50000    -0.1200000    0.0600000   2.494471e-04  1.671101e-07
     72     91   2   0.50000    -0.1200000    0.0600000   2.494471e-04  1.671101e-07
     88     75   2   0.50000     0.0600000   -0.1200000   2.494471e-04  1.671101e-07
     88     90   2   0.50000     0.0600000    0.0600000   6.128906e-05  1.496315e-08
     88     91   2   0.50000     0.0600000    0.0600000   6.128906e-05  1.496315e-08
     89     75   2   0.50000     0.0600000   -0.1200000   2.494471e-04  1.671101e-07
     89     90   2   0.50000     0.0600000    0.0600000   6.128906e-05  1.496315e-08
     89     91   2   0.50000     0.0600000    0.0600000   6.128906e-05  1.496315e-08
     73     76   2   0.50000    -0.1200000   -0.1200000   1.015252e-03  1.866303e-06
     73     92   2   0.50000    -0.1200000    0.0600000   2.494471e-04  1.671101e-07
     73     93   2   0.50000    -0.1200000    0.0600000   2.494471e-04  1.671101e-07
     90     76   2   0.50000     0.0600000   -0.1200000   2.494471e-04  1.671101e-07
     90     92   2   0.50000     0.0600000    0.0600000   6.128906e-05  1.496315e-08
     90     93   2   0.50000     0.0600000    0.0600000   6.128906e-05  1.496315e-08
     91     76   2   0.50000     0.0600000   -0.1200000   2.494471e-04  1.671101e-07
     91     92   2   0.50000     0.0600000    0.0600000   6.128906e-05  1.496315e-08
     91     93   2   0.50000     0.0600000    0.0600000   6.128906e-05  1.496315e-08
     74     77   2   0.50000    -0.1200000   -0.1200000   1.015252e-03  1.866303e-06
     74     94   2   0.50000    -0.1200000    0.0600000   2.494471e-04  1.671101e-07
     74     95   2   0.50000    -0.1200000    0.0600000   2.494471e-04  1.671101e-07
     92     77   2   0.50000     0.0600000   -0.1200000   2.494471e-04  1.671101e-07
     92     94   2   0.50000     0.0600000    0.0600000   6.128906e-05  1.496315e-08
     92     95   2   0.50000     0.0600000    0.0600000   6.128906e-05  1.496315e-08
     93     77   2   0.50000     0.0600000   -0.1200000   2.494471e-04  1.671101e-07
     93     94   2   0.50000     0.0600000    0.0600000   6.128906e-05  1.496315e-08
     93     95   2   0.50000     0.0600000    0.0600000   6.128906e-05  1.496315e-08
     75     78   2   0.50000    -0.1200000   -0.1800000   1.015252e-03  1.866303e-06
     75     96   2   0.50000    -0.1200000    0.0600000   2.494471e-04  1.671101e-07
     75     97   2   0.50000    -0.1200000    0.0600000   2.494471e-04  1.671101e-07
     94     78   2   0.50000     0.0600000   -0.1800000   2.494471e-04  1.671101e-07
     94     96   2   0.50000     0.0600000    0.0600000   6.128906e-05  1.496315e-08
     94     97   2   0.50000     0.0600000    0.0600000   6.128906e-05  1.496315e-08
     95     78   2   0.50000     0.0600000   -0.1800000   2.494471e-04  1.671101e-07
     95     96   2   0.50000     0.0600000    0.0600000   6.128906e-05  1.496315e-08
     95     97   2   0.50000     0.0600000    0.0600000   6.128906e-05  1.496315e-08
     76     98   2   0.50000    -0.1200000    0.0600000   2.494471e-04  1.671101e-07
     76     99   2   0.50000    -0.1200000    0.0600000   2.494471e-04  1.671101e-07
     76    100   2   0.50000    -0.1200000    0.0600000   2.494471e-04  1.671101e-07
     96     98   2   0.50000     0.0600000    0.0600000   6.128906e-05  1.496315e-08
     96     99   2   0.50000     0.0600000    0.0600000   6.128906e-05  1.496315e-08
     96    100   2   0.50000     0.0600000    0.0600000   6.128906e-05  1.496315e-08
     97     98   2   0.50000     0.0600000    0.0600000   6.128906e-05  1.496315e-08
     97     99   2   0.50000     0.0600000    0.0600000   6.128906e-05  1.496315e-08
     97    100   2   0.50000     0.0600000    0.0600000   6.128906e-05  1.496315e-08
     69    103   2   0.50000    -0.0600000   -0.1200000   1.015252e-03  1.866303e-06
     69    114   2   0.50000    -0.0600000    0.0600000   2.494471e-04  1.671101e-07
     69    134   2   0.50000    -0.0600000   -0.1200000   1.015252e-03  1.866303e-06
    112    103   2   0.50000     0.0600000   -0.1200000   2.494471e-04  1.671101e-07
    112    114   2   0.50000     0.0600000    0.0600000   6.128906e-05  1.496315e-08
    112    134   2   0.50000     0.0600000   -0.1200000   2.494471e-04  1.671101e-07
    113    103   2   0.50000     0.0600000   -0.1200000   2.494471e-04  1.671101e-07
    113    114   2   0.50000     0.0600000    0.0600000   6.128906e-05  1.496315e-08
    113    134   2   0.50000     0.0600000   -0.1200000   2.494471e-04  1.671101e-07
    101    104   2   0.50000    -0.1200000   -0.1200000   1.015252e-03  1.866303e-06
    101    115   2   0.50000    -0.1200000    0.0600000   2.494471e-04  1.671101e-07
    101    116   2   0.50000    -0.1200000    0.0600000   2.494471e-04  1.671101e-07
    114    104   2   0.50000     0.0600000   -0.1200000   2.494471e-04  1.671101e-07
    114    115   2   0.50000     0.0600000    0.0600000   6.128906e-05  1.496315e-08
    114    116   2   0.50000     0.0600000    0.0600000   6.128906e-05  1.496315e-08
    134    104   2   0.50000    -0.1200000   -0.1200000   1.015252e-03  1.866303e-06
    134    115   2   0.50000    -0.1200000    0.0600000   2.494471e-04  1.671101e-07
    134    116   2   0.50000    -0.1200000    0.0600000   2.494471e-04  1.671101e-07
    101    135   2   0.50000    -0.1200000   -0.0600000   1.015252e-03  1.866303e-06
    101    145   2   0.50000    -0.1200000    0.0600000   2.494471e-04  1.671101e-07
    101    146   2   0.50000    -0.1200000    0.0600000   2.494471e-04  1.671101e-07
    103    135   2   0.50000    -0.1200000   -0.0600000   1.015252e-03  1.866303e-06
    103    145   2   0.50000    -0.1200000    0.0600000   2.494471e-04  1.671101e-07
    103    146   2   0.50000    -0.1200000    0.0600000   2.494471e-04  1.671101e-07
    114    135   2   0.50000     0.0600000   -0.0600000   2.494471e-04  1.671101e-07
    114    145   2   0.50000     0.0600000    0.0600000   6.128906e-05  1.496315e-08
    114    146   2   0.50000     0.0600000    0.0600000   6.128906e-05  1.496315e-08
    102    105   2   0.50000    -0.0600000   -0.1200000   1.015252e-03  1.866303e-06
    102    117   2   0.50000    -0.0600000    0.0600000   2.494471e-04  1.671101e-07
    102    118   2   0.50000    -0.0600000    0.0600000   2.494471e-04  1.671101e-07
    115    105   2   0.50000     0.0600000   -0.1200000   2.494471e-04  1.671101e-07
    115    117   2   0.50000     0.0600000    0.0600000   6.128906e-05  1.496315e-08
    115    118   2   0.50000     0.0600000    0.0600000   6.128906e-05  1.496315e-08
    116    105   2   0.50000     0.0600000   -0.1200000   2.494471e-04  1.671101e-07
    116    117   2   0.50000     0.0600000    0.0600000   6.128906e-05  1.496315e-08
    116    118   2   0.50000     0.0600000    0.0600000   6.128906e-05  1.496315e-08
    103    106   2   0.50000    -0.1200000   -0.1200000   1.015252e-03  1.866303e-06
    103    119   2   0.50000    -0.1200000    0.0600000   2.494471e-04  1.671101e-07
    103    120   2   0.50000    -0.1200000    0.0600000   2.494471e-04  1.671101e-07
    117    106   2   0.50000     0.0600000   -0.1200000   2.494471e-04  1.671101e-07
    117    119   2   0.50000     0.0600000    0.0600000   6.128906e-05  1.496315e-08
    117    120   2   0.50000     0.0600000    0.0600000   6.128906e-05  1.496315e-08
    118    106   2   0.50000     0.0600000   -0.1200000   2.494471e-04  1.671101e-07
    118    119   2   0.50000     0.0600000    0.0600000   6.128906e-05  1.496315e-08
    118    120   2   0.50000     0.0600000    0.0600000   6.128906e-05  1.496315e-08
    104    107   2   0.50000    -0.1200000   -0.1200000   1.015252e-03  1.866303e-06
    104    121   2   0.50000    -0.1200000    0.0600000   2.494471e-04  1.671101e-07
    104    122   2   0.50000    -0.1200000    0.0600000   2.494471e-04  1.671101e-07
    119    107   2   0.50000     0.0600000   -0.1200000   2.494471e-04  1.671101e-07
    119    121   2   0.50000     0.0600000    0.0600000   6.128906e-05  1.496315e-08
    119    122   2   0.50000     0.0600000    0.0600000   6.128906e-05  1.496315e-08
    120    107   2   0.50000     0.0600000   -0.1200000   2.494471e-04  1.671101e-07
    120    121   2   0.50000     0.0600000    0.0600000   6.128906e-05  1.496315e-08
    120    122   2   0.50000     0.0600000    0.0600000   6.128906e-05  1.496315e-08
    105    108   2   0.50000    -0.1200000   -0.1200000   1.015252e-03  1.866303e-06
    105    123   2   0.50000    -0.1200000    0.0600000   2.494471e-04  1.671101e-07
    105    124   2   0.50000    -0.1200000    0.0600000   2.494471e-04  1.671101e-07
    121    108   2   0.50000     0.0600000   -0.1200000   2.494471e-04  1.671101e-07
    121    123   2   0.50000     0.0600000    0.0600000   6.128906e-05  1.496315e-08
    121    124   2   0.50000     0.0600000    0.0600000   6.128906e-05  1.496315e-08
    122    108   2   0.50000     0.0600000   -0.1200000   2.494471e-04  1.671101e-07
    122    123   2   0.50000     0.0600000    0.0600000   6.128906e-05  1.496315e-08
    122    124   2   0.50000     0.0600000    0.0600000   6.128906e-05  1.496315e-08
    106    109   2   0.50000    -0.1200000   -0.1200000   1.015252e-03  1.866303e-06
    106    125   2   0.50000    -0.1200000    0.0600000   2.494471e-04  1.671101e-07
    106    126   2   0.50000    -0.1200000    0.0600000   2.494471e-04  1.671101e-07
    123    109   2   0.50000     0.0600000   -0.1200000   2.494471e-04  1.671101e-07
    123    125   2   0.50000     0.0600000    0.0600000   6.128906e-05  1.496315e-08
    123    126   2   0.50000     0.0600000    0.0600000   6.128906e-05  1.496315e-08
    124    109   2   0.50000     0.0600000   -0.1200000   2.494471e-04  1.671101e-07
    124    125   2   0.50000     0.0600000    0.0600000   6.128906e-05  1.496315e-08
    124    126   2   0.50000     0.0600000    0.0600000   6.128906e-05  1.496315e-08
    107    110   2   0.50000    -0.1200000   -0.1200000   1.015252e-03  1.866303e-06
    107    127   2   0.50000    -0.1200000    0.0600000   2.494471e-04  1.671101e-07
    107    128   2   0.50000    -0.1200000    0.0600000   2.494471e-04  1.671101e-07
    125    110   2   0.50000     0.0600000   -0.1200000   2.494471e-04  1.671101e-07
    125    127   2   0.50000     0.0600000    0.0600000   6.128906e-05  1.496315e-08
    125    128   2   0.50000     0.0600000    0.0600000   6.128906e-05  1.496315e-08
    126    110   2   0.50000     0.0600000   -0.1200000   2.494471e-04  1.671101e-07
    126    127   2   0.50000     0.0600000    0.0600000   6.128906e-05  1.496315e-08
    126    128   2   0.50000     0.0600000    0.0600000   6.128906e-05  1.496315e-08
    108    111   2   0.50000    -0.1200000   -0.1800000   1.015252e-03  1.866303e-06
    108    129   2   0.50000    -0.1200000    0.0600000   2.494471e-04  1.671101e-07
    108    130   2   0.50000    -0.1200000    0.0600000   2.494471e-04  1.671101e-07
    127    111   2   0.50000     0.0600000   -0.1800000   2.494471e-04  1.671101e-07
    127    129   2   0.50000     0.0600000    0.0600000   6.128906e-05  1.496315e-08
    127    130   2   0.50000     0.0600000    0.0600000   6.128906e-05  1.496315e-08
    128    111   2   0.50000     0.0600000   -0.1800000   2.494471e-04  1.671101e-07
    128    129   2   0.50000     0.0600000    0.0600000   6.128906e-05  1.496315e-08
    128    130   2   0.50000     0.0600000    0.0600000   6.128906e-05  1.496315e-08
    109    131   2   0.50000    -0.1200000    0.0600000   2.494471e-04  1.671101e-07
    109    132   2   0.50000    -0.1200000    0.0600000   2.494471e-04  1.671101e-07
    109    133   2   0.50000    -0.1200000    0.0600000   2.494471e-04  1.671101e-07
    129    131   2   0.50000     0.0600000    0.0600000   6.128906e-05  1.496315e-08
    129    132   2   0.50000     0.0600000    0.0600000   6.128906e-05  1.496315e-08
    129    133   2   0.50000     0.0600000    0.0600000   6.128906e-05  1.496315e-08
    130    131   2   0.50000     0.0600000    0.0600000   6.128906e-05  1.496315e-08
    130    132   2   0.50000     0.0600000    0.0600000   6.128906e-05  1.496315e-08
    130    133   2   0.50000     0.0600000    0.0600000   6.128906e-05  1.496315e-08
    102    136   2   0.50000    -0.0600000   -0.1200000   1.015252e-03  1.866303e-06
    102    147   2   0.50000    -0.0600000    0.0600000   2.494471e-04  1.671101e-07
    102    167   2   0.50000    -0.0600000   -0.1200000   1.015252e-03  1.866303e-06
    145    136   2   0.50000     0.0600000   -0.1200000   2.494471e-04  1.671101e-07
    145    147   2   0.50000     0.0600000    0.0600000   6.128906e-05  1.496315e-08
    145    167   2   0.50000     0.0600000   -0.1200000   2.494471e-04  1.671101e-07
    146    136   2   0.50000     0.0600000   -0.1200000   2.494471e-04  1.671101e-07
    146    147   2   0.50000     0.0600000    0.0600000   6.128906e-05  1.496315e-08
    146    167   2   0.50000     0.0600000   -0.1200000   2.494471e-04  1.671101e-07
    134    137   2   0.50000    -0.1200000   -0.1200000   1.015252e-03  1.866303e-06
    134    148   2   0.50000    -0.1200000    0.0600000   2.494471e-04  1.671101e-07
    134    149   2   0.50000    -0.1200000    0.0600000   2.494471e-04  1.671101e-07
    147    137   2   0.50000     0.0600000   -0.1200000   2.494471e-04  1.671101e-07
    147    148   2   0.50000     0.0600000    0.0600000   6.128906e-05  1.496315e-08
    147    149   2   0.50000     0.0600000    0.0600000   6.128906e-05  1.496315e-08
    167    137   2   0.50000    -0.1200000   -0.1200000   1.015252e-03  1.866303e-06
    167    148   2   0.50000    -0.1200000    0.0600000   2.494471e-04  1.671101e-07
    167    149   2   0.50000    -0.1200000    0.0600000   2.494471e-04  1.671101e-07
    134    168   2   0.50000    -0.1200000   -0.0600000   1.015252e-03  1.866303e-06
    134    178   2   0.50000    -0.1200000    0.0600000   2.494471e-04  1.671101e-07
    134    179   2   0.50000    -0.1200000    0.0600000   2.494471e-04  1.671101e-07
    136    168   2   0.50000    -0.1200000   -0.0600000   1.015252e-03  1.866303e-06
    136    178   2   0.50000    -0.1200000    0.0600000   2.494471e-04  1.671101e-07
    136    179   2   0.50000    -0.1200000    0.0600000   2.494471e-04  1.671101e-07
    147    168   2   0.50000     0.0600000   -0.0600000   2.494471e-04  1.671101e-07
    147    178   2   0.50000     0.0600000    0.0600000   6.128906e-05  1.496315e-08
    147    179   2   0.50000     0.0600000    0.0600000   6.128906e-05  1.496315e-08
    135    138   2   0.50000    -0.0600000   -0.1200000   1.015252e-03  1.866303e-06
    135    150   2   0.50000    -0.0600000    0.0600000   2.494471e-04  1.671101e-07
    135    151   2   0.50000    -0.0600000    0.0600000   2.494471e-04  1.671101e-07
    148    138   2   0.50000     0.0600000   -0.1200000   2.494471e-04  1.671101e-07
    148    150   2   0.50000     0.0600000    0.0600000   6.128906e-05  1.496315e-08
    148    151   2   0.50000     0.0600000    0.0600000   6.128906e-05  1.496315e-08
    149    138   2   0.50000     0.0600000   -0.1200000   2.494471e-04  1.671101e-07
    149    150   2   0.50000     0.0600000    0.0600000   6.128906e-05  1.496315e-08
    149    151   2   0.50000     0.0600000    0.0600000   6.128906e-05  1.496315e-08
    136    139   2   0.50000    -0.1200000   -0.1200000   1.015252e-03  1.866303e-06
    136    152   2   0.50000    -0.1200000    0.0600000   2.494471e-04  1.671101e-07
    136    153   2   0.50000    -0.1200000    0.0600000   2.494471e-04  1.671101e-07
    150    139   2   0.50000     0.0600000   -0.1200000   2.494471e-04  1.671101e-07
    150    152   2   0.50000     0.0600000    0.0600000   6.128906e-05  1.496315e-08
    150    153   2   0.50000     0.0600000    0.0600000   6.128906e-05  1.496315e-08
    151    139   2   0.50000     0.0600000   -0.1200000   2.494471e-04  1.671101e-07
    151    152   2   0.50000     0.0600000    0.0600000   6.128906e-05  1.496315e-08
    151    153   2   0.50000     0.0600000    0.0600000   6.128906e-05  1.496315e-08
    137    140   2   0.50000    -0.1200000   -0.1200000   1.015252e-03  1.866303e-06
    137    154   2   0.50000    -0.1200000    0.0600000   2.494471e-04  1.671101e-07
    137    155   2   0.50000    -0.1200000    0.0600000   2.494471e-04  1.671101e-07
    152    140   2   0.50000     0.0600000   -0.1200000   2.494471e-04  1.671101e-07
    152    154   2   0.50000     0.0600000    0.0600000   6.128906e-05  1.496315e-08
    152    155   2   0.50000     0.0600000    0.0600000   6.128906e-05  1.496315e-08
    153    140   2   0.50000     0.0600000   -0.1200000   2.494471e-04  1.671101e-07
    153    154   2   0.50000     0.0600000    0.0600000   6.128906e-05  1.496315e-08
    153    155   2   0.50000     0.0600000    0.0600000   6.128906e-05  1.496315e-08
    138    141   2   0.50000    -0.1200000   -0.1200000   1.015252e-03  1.866303e-06
    138    156   2   0.50000    -0.1200000    0.0600000   2.494471e-04  1.671101e-07
    138    157   2   0.50000    -0.1200000    0.0600000   2.494471e-04  1.671101e-07
    154    141   2   0.50000     0.0600000   -0.1200000   2.494471e-04  1.671101e-07
    154    156   2   0.50000     0.0600000    0.0600000   6.128906e-05  1.496315e-08
    154    157   2   0.50000     0.0600000    0.0600000   6.128906e-05  1.496315e-08
    155    141   2   0.50000     0.0600000   -0.1200000   2.494471e-04  1.671101e-07
    155    156   2   0.50000     0.0600000    0.0600000   6.128906e-05  1.496315e-08
    155    157   2   0.50000     0.0600000    0.0600000   6.128906e-05  1.496315e-08
    139    142   2   0.50000    -0.1200000   -0.1200000   1.015252e-03  1.866303e-06
    139    158   2   0.50000    -0.1200000    0.0600000   2.494471e-04  1.671101e-07
    139    159   2   0.50000    -0.1200000    0.0600000   2.494471e-04  1.671101e-07
    156    142   2   0.50000     0.0600000   -0.1200000   2.494471e-04  1.671101e-07
    156    158   2   0.50000     0.0600000    0.0600000   6.128906e-05  1.496315e-08
    156    159   2   0.50000     0.0600000    0.0600000   6.128906e-05  1.496315e-08
    157    142   2   0.50000     0.0600000   -0.1200000   2.494471e-04  1.671101e-07
    157    158   2   0.50000     0.0600000    0.0600000   6.128906e-05  1.496315e-08
    157    159   2   0.50000     0.0600000    0.0600000   6.128906e-05  1.496315e-08
    140    143   2   0.50000    -0.1200000   -0.1200000   1.015252e-03  1.866303e-06
    140    160   2   0.50000    -0.1200000    0.0600000   2.494471e-04  1.671101e-07
    140    161   2   0.50000    -0.1200000    0.0600000   2.494471e-04  1.671101e-07
    158    143   2   0.50000     0.0600000   -0.1200000   2.494471e-04  1.671101e-07
    158    160   2   0.50000     0.0600000    0.0600000   6.128906e-05  1.496315e-08
    158    161   2   0.50000     0.0600000    0.0600000   6.128906e-05  1.496315e-08
    159    143   2   0.50000     0.0600000   -0.1200000   2.494471e-04  1.671101e-07
    159    160   2   0.50000     0.0600000    0.0600000   6.128906e-05  1.496315e-08
    159    161   2   0.50000     0.0600000    0.0600000   6.128906e-05  1.496315e-08
    141    144   2   0.50000    -0.1200000   -0.1800000   1.015252e-03  1.866303e-06
    141    162   2   0.50000    -0.1200000    0.0600000   2.494471e-04  1.671101e-07
    141    163   2   0.50000    -0.1200000    0.0600000   2.494471e-04  1.671101e-07
    160    144   2   0.50000     0.0600000   -0.1800000   2.494471e-04  1.671101e-07
    160    162   2   0.50000     0.0600000    0.0600000   6.128906e-05  1.496315e-08
    160    163   2   0.50000     0.0600000    0.0600000   6.128906e-05  1.496315e-08
    161    144   2   0.50000     0.0600000   -0.1800000   2.494471e-04  1.671101e-07
    161    162   2   0.50000     0.0600000    0.0600000   6.128906e-05  1.496315e-08
    161    163   2   0.50000     0.0600000    0.0600000   6.128906e-05  1.496315e-08
    142    164   2   0.50000    -0.1200000    0.0600000   2.494471e-04  1.671101e-07
    142    165   2   0.50000    -0.1200000    0.0600000   2.494471e-04  1.671101e-07
    142    166   2   0.50000    -0.1200000    0.0600000   2.494471e-04  1.671101e-07
    162    164   2   0.50000     0.0600000    0.0600000   6.128906e-05  1.496315e-08
    162    165   2   0.50000     0.0600000    0.0600000   6.128906e-05  1.496315e-08
    162    166   2   0.50000     0.0600000    0.0600000   6.128906e-05  1.496315e-08
    163    164   2   0.50000     0.0600000    0.0600000   6.128906e-05  1.496315e-08
    163    165   2   0.50000     0.0600000    0.0600000   6.128906e-05  1.496315e-08
    163    166   2   0.50000     0.0600000    0.0600000   6.128906e-05  1.496315e-08
    135    169   2   0.50000    -0.0600000   -0.1200000   1.015252e-03  1.866303e-06
    135    180   2   0.50000    -0.0600000    0.0600000   2.494471e-04  1.671101e-07
    135    200   2   0.50000    -0.0600000   -0.1200000   1.015252e-03  1.866303e-06
    178    169   2   0.50000     0.0600000   -0.1200000   2.494471e-04  1.671101e-07
    178    180   2   0.50000     0.0600000    0.0600000   6.128906e-05  1.496315e-08
    178    200   2   0.50000     0.0600000   -0.1200000   2.494471e-04  1.671101e-07
    179    169   2   0.50000     0.0600000   -0.1200000   2.494471e-04  1.671101e-07
    179    180   2   0.50000     0.0600000    0.0600000   6.128906e-05  1.496315e-08
    179    200   2   0.50000     0.0600000   -0.1200000   2.494471e-04  1.671101e-07
    167    170   2   0.50000    -0.1200000   -0.1200000   1.015252e-03  1.866303e-06
    167    181   2   0.50000    -0.1200000    0.0600000   2.494471e-04  1.671101e-07
    167    182   2   0.50000    -0.1200000    0.0600000   2.494471e-04  1.671101e-07
    180    170   2   0.50000     0.0600000   -0.1200000   2.494471e-04  1.671101e-07
    180    181   2   0.50000     0.0600000    0.0600000   6.128906e-05  1.496315e-08
    180    182   2   0.50000     0.0600000    0.0600000   6.128906e-05  1.496315e-08
    200    170   2   0.50000    -0.1200000   -0.1200000   1.015252e-03  1.866303e-06
    200    181   2   0.50000    -0.1200000    0.0600000   2.494471e-04  1.671101e-07
    200    182   2   0.50000    -0.1200000    0.0600000   2.494471e-04  1.671101e-07
    167    201   2   0.50000    -0.1200000   -0.0600000   1.015252e-03  1.866303e-06
    167    211   2   0.50000    -0.1200000    0.0600000   2.494471e-04  1.671101e-07
    167    212   2   0.50000    -0.1200000    0.0600000   2.494471e-04  1.671101e-07
    169    201   2   0.50000    -0.1200000   -0.0600000   1.015252e-03  1.866303e-06
    169    211   2   0.50000    -0.1200000    0.0600000   2.494471e-04  1.671101e-07
    169    212   2   0.50000    -0.1200000    0.0600000   2.494471e-04  1.671101e-07
    180    201   2   0.50000     0.0600000   -0.0600000   2.494471e-04  1.671101e-07
    180    211   2   0.50000     0.0600000    0.0600000   6.128906e-05  1.496315e-08
    180    212   2   0.50000     0.0600000    0.0600000   6.128906e-05  1.496315e-08
    168    171   2   0.50000    -0.0600000   -0.1200000   1.015252e-03  1.866303e-06
    168    183   2   0.50000    -0.0600000    0.0600000   2.494471e-04  1.671101e-07
    168    184   2   0.50000    -0.0600000    0.0600000   2.494471e-04  1.671101e-07
    181    171   2   0.50000     0.0600000   -0.1200000   2.494471e-04  1.671101e-07
    181    183   2   0.50000     0.0600000    0.0600000   6.128906e-05  1.496315e-08
    181    184   2   0.50000     0.0600000    0.0600000   6.128906e-05  1.496315e-08
    182    171   2   0.50000     0.0600000   -0.1200000   2.494471e-04  1.671101e-07
    182    183   2   0.50000     0.0600000    0.0600000   6.128906e-05  1.496315e-08
    182    184   2   0.50000     0.0600000    0.0600000   6.128906e-05  1.496315e-08
    169    172   2   0.50000    -0.1200000   -0.1200000   1.015252e-03  1.866303e-06
    169    185   2   0.50000    -0.1200000    0.0600000   2.494471e-04  1.671101e-07
    169    186   2   0.50000    -0.1200000    0.0600000   2.494471e-04  1.671101e-07
    183    172   2   0.50000     0.0600000   -0.1200000   2.494471e-04  1.671101e-07
    183    185   2   0.50000     0.0600000    0.0600000   6.128906e-05  1.496315e-08
    183    186   2   0.50000     0.0600000    0.0600000   6.128906e-05  1.496315e-08
    184    172   2   0.50000     0.0600000   -0.1200000   2.494471e-04  1.671101e-07
    184    185   2   0.50000     0.0600000    0.0600000   6.128906e-05  1.496315e-08
    184    186   2   0.50000     0.0600000    0.0600000   6.128906e-05  1.496315e-08
    170    173   2   0.50000    -0.1200000   -0.1200000   1.015252e-03  1.866303e-06
    170    187   2   0.50000    -0.1200000    0.0600000   2.494471e-04  1.671101e-07
    170    188   2   0.50000    -0.1200000    0.0600000   2.494471e-04  1.671101e-07
    185    173   2   0.50000     0.0600000   -0.1200000   2.494471e-04  1.671101e-07
    185    187   2   0.50000     0.0600000    0.0600000   6.128906e-05  1.496315e-08
    185    188   2   0.50000     0.0600000    0.0600000   6.128906e-05  1.496315e-08
    186    173   2   0.50000     0.0600000   -0.1200000   2.494471e-04  1.671101e-07
    186    187   2   0.50000     0.0600000    0.0600000   6.128906e-05  1.496315e-08
    186    188   2   0.50000     0.0600000    0.0600000   6.128906e-05  1.496315e-08
    171    174   2   0.50000    -0.1200000   -0.1200000   1.015252e-03  1.866303e-06
    171    189   2   0.50000    -0.1200000    0.0600000   2.494471e-04  1.671101e-07
    171    190   2   0.50000    -0.1200000    0.0600000   2.494471e-04  1.671101e-07
    187    174   2   0.50000     0.0600000   -0.1200000   2.494471e-04  1.671101e-07
    187    189   2   0.50000     0.0600000    0.0600000   6.128906e-05  1.496315e-08
    187    190   2   0.50000     0.0600000    0.0600000   6.128906e-05  1.496315e-08
    188    174   2   0.50000     0.0600000   -0.1200000   2.494471e-04  1.671101e-07
    188    189   2   0.50000     0.0600000    0.0600000   6.128906e-05  1.496315e-08
    188    190   2   0.50000     0.0600000    0.0600000   6.128906e-05  1.496315e-08
    172    175   2   0.50000    -0.1200000   -0.1200000   1.015252e-03  1.866303e-06
    172    191   2   0.50000    -0.1200000    0.0600000   2.494471e-04  1.671101e-07
    172    192   2   0.50000    -0.1200000    0.0600000   2.494471e-04  1.671101e-07
    189    175   2   0.50000     0.0600000   -0.1200000   2.494471e-04  1.671101e-07
    189    191   2   0.50000     0.0600000    0.0600000   6.128906e-05  1.496315e-08
    189    192   2   0.50000     0.0600000    0.0600000   6.128906e-05  1.496315e-08
    190    175   2   0.50000     0.0600000   -0.1200000   2.494471e-04  1.671101e-07
    190    191   2   0.50000     0.0600000    0.0600000   6.128906e-05  1.496315e-08
    190    192   2   0.50000     0.0600000    0.0600000   6.128906e-05  1.496315e-08
    173    176   2   0.50000    -0.1200000   -0.1200000   1.015252e-03  1.866303e-06
    173    193   2   0.50000    -0.1200000    0.0600000   2.494471e-04  1.671101e-07
    173    194   2   0.50000    -0.1200000    0.0600000   2.494471e-04  1.671101e-07
    191    176   2   0.50000     0.0600000   -0.1200000   2.494471e-04  1.671101e-07
    191    193   2   0.50000     0.0600000    0.0600000   6.128906e-05  1.496315e-08
    191    194   2   0.50000     0.0600000    0.0600000   6.128906e-05  1.496315e-08
    192    176   2   0.50000     0.0600000   -0.1200000   2.494471e-04  1.671101e-07
    192    193   2   0.50000     0.0600000    0.0600000   6.128906e-05  1.496315e-08
    192    194   2   0.50000     0.0600000    0.0600000   6.128906e-05  1.496315e-08
    174    177   2   0.50000    -0.1200000   -0.1800000   1.015252e-03  1.866303e-06
    174    195   2   0.50000    -0.1200000    0.0600000   2.494471e-04  1.671101e-07
    174    196   2   0.50000    -0.1200000    0.0600000   2.494471e-04  1.671101e-07
    193    177   2   0.50000     0.0600000   -0.1800000   2.494471e-04  1.671101e-07
    193    195   2   0.50000     0.0600000    0.0600000   6.128906e-05  1.496315e-08
    193    196   2   0.50000     0.0600000    0.0600000   6.128906e-05  1.496315e-08
    194    177   2   0.50000     0.0600000   -0.1800000   2.494471e-04  1.671101e-07
    194    195   2   0.50000     0.0600000    0.0600000   6.128906e-05  1.496315e-08
    194    196   2   0.50000     0.0600000    0.0600000   6.128906e-05  1.496315e-08
    175    197   2   0.50000    -0.1200000    0.0600000   2.494471e-04  1.671101e-07
    175    198   2   0.50000    -0.1200000    0.0600000   2.494471e-04  1.671101e-07
    175    199   2   0.50000    -0.1200000    0.0600000   2.494471e-04  1.671101e-07
    195    197   2   0.50000     0.0600000    0.0600000   6.128906e-05  1.496315e-08
    195    198   2   0.50000     0.0600000    0.0600000   6.128906e-05  1.496315e-08
    195    199   2   0.50000     0.0600000    0.0600000   6.128906e-05  1.496315e-08
    196    197   2   0.50000     0.0600000    0.0600000   6.128906e-05  1.496315e-08
    196    198   2   0.50000     0.0600000    0.0600000   6.128906e-05  1.496315e-08
    196    199   2   0.50000     0.0600000    0.0600000   6.128906e-05  1.496315e-08
    168    202   2   0.50000    -0.0600000   -0.1200000   1.015252e-03  1.866303e-06
    168    213   2   0.50000    -0.0600000    0.0600000   2.494471e-04  1.671101e-07
    168    233   2   0.50000    -0.0600000   -0.1200000   1.015252e-03  1.866303e-06
    211    202   2   0.50000     0.0600000   -0.1200000   2.494471e-04  1.671101e-07
    211    213   2   0.50000     0.0600000    0.0600000   6.128906e-05  1.496315e-08
    211    233   2   0.50000     0.0600000   -0.1200000   2.494471e-04  1.671101e-07
    212    202   2   0.50000     0.0600000   -0.1200000   2.494471e-04  1.671101e-07
    212    213   2   0.50000     0.0600000    0.0600000   6.128906e-05  1.496315e-08
    212    233   2   0.50000     0.0600000   -0.1200000   2.494471e-04  1.671101e-07
    200    203   2   0.50000    -0.1200000   -0.1200000   1.015252e-03  1.866303e-06
    200    214   2   0.50000    -0.1200000    0.0600000   2.494471e-04  1.671101e-07
    200    215   2   0.50000    -0.1200000    0.0600000   2.494471e-04  1.671101e-07
    213    203   2   0.50000     0.0600000   -0.1200000   2.494471e-04  1.671101e-07
    213    214   2   0.50000     0.0600000    0.0600000   6.128906e-05  1.496315e-08
    213    215   2   0.50000     0.0600000    0.0600000   6.128906e-05  1.496315e-08
    233    203   2   0.50000    -0.1200000   -0.1200000   1.015252e-03  1.866303e-06
    233    214   2   0.50000    -0.1200000    0.0600000   2.494471e-04  1.671101e-07
    233    215   2   0.50000    -0.1200000    0.0600000   2.494471e-04  1.671101e-07
    200    234   2   0.50000    -0.1200000   -0.0600000   1.015252e-03  1.866303e-06
    200    244   2   0.50000    -0.1200000    0.0600000   2.494471e-04  1.671101e-07
    200    245   2   0.50000    -0.1200000    0.0600000   2.494471e-04  1.671101e-07
    202    234   2   0.50000    -0.1200000   -0.0600000   1.015252e-03  1.866303e-06
    202    244   2   0.50000    -0.1200000    0.0600000   2.494471e-04  1.671101e-07
    202    245   2   0.50000    -0.1200000    0.0600000   2.494471e-04  1.671101e-07
    213    234   2   0.50000     0.0600000   -0.0600000   2.494471e-04  1.671101e-07
    213    244   2   0.50000     0.0600000    0.0600000   6.128906e-05  1.496315e-08
    213    245   2   0.50000     0.0600000    0.0600000   6.128906e-05  1.496315e-08
    201    204   2   0.50000    -0.0600000   -0.1200000   1.015252e-03  1.866303e-06
    201    216   2   0.50000    -0.0600000    0.0600000   2.494471e-04  1.671101e-07
    201    217   2   0.50000    -0.0600000    0.0600000   2.494471e-04  1.671101e-07
    214    204   2   0.50000     0.0600000   -0.1200000   2.494471e-04  1.671101e-07
    214    216   2   0.50000     0.0600000    0.0600000   6.128906e-05  1.496315e-08
    214    217   2   0.50000     0.0600000    0.0600000   6.128906e-05  1.496315e-08
    215    204   2   0.50000     0.0600000   -0.1200000   2.494471e-04  1.671101e-07
    215    216   2   0.50000     0.0600000    0.0600000   6.128906e-05  1.496315e-08
    215    217   2   0.50000     0.0600000    0.0600000   6.128906e-05  1.496315e-08
    202    205   2   0.50000    -0.1200000   -0.1200000   1.015252e-03  1.866303e-06
    202    218   2   0.50000    -0.1200000    0.0600000   2.494471e-04  1.671101e-07
    202    219   2   0.50000    -0.1200000    0.0600000   2.494471e-04  1.671101e-07
    216    205   2   0.50000     0.0600000   -0.1200000   2.494471e-04  1.671101e-07
    216    218   2   0.50000     0.0600000    0.0600000   6.128906e-05  1.496315e-08
    216    219   2   0.50000     0.0600000    0.0600000   6.128906e-05  1.496315e-08
    217    205   2   0.50000     0.0600000   -0.1200000   2.494471e-04  1.671101e-07
    217    218   2   0.50000     0.0600000    0.0600000   6.128906e-05  1.496315e-08
    217    219   2   0.50000     0.0600000    0.0600000   6.128906e-05  1.496315e-08
    203    206   2   0.50000    -0.1200000   -0.1200000   1.015252e-03  1.866303e-06
    203    220   2   0.50000    -0.1200000    0.0600000   2.494471e-04  1.671101e-07
    203    221   2   0.50000    -0.1200000    0.0600000   2.494471e-04  1.671101e-07
    218    206   2   0.50000     0.0600000   -0.1200000   2.494471e-04  1.671101e-07
    218    220   2   0.50000     0.0600000    0.0600000   6.128906e-05  1.496315e-08
    218    221   2   0.50000     0.0600000    0.0600000   6.128906e-05  1.496315e-08
    219    206   2   0.50000     0.0600000   -0.1200000   2.494471e-04  1.671101e-07
    219    220   2   0.50000     0.0600000    0.0600000   6.128906e-05  1.496315e-08
    219    221   2   0.50000     0.0600000    0.0600000   6.128906e-05  1.496315e-08
    204    207   2   0.50000    -0.1200000   -0.1200000   1.015252e-03  1.866303e-06
    204    222   2   0.50000    -0.1200000    0.0600000   2.494471e-04  1.671101e-07
    204    223   2   0.50000    -0.1200000    0.0600000   2.494471e-04  1.671101e-07
    220    207   2   0.50000     0.0600000   -0.1200000   2.494471e-04  1.671101e-07
    220    222   2   0.50000     0.0600000    0.0600000   6.128906e-05  1.496315e-08
    220    223   2   0.50000     0.0600000    0.0600000   6.128906e-05  1.496315e-08
    221    207   2   0.50000     0.0600000   -0.1200000   2.494471e-04  1.671101e-07
    221    222   2   0.50000     0.0600000    0.0600000   6.128906e-05  1.496315e-08
    221    223   2   0.50000     0.0600000    0.0600000   6.128906e-05  1.496315e-08
    205    208   2   0.50000    -0.1200000   -0.1200000   1.015252e-03  1.866303e-06
    205    224   2   0.50000    -0.1200000    0.0600000   2.494471e-04  1.671101e-07
    205    225   2   0.50000    -0.1200000    0.0600000   2.494471e-04  1.671101e-07
    222    208   2   0.50000     0.0600000   -0.1200000   2.494471e-04  1.671101e-07
    222    224   2   0.50000     0.0600000    0.0600000   6.128906e-05  1.496315e-08
    222    225   2   0.50000     0.0600000    0.0600000   6.128906e-05  1.496315e-08
    223    208   2   0.50000     0.0600000   -0.1200000   2.494471e-04  1.671101e-07
    223    224   2   0.50000     0.0600000    0.0600000   6.128906e-05  1.496315e-08
    223    225   2   0.50000     0.0600000    0.0600000   6.128906e-05  1.496315e-08
    206    209   2   0.50000    -0.1200000   -0.1200000   1.015252e-03  1.866303e-06
    206    226   2   0.50000    -0.1200000    0.0600000   2.494471e-04  1.671101e-07
    206    227   2   0.50000    -0.1200000    0.0600000   2.494471e-04  1.671101e-07
    224    209   2   0.50000     0.0600000   -0.1200000   2.494471e-04  1.671101e-07
    224    226   2   0.50000     0.0600000    0.0600000   6.128906e-05  1.496315e-08
    224    227   2   0.50000     0.0600000    0.0600000   6.128906e-05  1.496315e-08
    225    209   2   0.50000     0.0600000   -0.1200000   2.494471e-04  1.671101e-07
    225    226   2   0.50000     0.0600000    0.0600000   6.128906e-05  1.496315e-08
    225    227   2   0.50000     0.0600000    0.0600000   6.128906e-05  1.496315e-08
    207    210   2   0.50000    -0.1200000   -0.1800000   1.015252e-03  1.866303e-06
    207    228   2   0.50000    -0.1200000    0.0600000   2.494471e-04  1.671101e-07
    207    229   2   0.50000    -0.1200000    0.0600000   2.494471e-04  1.671101e-07
    226    210   2   0.50000     0.0600000   -0.1800000   2.494471e-04  1.671101e-07
    226    228   2   0.50000     0.0600000    0.0600000   6.128906e-05  1.496315e-08
    226    229   2   0.50000     0.0600000    0.0600000   6.128906e-05  1.496315e-08
    227    210   2   0.50000     0.0600000   -0.1800000   2.494471e-04  1.671101e-07
    227    228   2   0.50000     0.0600000    0.0600000   6.128906e-05  1.496315e-08
    227    229   2   0.50000     0.0600000    0.0600000   6.128906e-05  1.496315e-08
    208    230   2   0.50000    -0.1200000    0.0600000   2.494471e-04  1.671101e-07
    208    231   2   0.50000    -0.1200000    0.0600000   2.494471e-04  1.671101e-07
    208    232   2   0.50000    -0.1200000    0.0600000   2.494471e-04  1.671101e-07
    228    230   2   0.50000     0.0600000    0.0600000   6.128906e-05  1.496315e-08
    228    231   2   0.50000     0.0600000    0.0600000   6.128906e-05  1.496315e-08
    228    232   2   0.50000     0.0600000    0.0600000   6.128906e-05  1.496315e-08
    229    230   2   0.50000     0.0600000    0.0600000   6.128906e-05  1.496315e-08
    229    231   2   0.50000     0.0600000    0.0600000   6.128906e-05  1.496315e-08
    229    232   2   0.50000     0.0600000    0.0600000   6.128906e-05  1.496315e-08
    201    235   2   0.50000    -0.0600000   -0.1200000   1.015252e-03  1.866303e-06
    201    246   2   0.50000    -0.0600000    0.0600000   2.494471e-04  1.671101e-07
    201    266   2   0.50000    -0.0600000   -0.1200000   1.015252e-03  1.866303e-06
    244    235   2   0.50000     0.0600000   -0.1200000   2.494471e-04  1.671101e-07
    244    246   2   0.50000     0.0600000    0.0600000   6.128906e-05  1.496315e-08
    244    266   2   0.50000     0.0600000   -0.1200000   2.494471e-04  1.671101e-07
    245    235   2   0.50000     0.0600000   -0.1200000   2.494471e-04  1.671101e-07
    245    246   2   0.50000     0.0600000    0.0600000   6.128906e-05  1.496315e-08
    245    266   2   0.50000     0.0600000   -0.1200000   2.494471e-04  1.671101e-07
    233    236   2   0.50000    -0.1200000   -0.1200000   1.015252e-03  1.866303e-06
    233    247   2   0.50000    -0.1200000    0.0600000   2.494471e-04  1.671101e-07
    233    248   2   0.50000    -0.1200000    0.0600000   2.494471e-04  1.671101e-07
    246    236   2   0.50000     0.0600000   -0.1200000   2.494471e-04  1.671101e-07
    246    247   2   0.50000     0.0600000    0.0600000   6.128906e-05  1.496315e-08
    246    248   2   0.50000     0.0600000    0.0600000   6.128906e-05  1.496315e-08
    266    236   2   0.50000    -0.1200000   -0.1200000   1.015252e-03  1.866303e-06
    266    247   2   0.50000    -0.1200000    0.0600000   2.494471e-04  1.671101e-07
    266    248   2   0.50000    -0.1200000    0.0600000   2.494471e-04  1.671101e-07
    233    267   2   0.50000    -0.1200000   -0.0600000   1.015252e-03  1.866303e-06
    233    277   2   0.50000    -0.1200000    0.0600000   2.494471e-04  1.671101e-07
    233    278   2   0.50000    -0.1200000    0.0600000   2.494471e-04  1.671101e-07
    235    267   2   0.50000    -0.1200000   -0.0600000   1.015252e-03  1.866303e-06
    235    277   2   0.50000    -0.1200000    0.0600000   2.494471e-04  1.671101e-07
    235    278   2   0.50000    -0.1200000    0.0600000   2.494471e-04  1.671101e-07
    246    267   2   0.50000     0.0600000   -0.0600000   2.494471e-04  1.671101e-07
    246    277   2   0.50000     0.0600000    0.0600000   6.128906e-05  1.496315e-08
    246    278   2   0.50000     0.0600000    0.0600000   6.128906e-05  1.496315e-08
    234    237   2   0.50000    -0.0600000   -0.1200000   1.015252e-03  1.866303e-06
    234    249   2   0.50000    -0.0600000    0.0600000   2.494471e-04  1.671101e-07
    234    250   2   0.50000    -0.0600000    0.0600000   2.494471e-04  1.671101e-07
    247    237   2   0.50000     0.0600000   -0.1200000   2.494471e-04  1.671101e-07
    247    249   2   0.50000     0.0600000    0.0600000   6.128906e-05  1.496315e-08
    247    250   2   0.50000     0.0600000    0.0600000   6.128906e-05  1.496315e-08
    248    237   2   0.50000     0.0600000   -0.1200000   2.494471e-04  1.671101e-07
    248    249   2   0.50000     0.0600000    0.0600000   6.128906e-05  1.496315e-08
    248    250   2   0.50000     0.0600000    0.0600000   6.128906e-05  1.496315e-08
    235    238   2   0.50000    -0.1200000   -0.1200000   1.015252e-03  1.866303e-06
    235    251   2   0.50000    -0.1200000    0.0600000   2.494471e-04  1.671101e-07
    235    252   2   0.50000    -0.1200000    0.0600000   2.494471e-04  1.671101e-07
    249    238   2   0.50000     0.0600000   -0.1200000   2.494471e-04  1.671101e-07
    249    251   2   0.50000     0.0600000    0.0600000   6.128906e-05  1.496315e-08
    249    252   2   0.50000     0.0600000    0.0600000   6.128906e-05  1.496315e-08
    250    238   2   0.50000     0.0600000   -0.1200000   2.494471e-04  1.671101e-07
    250    251   2   0.50000     0.0600000    0.0600000   6.128906e-05  1.496315e-08
    250    252   2   0.50000     0.0600000    0.0600000   6.128906e-05  1.496315e-08
    236    239   2   0.50000    -0.1200000   -0.1200000   1.015252e-03  1.866303e-06
    236    253   2   0.50000    -0.1200000    0.0600000   2.494471e-04  1.671101e-07
    236    254   2   0.50000    -0.1200000    0.0600000   2.494471e-04  1.671101e-07
    251    239   2   0.50000     0.0600000   -0.1200000   2.494471e-04  1.671101e-07
    251    253   2   0.50000     0.0600000    0.0600000   6.128906e-05  1.496315e-08
    251    254   2   0.50000     0.0600000    0.0600000   6.128906e-05  1.496315e-08
    252    239   2   0.50000     0.0600000   -0.1200000   2.494471e-04  1.671101e-07
    252    253   2   0.50000     0.0600000    0.0600000   6.128906e-05  1.496315e-08
    252    254   2   0.50000     0.0600000    0.0600000   6.128906e-05  1.496315e-08
    237    240   2   0.50000    -0.1200000   -0.1200000   1.015252e-03  1.866303e-06
    237    255   2   0.50000    -0.1200000    0.0600000   2.494471e-04  1.671101e-07
    237    256   2   0.50000    -0.1200000    0.0600000   2.494471e-04  1.671101e-07
    253    240   2   0.50000     0.0600000   -0.1200000   2.494471e-04  1.671101e-07
    253    255   2   0.50000     0.0600000    0.0600000   6.128906e-05  1.496315e-08
    253    256   2   0.50000     0.0600000    0.0600000   6.128906e-05  1.496315e-08
    254    240   2   0.50000     0.0600000   -0.1200000   2.494471e-04  1.671101e-07
    254    255   2   0.50000     0.0600000    0.0600000   6.128906e-05  1.496315e-08
    254    256   2   0.50000     0.0600000    0.0600000   6.128906e-05  1.496315e-08
    238    241   2   0.50000    -0.1200000   -0.1200000   1.015252e-03  1.866303e-06
    238    257   2   0.50000    -0.1200000    0.0600000   2.494471e-04  1.671101e-07
    238    258   2   0.50000    -0.1200000    0.0600000   2.494471e-04  1.671101e-07
    255    241   2   0.50000     0.0600000   -0.1200000   2.494471e-04  1.671101e-07
    255    257   2   0.50000     0.0600000    0.0600000   6.128906e-05  1.496315e-08
    255    258   2   0.50000     0.0600000    0.0600000   6.128906e-05  1.496315e-08
    256    241   2   0.50000     0.0600000   -0.1200000   2.494471e-04  1.671101e-07
    256    257   2   0.50000     0.0600000    0.0600000   6.128906e-05  1.496315e-08
    256    258   2   0.50000     0.0600000    0.0600000   6.128906e-05  1.496315e-08
    239    242   2   0.50000    -0.1200000   -0.1200000   1.015252e-03  1.866303e-06
    239    259   2   0.50000    -0.1200000    0.0600000   2.494471e-04  1.671101e-07
    239    260   2   0.50000    -0.1200000    0.0600000   2.494471e-04  1.671101e-07
    257    242   2   0.50000     0.0600000   -0.1200000   2.494471e-04  1.671101e-07
    257    259   2   0.50000     0.0600000    0.0600000   6.128906e-05  1.496315e-08
    257    260   2   0.50000     0.0600000    0.0600000   6.128906e-05  1.496315e-08
    258    242   2   0.50000     0.0600000   -0.1200000   2.494471e-04  1.671101e-07
    258    259   2   0.50000     0.0600000    0.0600000   6.128906e-05  1.496315e-08
    258    260   2   0.50000     0.0600000    0.0600000   6.128906e-05  1.496315e-08
    240    243   2   0.50000    -0.1200000   -0.1800000   1.015252e-03  1.866303e-06
    240    261   2   0.50000    -0.1200000    0.0600000   2.494471e-04  1.671101e-07
    240    262   2   0.50000    -0.1200000    0.0600000   2.494471e-04  1.671101e-07
    259    243   2   0.50000     0.0600000   -0.1800000   2.494471e-04  1.671101e-07
    259    261   2   0.50000     0.0600000    0.0600000   6.128906e-05  1.496315e-08
    259    262   2   0.50000     0.0600000    0.0600000   6.128906e-05  1.496315e-08
    260    243   2   0.50000     0.0600000   -0.1800000   2.494471e-04  1.671101e-07
    260    261   2   0.50000     0.0600000    0.0600000   6.128906e-05  1.496315e-08
    260    262   2   0.50000     0.0600000    0.0600000   6.128906e-05  1.496315e-08
    241    263   2   0.50000    -0.1200000    0.0600000   2.494471e-04  1.671101e-07
    241    264   2   0.50000    -0.1200000    0.0600000   2.494471e-04  1.671101e-07
    241    265   2   0.50000    -0.1200000    0.0600000   2.494471e-04  1.671101e-07
    261    263   2   0.50000     0.0600000    0.0600000   6.128906e-05  1.496315e-08
    261    264   2   0.50000     0.0600000    0.0600000   6.128906e-05  1.496315e-08
    261    265   2   0.50000     0.0600000    0.0600000   6.128906e-05  1.496315e-08
    262    263   2   0.50000     0.0600000    0.0600000   6.128906e-05  1.496315e-08
    262    264   2   0.50000     0.0600000    0.0600000   6.128906e-05  1.496315e-08
    262    265   2   0.50000     0.0600000    0.0600000   6.128906e-05  1.496315e-08
    234    268   2   0.50000    -0.0600000   -0.1200000   1.015252e-03  1.866303e-06
    234    279   2   0.50000    -0.0600000    0.0600000   2.494471e-04  1.671101e-07
    234    299   2   0.50000    -0.0600000   -0.1200000   1.015252e-03  1.866303e-06
    277    268   2   0.50000     0.0600000   -0.1200000   2.494471e-04  1.671101e-07
    277    279   2   0.50000     0.0600000    0.0600000   6.128906e-05  1.496315e-08
    277    299   2   0.50000     0.0600000   -0.1200000   2.494471e-04  1.671101e-07
    278    268   2   0.50000     0.0600000   -0.1200000   2.494471e-04  1.671101e-07
    278    279   2   0.50000     0.0600000    0.0600000   6.128906e-05  1.496315e-08
    278    299   2   0.50000     0.0600000   -0.1200000   2.494471e-04  1.671101e-07
    266    269   2   0.50000    -0.1200000   -0.1200000   1.015252e-03  1.866303e-06
    266    280   2   0.50000    -0.1200000    0.0600000   2.494471e-04  1.671101e-07
    266    281   2   0.50000    -0.1200000    0.0600000   2.494471e-04  1.671101e-07
    279    269   2   0.50000     0.0600000   -0.1200000   2.494471e-04  1.671101e-07
    279    280   2   0.50000     0.0600000    0.0600000   6.128906e-05  1.496315e-08
    279    281   2   0.50000     0.0600000    0.0600000   6.128906e-05  1.496315e-08
    299    269   2   0.50000    -0.1200000   -0.1200000   1.015252e-03  1.866303e-06
    299    280   2   0.50000    -0.1200000    0.0600000   2.494471e-04  1.671101e-07
    299    281   2   0.50000    -0.1200000    0.0600000   2.494471e-04  1.671101e-07
    266    300   2   0.50000    -0.1200000   -0.0600000   1.015252e-03  1.866303e-06
    266    310   2   0.50000    -0.1200000    0.0600000   2.494471e-04  1.671101e-07
    266    311   2   0.50000    -0.1200000    0.0600000   2.494471e-04  1.671101e-07
    268    300   2   0.50000    -0.1200000   -0.0600000   1.015252e-03  1.866303e-06
    268    310   2   0.50000    -0.1200000    0.0600000   2.494471e-04  1.671101e-07
    268    311   2   0.50000    -0.1200000    0.0600000   2.494471e-04  1.671101e-07
    279    300   2   0.50000     0.0600000   -0.0600000   2.494471e-04  1.671101e-07
    279    310   2   0.50000     0.0600000    0.0600000   6.128906e-05  1.496315e-08
    279    311   2   0.50000     0.0600000    0.0600000   6.128906e-05  1.496315e-08
    267    270   2   0.50000    -0.0600000   -0.1200000   1.015252e-03  1.866303e-06
    267    282   2   0.50000    -0.0600000    0.0600000   2.494471e-04  1.671101e-07
    267    283   2   0.50000    -0.0600000    0.0600000   2.494471e-04  1.671101e-07
    280    270   2   0.50000     0.0600000   -0.1200000   2.494471e-04  1.671101e-07
    280    282   2   0.50000     0.0600000    0.0600000   6.128906e-05  1.496315e-08
    280    283   2   0.50000     0.0600000    0.0600000   6.128906e-05  1.496315e-08
    281    270   2   0.50000     0.0600000   -0.1200000   2.494471e-04  1.671101e-07
    281    282   2   0.50000     0.0600000    0.0600000   6.128906e-05  1.496315e-08
    281    283   2   0.50000     0.0600000    0.0600000   6.128906e-05  1.496315e-08
    268    271   2   0.50000    -0.1200000   -0.1200000   1.015252e-03  1.866303e-06
    268    284   2   0.50000    -0.1200000    0.0600000   2.494471e-04  1.671101e-07
    268    285   2   0.50000    -0.1200000    0.0600000   2.494471e-04  1.671101e-07
    282    271   2   0.50000     0.0600000   -0.1200000   2.494471e-04  1.671101e-07
    282    284   2   0.50000     0.0600000    0.0600000   6.128906e-05  1.496315e-08
    282    285   2   0.50000     0.0600000    0.0600000   6.128906e-05  1.496315e-08
    283    271   2   0.50000     0.0600000   -0.1200000   2.494471e-04  1.671101e-07
    283    284   2   0.50000     0.0600000    0.0600000   6.128906e-05  1.496315e-08
    283    285   2   0.50000     0.0600000    0.0600000   6.128906e-05  1.496315e-08
    269    272   2   0.50000    -0.1200000   -0.1200000   1.015252e-03  1.866303e-06
    269    286   2   0.50000    -0.1200000    0.0600000   2.494471e-04  1.671101e-07
    269    287   2   0.50000    -0.1200000    0.0600000   2.494471e-04  1.671101e-07
    284    272   2   0.50000     0.0600000   -0.1200000   2.494471e-04  1.671101e-07
    284    286   2   0.50000     0.0600000    0.0600000   6.128906e-05  1.496315e-08
    284    287   2   0.50000     0.0600000    0.0600000   6.128906e-05  1.496315e-08
    285    272   2   0.50000     0.0600000   -0.1200000   2.494471e-04  1.671101e-07
    285    286   2   0.50000     0.0600000    0.0600000   6.128906e-05  1.496315e-08
    285    287   2   0.50000     0.0600000    0.0600000   6.128906e-05  1.496315e-08
    270    273   2   0.50000    -0.1200000   -0.1200000   1.015252e-03  1.866303e-06
    270    288   2   0.50000    -0.1200000    0.0600000   2.494471e-04  1.671101e-07
    270    289   2   0.50000    -0.1200000    0.0600000   2.494471e-04  1.671101e-07
    286    273   2   0.50000     0.0600000   -0.1200000   2.494471e-04  1.671101e-07
    286    288   2   0.50000     0.0600000    0.0600000   6.128906e-05  1.496315e-08
    286    289   2   0.50000     0.0600000    0.0600000   6.128906e-05  1.496315e-08
    287    273   2   0.50000     0.0600000   -0.1200000   2.494471e-04  1.671101e-07
    287    288   2   0.50000     0.0600000    0.0600000   6.128906e-05  1.496315e-08
    287    289   2   0.50000     0.0600000    0.0600000   6.128906e-05  1.496315e-08
    271    274   2   0.50000    -0.1200000   -0.1200000   1.015252e-03  1.866303e-06
    271    290   2   0.50000    -0.1200000    0.0600000   2.494471e-04  1.671101e-07
    271    291   2   0.50000    -0.1200000    0.0600000   2.494471e-04  1.671101e-07
    288    274   2   0.50000     0.0600000   -0.1200000   2.494471e-04  1.671101e-07
    288    290   2   0.50000     0.0600000    0.0600000   6.128906e-05  1.496315e-08
    288    291   2   0.50000     0.0600000    0.0600000   6.128906e-05  1.496315e-08
    289    274   2   0.50000     0.0600000   -0.1200000   2.494471e-04  1.671101e-07
    289    290   2   0.50000     0.0600000    0.0600000   6.128906e-05  1.496315e-08
    289    291   2   0.50000     0.0600000    0.0600000   6.128906e-05  1.496315e-08
    272    275   2   0.50000    -0.1200000   -0.1200000   1.015252e-03  1.866303e-06
    272    292   2   0.50000    -0.1200000    0.0600000   2.494471e-04  1.671101e-07
    272    293   2   0.50000    -0.1200000    0.0600000   2.494471e-04  1.671101e-07
    290    275   2   0.50000     0.0600000   -0.1200000   2.494471e-04  1.671101e-07
    290    292   2   0.50000     0.0600000    0.0600000   6.128906e-05  1.496315e-08
    290    293   2   0.50000     0.0600000    0.0600000   6.128906e-05  1.496315e-08
    291    275   2   0.50000     0.0600000   -0.1200000   2.494471e-04  1.671101e-07
    291    292   2   0.50000     0.0600000    0.0600000   6.128906e-05  1.496315e-08
    291    293   2   0.50000     0.0600000    0.0600000   6.128906e-05  1.496315e-08
    273    276   2   0.50000    -0.1200000   -0.1800000   1.015252e-03  1.866303e-06
    273    294   2   0.50000    -0.1200000    0.0600000   2.494471e-04  1.671101e-07
    273    295   2   0.50000    -0.1200000    0.0600000   2.494471e-04  1.671101e-07
    292    276   2   0.50000     0.0600000   -0.1800000   2.494471e-04  1.671101e-07
    292    294   2   0.50000     0.0600000    0.0600000   6.128906e-05  1.496315e-08
    292    295   2   0.50000     0.0600000    0.0600000   6.128906e-05  1.496315e-08
    293    276   2   0.50000     0.0600000   -0.1800000   2.494471e-04  1.671101e-07
    293    294   2   0.50000     0.0600000    0.0600000   6.128906e-05  1.496315e-08
    293    295   2   0.50000     0.0600000    0.0600000   6.128906e-05  1.496315e-08
    274    296   2   0.50000    -0.1200000    0.0600000   2.494471e-04  1.671101e-07
    274    297   2   0.50000    -0.1200000    0.0600000   2.494471e-04  1.671101e-07
    274    298   2   0.50000    -0.1200000    0.0600000   2.494471e-04  1.671101e-07
    294    296   2   0.50000     0.0600000    0.0600000   6.128906e-05  1.496315e-08
    294    297   2   0.50000     0.0600000    0.0600000   6.128906e-05  1.496315e-08
    294    298   2   0.50000     0.0600000    0.0600000   6.128906e-05  1.496315e-08
    295    296   2   0.50000     0.0600000    0.0600000   6.128906e-05  1.496315e-08
    295    297   2   0.50000     0.0600000    0.0600000   6.128906e-05  1.496315e-08
    295    298   2   0.50000     0.0600000    0.0600000   6.128906e-05  1.496315e-08
    267    301   2   0.50000    -0.0600000   -0.1200000   1.015252e-03  1.866303e-06
    267    312   2   0.50000    -0.0600000    0.0600000   2.494471e-04  1.671101e-07
    267    332   2   0.50000    -0.0600000   -0.1200000   1.015252e-03  1.866303e-06
    310    301   2   0.50000     0.0600000   -0.1200000   2.494471e-04  1.671101e-07
    310    312   2   0.50000     0.0600000    0.0600000   6.128906e-05  1.496315e-08
    310    332   2   0.50000     0.0600000   -0.1200000   2.494471e-04  1.671101e-07
    311    301   2   0.50000     0.0600000   -0.1200000   2.494471e-04  1.671101e-07
    311    312   2   0.50000     0.0600000    0.0600000   6.128906e-05  1.496315e-08
    311    332   2   0.50000     0.0600000   -0.1200000   2.494471e-04  1.671101e-07
    299    302   2   0.50000    -0.1200000   -0.1200000   1.015252e-03  1.866303e-06
    299    313   2   0.50000    -0.1200000    0.0600000   2.494471e-04  1.671101e-07
    299    314   2   0.50000    -0.1200000    0.0600000   2.494471e-04  1.671101e-07
    312    302   2   0.50000     0.0600000   -0.1200000   2.494471e-04  1.671101e-07
    312    313   2   0.50000     0.0600000    0.0600000   6.128906e-05  1.496315e-08
    312    314   2   0.50000     0.0600000    0.0600000   6.128906e-05  1.496315e-08
    332    302   2   0.50000    -0.1200000   -0.1200000   1.015252e-03  1.866303e-06
    332    313   2   0.50000    -0.1200000    0.0600000   2.494471e-04  1.671101e-07
    332    314   2   0.50000    -0.1200000    0.0600000   2.494471e-04  1.671101e-07
    299    333   2   0.50000    -0.1200000   -0.0600000   1.015252e-03  1.866303e-06
    299    343   2   0.50000    -0.1200000    0.0600000   2.494471e-04  1.671101e-07
    299    344   2   0.50000    -0.1200000    0.0600000   2.494471e-04  1.671101e-07
    301    333   2   0.50000    -0.1200000   -0.0600000   1.015252e-03  1.866303e-06
    301    343   2   0.50000    -0.1200000    0.0600000   2.494471e-04  1.671101e-07
    301    344   2   0.50000    -0.1200000    0.0600000   2.494471e-04  1.671101e-07
    312    333   2   0.50000     0.0600000   -0.0600000   2.494471e-04  1.671101e-07
    312    343   2   0.50000     0.0600000    0.0600000   6.128906e-05  1.496315e-08
    312    344   2   0.50000     0.0600000    0.0600000   6.128906e-05  1.496315e-08
    300    303   2   0.50000    -0.0600000   -0.1200000   1.015252e-03  1.866303e-06
    300    315   2   0.50000    -0.0600000    0.0600000   2.494471e-04  1.671101e-07
    300    316   2   0.50000    -0.0600000    0.0600000   2.494471e-04  1.671101e-07
    313    303   2   0.50000     0.0600000   -0.1200000   2.494471e-04  1.671101e-07
    313    315   2   0.50000     0.0600000    0.0600000   6.128906e-05  1.496315e-08
    313    316   2   0.50000     0.0600000    0.0600000   6.128906e-05  1.496315e-08
    314    303   2   0.50000     0.0600000   -0.1200000   2.494471e-04  1.671101e-07
    314    315   2   0.50000     0.0600000    0.0600000   6.128906e-05  1.496315e-08
    314    316   2   0.50000     0.0600000    0.0600000   6.128906e-05  1.496315e-08
    301    304   2   0.50000    -0.1200000   -0.1200000   1.015252e-03  1.866303e-06
    301    317   2   0.50000    -0.1200000    0.0600000   2.494471e-04  1.671101e-07
    301    318   2   0.50000    -0.1200000    0.0600000   2.494471e-04  1.671101e-07
    315    304   2   0.50000     0.0600000   -0.1200000   2.494471e-04  1.671101e-07
    315    317   2   0.50000     0.0600000    0.0600000   6.128906e-05  1.496315e-08
    315    318   2   0.50000     0.0600000    0.0600000   6.128906e-05  1.496315e-08
    316    304   2   0.50000     0.0600000   -0.1200000   2.494471e-04  1.671101e-07
    316    317   2   0.50000     0.0600000    0.0600000   6.128906e-05  1.496315e-08
    316    318   2   0.50000     0.0600000    0.0600000   6.128906e-05  1.496315e-08
    302    305   2   0.50000    -0.1200000   -0.1200000   1.015252e-03  1.866303e-06
    302    319   2   0.50000    -0.1200000    0.0600000   2.494471e-04  1.671101e-07
    302    320   2   0.50000    -0.1200000    0.0600000   2.494471e-04  1.671101e-07
    317    305   2   0.50000     0.0600000   -0.1200000   2.494471e-04  1.671101e-07
    317    319   2   0.50000     0.0600000    0.0600000   6.128906e-05  1.496315e-08
    317    320   2   0.50000     0.0600000    0.0600000   6.128906e-05  1.496315e-08
    318    305   2   0.50000     0.0600000   -0.1200000   2.494471e-04  1.671101e-07
    318    319   2   0.50000     0.0600000    0.0600000   6.128906e-05  1.496315e-08
    318    320   2   0.50000     0.0600000    0.0600000   6.128906e-05  1.496315e-08
    303    306   2   0.50000    -0.1200000   -0.1200000   1.015252e-03  1.866303e-06
    303    321   2   0.50000    -0.1200000    0.0600000   2.494471e-04  1.671101e-07
    303    322   2   0.50000    -0.1200000    0.0600000   2.494471e-04  1.671101e-07
    319    306   2   0.50000     0.0600000   -0.1200000   2.494471e-04  1.671101e-07
    319    321   2   0.50000     0.0600000    0.0600000   6.128906e-05  1.496315e-08
    319    322   2   0.50000     0.0600000    0.0600000   6.128906e-05  1.496315e-08
    320    306   2   0.50000     0.0600000   -0.1200000   2.494471e-04  1.671101e-07
    320    321   2   0.50000     0.0600000    0.0600000   6.128906e-05  1.496315e-08
    320    322   2   0.50000     0.0600000    0.0600000   6.128906e-05  1.496315e-08
    304    307   2   0.50000    -0.1200000   -0.1200000   1.015252e-03  1.866303e-06
    304    323   2   0.50000    -0.1200000    0.0600000   2.494471e-04  1.671101e-07
    304    324   2   0.50000    -0.1200000    0.0600000   2.494471e-04  1.671101e-07
    321    307   2   0.50000     0.0600000   -0.1200000   2.494471e-04  1.671101e-07
    321    323   2   0.50000     0.0600000    0.0600000   6.128906e-05  1.496315e-08
    321    324   2   0.50000     0.0600000    0.0600000   6.128906e-05  1.496315e-08
    322    307   2   0.50000     0.0600000   -0.1200000   2.494471e-04  1.671101e-07
    322    323   2   0.50000     0.0600000    0.0600000   6.128906e-05  1.496315e-08
    322    324   2   0.50000     0.0600000    0.0600000   6.128906e-05  1.496315e-08
    305    308   2   0.50000    -0.1200000   -0.1200000   1.015252e-03  1.866303e-06
    305    325   2   0.50000    -0.1200000    0.0600000   2.494471e-04  1.671101e-07
    305    326   2   0.50000    -0.1200000    0.0600000   2.494471e-04  1.671101e-07
    323    308   2   0.50000     0.0600000   -0.1200000   2.494471e-04  1.671101e-07
    323    325   2   0.50000     0.0600000    0.0600000   6.128906e-05  1.496315e-08
    323    326   2   0.50000     0.0600000    0.0600000   6.128906e-05  1.496315e-08
    324    308   2   0.50000     0.0600000   -0.1200000   2.494471e-04  1.671101e-07
    324    325   2   0.50000     0.0600000    0.0600000   6.128906e-05  1.496315e-08
    324    326   2   0.50000     0.0600000    0.0600000   6.128906e-05  1.496315e-08
    306    309   2   0.50000    -0.1200000   -0.1800000   1.015252e-03  1.866303e-06
    306    327   2   0.50000    -0.1200000    0.0600000   2.494471e-04  1.671101e-07
    306    328   2   0.50000    -0.1200000    0.0600000   2.494471e-04  1.671101e-07
    325    309   2   0.50000     0.0600000   -0.1800000   2.494471e-04  1.671101e-07
    325    327   2   0.50000     0.0600000    0.0600000   6.128906e-05  1.496315e-08
    325    328   2   0.50000     0.0600000    0.0600000   6.128906e-05  1.496315e-08
    326    309   2   0.50000     0.0600000   -0.1800000   2.494471e-04  1.671101e-07
    326    327   2   0.50000     0.0600000    0.0600000   6.128906e-05  1.496315e-08
    326    328   2   0.50000     0.0600000    0.0600000   6.128906e-05  1.496315e-08
    307    329   2   0.50000    -0.1200000    0.0600000   2.494471e-04  1.671101e-07
    307    330   2   0.50000    -0.1200000    0.0600000   2.494471e-04  1.671101e-07
    307    331   2   0.50000    -0.1200000    0.0600000   2.494471e-04  1.671101e-07
    327    329   2   0.50000     0.0600000    0.0600000   6.128906e-05  1.496315e-08
    327    330   2   0.50000     0.0600000    0.0600000   6.128906e-05  1.496315e-08
    327    331   2   0.50000     0.0600000    0.0600000   6.128906e-05  1.496315e-08
    328    329   2   0.50000     0.0600000    0.0600000   6.128906e-05  1.496315e-08
    328    330   2   0.50000     0.0600000    0.0600000   6.128906e-05  1.496315e-08
    328    331   2   0.50000     0.0600000    0.0600000   6.128906e-05  1.496315e-08
    300    334   2   0.50000    -0.0600000   -0.1200000   1.015252e-03  1.866303e-06
    300    345   2   0.50000    -0.0600000    0.0600000   2.494471e-04  1.671101e-07
    300    365   2   0.50000    -0.0600000   -0.1200000   1.015252e-03  1.866303e-06
    343    334   2   0.50000     0.0600000   -0.1200000   2.494471e-04  1.671101e-07
    343    345   2   0.50000     0.0600000    0.0600000   6.128906e-05  1.496315e-08
    343    365   2   0.50000     0.0600000   -0.1200000   2.494471e-04  1.671101e-07
    344    334   2   0.50000     0.0600000   -0.1200000   2.494471e-04  1.671101e-07
    344    345   2   0.50000     0.0600000    0.0600000   6.128906e-05  1.496315e-08
    344    365   2   0.50000     0.0600000   -0.1200000   2.494471e-04  1.671101e-07
    332    335   2   0.50000    -0.1200000   -0.1200000   1.015252e-03  1.866303e-06
    332    346   2   0.50000    -0.1200000    0.0600000   2.494471e-04  1.671101e-07
    332    347   2   0.50000    -0.1200000    0.0600000   2.494471e-04  1.671101e-07
    345    335   2   0.50000     0.0600000   -0.1200000   2.494471e-04  1.671101e-07
    345    346   2   0.50000     0.0600000    0.0600000   6.128906e-05  1.496315e-08
    345    347   2   0.50000     0.0600000    0.0600000   6.128906e-05  1.496315e-08
    365    335   2   0.50000    -0.1200000   -0.1200000   1.015252e-03  1.866303e-06
    365    346   2   0.50000    -0.1200000    0.0600000   2.494471e-04  1.671101e-07
    365    347   2   0.50000    -0.1200000    0.0600000   2.494471e-04  1.671101e-07
    332    366   2   0.50000    -0.1200000   -0.0600000   1.015252e-03  1.866303e-06
    332    376   2   0.50000    -0.1200000    0.0600000   2.494471e-04  1.671101e-07
    332    377   2   0.50000    -0.1200000    0.0600000   2.494471e-04  1.671101e-07
    334    366   2   0.50000    -0.1200000   -0.0600000   1.015252e-03  1.866303e-06
    334    376   2   0.50000    -0.1200000    0.0600000   2.494471e-04  1.671101e-07
    334    377   2   0.50000    -0.1200000    0.0600000   2.494471e-04  1.671101e-07
    345    366   2   0.50000     0.0600000   -0.0600000   2.494471e-04  1.671101e-07
    345    376   2   0.50000     0.0600000    0.0600000   6.128906e-05  1.496315e-08
    345    377   2   0.50000     0.0600000    0.0600000   6.128906e-05  1.496315e-08
    333    336   2   0.50000    -0.0600000   -0.1200000   1.015252e-03  1.866303e-06
    333    348   2   0.50000    -0.0600000    0.0600000   2.494471e-04  1.671101e-07
    333    349   2   0.50000    -0.0600000    0.0600000   2.494471e-04  1.671101e-07
    346    336   2   0.50000     0.0600000   -0.1200000   2.494471e-04  1.671101e-07
    346    348   2   0.50000     0.0600000    0.0600000   6.128906e-05  1.496315e-08
    346    349   2   0.50000     0.0600000    0.0600000   6.128906e-05  1.496315e-08
    347    336   2   0.50000     0.0600000   -0.1200000   2.494471e-04  1.671101e-07
    347    348   2   0.50000     0.0600000    0.0600000   6.128906e-05  1.496315e-08
    347    349   2   0.50000     0.0600000    0.0600000   6.128906e-05  1.496315e-08
    334    337   2   0.50000    -0.1200000   -0.1200000   1.015252e-03  1.866303e-06
    334    350   2   0.50000    -0.1200000    0.0600000   2.494471e-04  1.671101e-07
    334    351   2   0.50000    -0.1200000    0.0600000   2.494471e-04  1.671101e-07
    348    337   2   0.50000     0.0600000   -0.1200000   2.494471e-04  1.671101e-07
    348    350   2   0.50000     0.0600000    0.0600000   6.128906e-05  1.496315e-08
    348    351   2   0.50000     0.0600000    0.0600000   6.128906e-05  1.496315e-08
    349    337   2   0.50000     0.0600000   -0.1200000   2.494471e-04  1.671101e-07
    349    350   2   0.50000     0.0600000    0.0600000   6.128906e-05  1.496315e-08
    349    351   2   0.50000     0.0600000    0.0600000   6.128906e-05  1.496315e-08
    335    338   2   0.50000    -0.1200000   -0.1200000   1.015252e-03  1.866303e-06
    335    352   2   0.50000    -0.1200000    0.0600000   2.494471e-04  1.671101e-07
    335    353   2   0.50000    -0.1200000    0.0600000   2.494471e-04  1.671101e-07
    350    338   2   0.50000     0.0600000   -0.1200000   2.494471e-04  1.671101e-07
    350    352   2   0.50000     0.0600000    0.0600000   6.128906e-05  1.496315e-08
    350    353   2   0.50000     0.0600000    0.0600000   6.128906e-05  1.496315e-08
    351    338   2   0.50000     0.0600000   -0.1200000   2.494471e-04  1.671101e-07
    351    352   2   0.50000     0.0600000    0.0600000   6.128906e-05  1.496315e-08
    351    353   2   0.50000     0.0600000    0.0600000   6.128906e-05  1.496315e-08
    336    339   2   0.50000    -0.1200000   -0.1200000   1.015252e-03  1.866303e-06
    336    354   2   0.50000    -0.1200000    0.0600000   2.494471e-04  1.671101e-07
    336    355   2   0.50000    -0.1200000    0.0600000   2.494471e-04  1.671101e-07
    352    339   2   0.50000     0.0600000   -0.1200000   2.494471e-04  1.671101e-07
    352    354   2   0.50000     0.0600000    0.0600000   6.128906e-05  1.496315e-08
    352    355   2   0.50000     0.0600000    0.0600000   6.128906e-05  1.496315e-08
    353    339   2   0.50000     0.0600000   -0.1200000   2.494471e-04  1.671101e-07
    353    354   2   0.50000     0.0600000    0.0600000   6.128906e-05  1.496315e-08
    353    355   2   0.50000     0.0600000    0.0600000   6.128906e-05  1.496315e-08
    337    340   2   0.50000    -0.1200000   -0.1200000   1.015252e-03  1.866303e-06
    337    356   2   0.50000    -0.1200000    0.0600000   2.494471e-04  1.671101e-07
    337    357   2   0.50000    -0.1200000    0.0600000   2.494471e-04  1.671101e-07
    354    340   2   0.50000     0.0600000   -0.1200000   2.494471e-04  1.671101e-07
    354    356   2   0.50000     0.0600000    0.0600000   6.128906e-05  1.496315e-08
    354    357   2   0.50000     0.0600000    0.0600000   6.128906e-05  1.496315e-08
    355    340   2   0.50000     0.0600000   -0.1200000   2.494471e-04  1.671101e-07
    355    356   2   0.50000     0.0600000    0.0600000   6.128906e-05  1.496315e-08
    355    357   2   0.50000     0.0600000    0.0600000   6.128906e-05  1.496315e-08
    338    341   2   0.50000    -0.1200000   -0.1200000   1.015252e-03  1.866303e-06
    338    358   2   0.50000    -0.1200000    0.0600000   2.494471e-04  1.671101e-07
    338    359   2   0.50000    -0.1200000    0.0600000   2.494471e-04  1.671101e-07
    356    341   2   0.50000     0.0600000   -0.1200000   2.494471e-04  1.671101e-07
    356    358   2   0.50000     0.0600000    0.0600000   6.128906e-05  1.496315e-08
    356    359   2   0.50000     0.0600000    0.0600000   6.128906e-05  1.496315e-08
    357    341   2   0.50000     0.0600000   -0.1200000   2.494471e-04  1.671101e-07
    357    358   2   0.50000     0.0600000    0.0600000   6.128906e-05  1.496315e-08
    357    359   2   0.50000     0.0600000    0.0600000   6.128906e-05  1.496315e-08
    339    342   2   0.50000    -0.1200000   -0.1800000   1.015252e-03  1.866303e-06
    339    360   2   0.50000    -0.1200000    0.0600000   2.494471e-04  1.671101e-07
    339    361   2   0.50000    -0.1200000    0.0600000   2.494471e-04  1.671101e-07
    358    342   2   0.50000     0.0600000   -0.1800000   2.494471e-04  1.671101e-07
    358    360   2   0.50000     0.0600000    0.0600000   6.128906e-05  1.496315e-08
    358    361   2   0.50000     0.0600000    0.0600000   6.128906e-05  1.496315e-08
    359    342   2   0.50000     0.0600000   -0.1800000   2.494471e-04  1.671101e-07
    359    360   2   0.50000     0.0600000    0.0600000   6.128906e-05  1.496315e-08
    359    361   2   0.50000     0.0600000    0.0600000   6.128906e-05  1.496315e-08
    340    362   2   0.50000    -0.1200000    0.0600000   2.494471e-04  1.671101e-07
    340    363   2   0.50000    -0.1200000    0.0600000   2.494471e-04  1.671101e-07
    340    364   2   0.50000    -0.1200000    0.0600000   2.494471e-04  1.671101e-07
    360    362   2   0.50000     0.0600000    0.0600000   6.128906e-05  1.496315e-08
    360    363   2   0.50000     0.0600000    0.0600000   6.128906e-05  1.496315e-08
    360    364   2   0.50000     0.0600000    0.0600000   6.128906e-05  1.496315e-08
    361    362   2   0.50000     0.0600000    0.0600000   6.128906e-05  1.496315e-08
    361    363   2   0.50000     0.0600000    0.0600000   6.128906e-05  1.496315e-08
    361    364   2   0.50000     0.0600000    0.0600000   6.128906e-05  1.496315e-08
    333    367   2   0.50000    -0.0600000   -0.1200000   1.015252e-03  1.866303e-06
    333    378   2   0.50000    -0.0600000    0.0600000   2.494471e-04  1.671101e-07
    333    398   2   0.50000    -0.0600000   -0.1200000   1.015252e-03  1.866303e-06
    376    367   2   0.50000     0.0600000   -0.1200000   2.494471e-04  1.671101e-07
    376    378   2   0.50000     0.0600000    0.0600000   6.128906e-05  1.496315e-08
    376    398   2   0.50000     0.0600000   -0.1200000   2.494471e-04  1.671101e-07
    377    367   2   0.50000     0.0600000   -0.1200000   2.494471e-04  1.671101e-07
    377    378   2   0.50000     0.0600000    0.0600000   6.128906e-05  1.496315e-08
    377    398   2   0.50000     0.0600000   -0.1200000   2.494471e-04  1.671101e-07
    365    368   2   0.50000    -0.1200000   -0.1200000   1.015252e-03  1.866303e-06
    365    379   2   0.50000    -0.1200000    0.0600000   2.494471e-04  1.671101e-07
    365    380   2   0.50000    -0.1200000    0.0600000   2.494471e-04  1.671101e-07
    378    368   2   0.50000     0.0600000   -0.1200000   2.494471e-04  1.671101e-07
    378    379   2   0.50000     0.0600000    0.0600000   6.128906e-05  1.496315e-08
    378    380   2   0.50000     0.0600000    0.0600000   6.128906e-05  1.496315e-08
    398    368   2   0.50000    -0.1200000   -0.1200000   1.015252e-03  1.866303e-06
    398    379   2   0.50000    -0.1200000    0.0600000   2.494471e-04  1.671101e-07
    398    380   2   0.50000    -0.1200000    0.0600000   2.494471e-04  1.671101e-07
    365    399   2   0.50000    -0.1200000   -0.0600000   1.015252e-03  1.866303e-06
    365    409   2   0.50000    -0.1200000    0.0600000   2.494471e-04  1.671101e-07
    365    410   2   0.50000    -0.1200000    0.0600000   2.494471e-04  1.671101e-07
    367    399   2   0.50000    -0.1200000   -0.0600000   1.015252e-03  1.866303e-06
    367    409   2   0.50000    -0.1200000    0.0600000   2.494471e-04  1.671101e-07
    367    410   2   0.50000    -0.1200000    0.0600000   2.494471e-04  1.671101e-07
    378    399   2   0.50000     0.0600000   -0.0600000   2.494471e-04  1.671101e-07
    378    409   2   0.50000     0.0600000    0.0600000   6.128906e-05  1.496315e-08
    378    410   2   0.50000     0.0600000    0.0600000   6.128906e-05  1.496315e-08
    366    369   2   0.50000    -0.0600000   -0.1200000   1.015252e-03  1.866303e-06
    366    381   2   0.50000    -0.0600000    0.0600000   2.494471e-04  1.671101e-07
    366    382   2   0.50000    -0.0600000    0.0600000   2.494471e-04  1.671101e-07
    379    369   2   0.50000     0.0600000   -0.1200000   2.494471e-04  1.671101e-07
    379    381   2   0.50000     0.0600000    0.0600000   6.128906e-05  1.496315e-08
    379    382   2   0.50000     0.0600000    0.0600000   6.128906e-05  1.496315e-08
    380    369   2   0.50000     0.0600000   -0.1200000   2.494471e-04  1.671101e-07
    380    381   2   0.50000     0.0600000    0.0600000   6.128906e-05  1.496315e-08
    380    382   2   0.50000     0.0600000    0.0600000   6.128906e-05  1.496315e-08
    367    370   2   0.50000    -0.1200000   -0.1200000   1.015252e-03  1.866303e-06
    367    383   2   0.50000    -0.1200000    0.0600000   2.494471e-04  1.671101e-07
    367    384   2   0.50000    -0.1200000    0.0600000   2.494471e-04  1.671101e-07
    381    370   2   0.50000     0.0600000   -0.1200000   2.494471e-04  1.671101e-07
    381    383   2   0.50000     0.0600000    0.0600000   6.128906e-05  1.496315e-08
    381    384   2   0.50000     0.0600000    0.0600000   6.128906e-05  1.496315e-08
    382    370   2   0.50000     0.0600000   -0.1200000   2.494471e-04  1.671101e-07
    382    383   2   0.50000     0.0600000    0.0600000   6.128906e-05  1.496315e-08
    382    384   2   0.50000     0.0600000    0.0600000   6.128906e-05  1.496315e-08
    368    371   2   0.50000    -0.1200000   -0.1200000   1.015252e-03  1.866303e-06
    368    385   2   0.50000    -0.1200000    0.0600000   2.494471e-04  1.671101e-07
    368    386   2   0.50000    -0.1200000    0.0600000   2.494471e-04  1.671101e-07
    383    371   2   0.50000     0.0600000   -0.1200000   2.494471e-04  1.671101e-07
    383    385   2   0.50000     0.0600000    0.0600000   6.128906e-05  1.496315e-08
    383    386   2   0.50000     0.0600000    0.0600000   6.128906e-05  1.496315e-08
    384    371   2   0.50000     0.0600000   -0.1200000   2.494471e-04  1.671101e-07
    384    385   2   0.50000     0.0600000    0.0600000   6.128906e-05  1.496315e-08
    384    386   2   0.50000     0.0600000    0.0600000   6.128906e-05  1.496315e-08
    369    372   2   0.50000    -0.1200000   -0.1200000   1.015252e-03  1.866303e-06
    369    387   2   0.50000    -0.1200000    0.0600000   2.494471e-04  1.671101e-07
    369    388   2   0.50000    -0.1200000    0.0600000   2.494471e-04  1.671101e-07
    385    372   2   0.50000     0.0600000   -0.1200000   2.494471e-04  1.671101e-07
    385    387   2   0.50000     0.0600000    0.0600000   6.128906e-05  1.496315e-08
    385    388   2   0.50000     0.0600000    0.0600000   6.128906e-05  1.496315e-08
    386    372   2   0.50000     0.0600000   -0.1200000   2.494471e-04  1.671101e-07
    386    387   2   0.50000     0.0600000    0.0600000   6.128906e-05  1.496315e-08
    386    388   2   0.50000     0.0600000    0.0600000   6.128906e-05  1.496315e-08
    370    373   2   0.50000    -0.1200000   -0.1200000   1.015252e-03  1.866303e-06
    370    389   2   0.50000    -0.1200000    0.0600000   2.494471e-04  1.671101e-07
    370    390   2   0.50000    -0.1200000    0.0600000   2.494471e-04  1.671101e-07
    387    373   2   0.50000     0.0600000   -0.1200000   2.494471e-04  1.671101e-07
    387    389   2   0.50000     0.0600000    0.0600000   6.128906e-05  1.496315e-08
    387    390   2   0.50000     0.0600000    0.0600000   6.128906e-05  1.496315e-08
    388    373   2   0.50000     0.0600000   -0.1200000   2.494471e-04  1.671101e-07
    388    389   2   0.50000     0.0600000    0.0600000   6.128906e-05  1.496315e-08
    388    390   2   0.50000     0.0600000    0.0600000   6.128906e-05  1.496315e-08
    371    374   2   0.50000    -0.1200000   -0.1200000   1.015252e-03  1.866303e-06
    371    391   2   0.50000    -0.1200000    0.0600000   2.494471e-04  1.671101e-07
    371    392   2   0.50000    -0.1200000    0.0600000   2.494471e-04  1.671101e-07
    389    374   2   0.50000     0.0600000   -0.1200000   2.494471e-04  1.671101e-07
    389    391   2   0.50000     0.0600000    0.0600000   6.128906e-05  1.496315e-08
    389    392   2   0.50000     0.0600000    0.0600000   6.128906e-05  1.496315e-08
    390    374   2   0.50000     0.0600000   -0.1200000   2.494471e-04  1.671101e-07
    390    391   2   0.50000     0.0600000    0.0600000   6.128906e-05  1.496315e-08
    390    392   2   0.50000     0.0600000    0.0600000   6.128906e-05  1.496315e-08
    372    375   2   0.50000    -0.1200000   -0.1800000   1.015252e-03  1.866303e-06
    372    393   2   0.50000    -0.1200000    0.0600000   2.494471e-04  1.671101e-07
    372    394   2   0.50000    -0.1200000    0.0600000   2.494471e-04  1.671101e-07
    391    375   2   0.50000     0.0600000   -0.1800000   2.494471e-04  1.671101e-07
    391    393   2   0.50000     0.0600000    0.0600000   6.128906e-05  1.496315e-08
    391    394   2   0.50000     0.0600000    0.0600000   6.128906e-05  1.496315e-08
    392    375   2   0.50000     0.0600000   -0.1800000   2.494471e-04  1.671101e-07
    392    393   2   0.50000     0.0600000    0.0600000   6.128906e-05  1.496315e-08
    392    394   2   0.50000     0.0600000    0.0600000   6.128906e-05  1.496315e-08
    373    395   2   0.50000    -0.1200000    0.0600000   2.494471e-04  1.671101e-07
    373    396   2   0.50000    -0.1200000    0.0600000   2.494471e-04  1.671101e-07
    373    397   2   0.50000    -0.1200000    0.0600000   2.494471e-04  1.671101e-07
    393    395   2   0.50000     0.0600000    0.0600000   6.128906e-05  1.496315e-08
    393    396   2   0.50000     0.0600000    0.0600000   6.128906e-05  1.496315e-08
    393    397   2   0.50000     0.0600000    0.0600000   6.128906e-05  1.496315e-08
    394    395   2   0.50000     0.0600000    0.0600000   6.128906e-05  1.496315e-08
    394    396   2   0.50000     0.0600000    0.0600000   6.128906e-05  1.496315e-08
    394    397   2   0.50000     0.0600000    0.0600000   6.128906e-05  1.496315e-08
    366    400   2   0.50000    -0.0600000   -0.1200000   1.015252e-03  1.866303e-06
    366    411   2   0.50000    -0.0600000    0.0600000   2.494471e-04  1.671101e-07
    366    431   2   0.50000    -0.0600000   -0.1200000   1.015252e-03  1.866303e-06
    409    400   2   0.50000     0.0600000   -0.1200000   2.494471e-04  1.671101e-07
    409    411   2   0.50000     0.0600000    0.0600000   6.128906e-05  1.496315e-08
    409    431   2   0.50000     0.0600000   -0.1200000   2.494471e-04  1.671101e-07
    410    400   2   0.50000     0.0600000   -0.1200000   2.494471e-04  1.671101e-07
    410    411   2   0.50000     0.0600000    0.0600000   6.128906e-05  1.496315e-08
    410    431   2   0.50000     0.0600000   -0.1200000   2.494471e-04  1.671101e-07
    398    401   2   0.50000    -0.1200000   -0.1200000   1.015252e-03  1.866303e-06
    398    412   2   0.50000    -0.1200000    0.0600000   2.494471e-04  1.671101e-07
    398    413   2   0.50000    -0.1200000    0.0600000   2.494471e-04  1.671101e-07
    411    401   2   0.50000     0.0600000   -0.1200000   2.494471e-04  1.671101e-07
    411    412   2   0.50000     0.0600000    0.0600000   6.128906e-05  1.496315e-08
    411    413   2   0.50000     0.0600000    0.0600000   6.128906e-05  1.496315e-08
    431    401   2   0.50000    -0.1200000   -0.1200000   1.015252e-03  1.866303e-06
    431    412   2   0.50000    -0.1200000    0.0600000   2.494471e-04  1.671101e-07
    431    413   2   0.50000    -0.1200000    0.0600000   2.494471e-04  1.671101e-07
    398    432   2   0.50000    -0.1200000   -0.0600000   1.015252e-03  1.866303e-06
    398    442   2   0.50000    -0.1200000    0.0600000   2.494471e-04  1.671101e-07
    398    443   2   0.50000    -0.1200000    0.0600000   2.494471e-04  1.671101e-07
    400    432   2   0.50000    -0.1200000   -0.0600000   1.015252e-03  1.866303e-06
    400    442   2   0.50000    -0.1200000    0.0600000   2.494471e-04  1.671101e-07
    400    443   2   0.50000    -0.1200000    0.0600000   2.494471e-04  1.671101e-07
    411    432   2   0.50000     0.0600000   -0.0600000   2.494471e-04  1.671101e-07
    411    442   2   0.50000     0.0600000    0.0600000   6.128906e-05  1.496315e-08
    411    443   2   0.50000     0.0600000    0.0600000   6.128906e-05  1.496315e-08
    399    402   2   0.50000    -0.0600000   -0.1200000   1.015252e-03  1.866303e-06
    399    414   2   0.50000    -0.0600000    0.0600000   2.494471e-04  1.671101e-07
    399    415   2   0.50000    -0.0600000    0.0600000   2.494471e-04  1.671101e-07
    412    402   2   0.50000     0.0600000   -0.1200000   2.494471e-04  1.671101e-07
    412    414   2   0.50000     0.0600000    0.0600000   6.128906e-05  1.496315e-08
    412    415   2   0.50000     0.0600000    0.0600000   6.128906e-05  1.496315e-08
    413    402   2   0.50000     0.0600000   -0.1200000   2.494471e-04  1.671101e-07
    413    414   2   0.50000     0.0600000    0.0600000   6.128906e-05  1.496315e-08
    413    415   2   0.50000     0.0600000    0.0600000   6.128906e-05  1.496315e-08
    400    403   2   0.50000    -0.1200000   -0.1200000   1.015252e-03  1.866303e-06
    400    416   2   0.50000    -0.1200000    0.0600000   2.494471e-04  1.671101e-07
    400    417   2   0.50000    -0.1200000    0.0600000   2.494471e-04  1.671101e-07
    414    403   2   0.50000     0.0600000   -0.1200000   2.494471e-04  1.671101e-07
    414    416   2   0.50000     0.0600000    0.0600000   6.128906e-05  1.496315e-08
    414    417   2   0.50000     0.0600000    0.0600000   6.128906e-05  1.496315e-08
    415    403   2   0.50000     0.0600000   -0.1200000   2.494471e-04  1.671101e-07
    415    416   2   0.50000     0.0600000    0.0600000   6.128906e-05  1.496315e-08
    415    417   2   0.50000     0.0600000    0.0600000   6.128906e-05  1.496315e-08
    401    404   2   0.50000    -0.1200000   -0.1200000   1.015252e-03  1.866303e-06
    401    418   2   0.50000    -0.1200000    0.0600000   2.494471e-04  1.671101e-07
    401    419   2   0.50000    -0.1200000    0.0600000   2.494471e-04  1.671101e-07
    416    404   2   0.50000     0.0600000   -0.1200000   2.494471e-04  1.671101e-07
    416    418   2   0.50000     0.0600000    0.0600000   6.128906e-05  1.496315e-08
    416    419   2   0.50000     0.0600000    0.0600000   6.128906e-05  1.496315e-08
    417    404   2   0.50000     0.0600000   -0.1200000   2.494471e-04  1.671101e-07
    417    418   2   0.50000     0.0600000    0.0600000   6.128906e-05  1.496315e-08
    417    419   2   0.50000     0.0600000    0.0600000   6.128906e-05  1.496315e-08
    402    405   2   0.50000    -0.1200000   -0.1200000   1.015252e-03  1.866303e-06
    402    420   2   0.50000    -0.1200000    0.0600000   2.494471e-04  1.671101e-07
    402    421   2   0.50000    -0.1200000    0.0600000   2.494471e-04  1.671101e-07
    418    405   2   0.50000     0.0600000   -0.1200000   2.494471e-04  1.671101e-07
    418    420   2   0.50000     0.0600000    0.0600000   6.128906e-05  1.496315e-08
    418    421   2   0.50000     0.0600000    0.0600000   6.128906e-05  1.496315e-08
    419    405   2   0.50000     0.0600000   -0.1200000   2.494471e-04  1.671101e-07
    419    420   2   0.50000     0.0600000    0.0600000   6.128906e-05  1.496315e-08
    419    421   2   0.50000     0.0600000    0.0600000   6.128906e-05  1.496315e-08
    403    406   2   0.50000    -0.1200000   -0.1200000   1.015252e-03  1.866303e-06
    403    422   2   0.50000    -0.1200000    0.0600000   2.494471e-04  1.671101e-07
    403    423   2   0.50000    -0.1200000    0.0600000   2.494471e-04  1.671101e-07
    420    406   2   0.50000     0.0600000   -0.1200000   2.494471e-04  1.671101e-07
    420    422   2   0.50000     0.0600000    0.0600000   6.128906e-05  1.496315e-08
    420    423   2   0.50000     0.0600000    0.0600000   6.128906e-05  1.496315e-08
    421    406   2   0.50000     0.0600000   -0.1200000   2.494471e-04  1.671101e-07
    421    422   2   0.50000     0.0600000    0.0600000   6.128906e-05  1.496315e-08
    421    423   2   0.50000     0.0600000    0.0600000   6.128906e-05  1.496315e-08
    404    407   2   0.50000    -0.1200000   -0.1200000   1.015252e-03  1.866303e-06
    404    424   2   0.50000    -0.1200000    0.0600000   2.494471e-04  1.671101e-07
    404    425   2   0.50000    -0.1200000    0.0600000   2.494471e-04  1.671101e-07
    422    407   2   0.50000     0.0600000   -0.1200000   2.494471e-04  1.671101e-07
    422    424   2   0.50000     0.0600000    0.0600000   6.128906e-05  1.496315e-08
    422    425   2   0.50000     0.0600000    0.0600000   6.128906e-05  1.496315e-08
    423    407   2   0.50000     0.0600000   -0.1200000   2.494471e-04  1.671101e-07
    423    424   2   0.50000     0.0600000    0.0600000   6.128906e-05  1.496315e-08
    423    425   2   0.50000     0.0600000    0.0600000   6.128906e-05  1.496315e-08
    405    408   2   0.50000    -0.1200000   -0.1800000   1.015252e-03  1.866303e-06
    405    426   2   0.50000    -0.1200000    0.0600000   2.494471e-04  1.671101e-07
    405    427   2   0.50000    -0.1200000    0.0600000   2.494471e-04  1.671101e-07
    424    408   2   0.50000     0.0600000   -0.1800000   2.494471e-04  1.671101e-07
    424    426   2   0.50000     0.0600000    0.0600000   6.128906e-05  1.496315e-08
    424    427   2   0.50000     0.0600000    0.0600000   6.128906e-05  1.496315e-08
    425    408   2   0.50000     0.0600000   -0.1800000   2.494471e-04  1.671101e-07
    425    426   2   0.50000     0.0600000    0.0600000   6.128906e-05  1.496315e-08
    425    427   2   0.50000     0.0600000    0.0600000   6.128906e-05  1.496315e-08
    406    428   2   0.50000    -0.1200000    0.0600000   2.494471e-04  1.671101e-07
    406    429   2   0.50000    -0.1200000    0.0600000   2.494471e-04  1.671101e-07
    406    430   2   0.50000    -0.1200000    0.0600000   2.494471e-04  1.671101e-07
    426    428   2   0.50000     0.0600000    0.0600000   6.128906e-05  1.496315e-08
    426    429   2   0.50000     0.0600000    0.0600000   6.128906e-05  1.496315e-08
    426    430   2   0.50000     0.0600000    0.0600000   6.128906e-05  1.496315e-08
    427    428   2   0.50000     0.0600000    0.0600000   6.128906e-05  1.496315e-08
    427    429   2   0.50000     0.0600000    0.0600000   6.128906e-05  1.496315e-08
    427    430   2   0.50000     0.0600000    0.0600000   6.128906e-05  1.496315e-08
    399    433   2   0.50000    -0.0600000   -0.1200000   1.015252e-03  1.866303e-06
    399    444   2   0.50000    -0.0600000    0.0600000   2.494471e-04  1.671101e-07
    399    464   2   0.50000    -0.0600000   -0.1200000   1.015252e-03  1.866303e-06
    442    433   2   0.50000     0.0600000   -0.1200000   2.494471e-04  1.671101e-07
    442    444   2   0.50000     0.0600000    0.0600000   6.128906e-05  1.496315e-08
    442    464   2   0.50000     0.0600000   -0.1200000   2.494471e-04  1.671101e-07
    443    433   2   0.50000     0.0600000   -0.1200000   2.494471e-04  1.671101e-07
    443    444   2   0.50000     0.0600000    0.0600000   6.128906e-05  1.496315e-08
    443    464   2   0.50000     0.0600000   -0.1200000   2.494471e-04  1.671101e-07
    431    434   2   0.50000    -0.1200000   -0.1200000   1.015252e-03  1.866303e-06
    431    445   2   0.50000    -0.1200000    0.0600000   2.494471e-04  1.671101e-07
    431    446   2   0.50000    -0.1200000    0.0600000   2.494471e-04  1.671101e-07
    444    434   2   0.50000     0.0600000   -0.1200000   2.494471e-04  1.671101e-07
    444    445   2   0.50000     0.0600000    0.0600000   6.128906e-05  1.496315e-08
    444    446   2   0.50000     0.0600000    0.0600000   6.128906e-05  1.496315e-08
    464    434   2   0.50000    -0.1200000   -0.1200000   1.015252e-03  1.866303e-06
    464    445   2   0.50000    -0.1200000    0.0600000   2.494471e-04  1.671101e-07
    464    446   2   0.50000    -0.1200000    0.0600000   2.494471e-04  1.671101e-07
    431    465   2   0.50000    -0.1200000   -0.0600000   1.015252e-03  1.866303e-06
    431    475   2   0.50000    -0.1200000    0.0600000   2.494471e-04  1.671101e-07
    431    476   2   0.50000    -0.1200000    0.0600000   2.494471e-04  1.671101e-07
    433    465   2   0.50000    -0.1200000   -0.0600000   1.015252e-03  1.866303e-06
    433    475   2   0.50000    -0.1200000    0.0600000   2.494471e-04  1.671101e-07
    433    476   2   0.50000    -0.1200000    0.0600000   2.494471e-04  1.671101e-07
    444    465   2   0.50000     0.0600000   -0.0600000   2.494471e-04  1.671101e-07
    444    475   2   0.50000     0.0600000    0.0600000   6.128906e-05  1.496315e-08
    444    476   2   0.50000     0.0600000    0.0600000   6.128906e-05  1.496315e-08
    432    435   2   0.50000    -0.0600000   -0.1200000   1.015252e-03  1.866303e-06
    432    447   2   0.50000    -0.0600000    0.0600000   2.494471e-04  1.671101e-07
    432    448   2   0.50000    -0.0600000    0.0600000   2.494471e-04  1.671101e-07
    445    435   2   0.50000     0.0600000   -0.1200000   2.494471e-04  1.671101e-07
    445    447   2   0.50000     0.0600000    0.0600000   6.128906e-05  1.496315e-08
    445    448   2   0.50000     0.0600000    0.0600000   6.128906e-05  1.496315e-08
    446    435   2   0.50000     0.0600000   -0.1200000   2.494471e-04  1.671101e-07
    446    447   2   0.50000     0.0600000    0.0600000   6.128906e-05  1.496315e-08
    446    448   2   0.50000     0.0600000    0.0600000   6.128906e-05  1.496315e-08
    433    436   2   0.50000    -0.1200000   -0.1200000   1.015252e-03  1.866303e-06
    433    449   2   0.50000    -0.1200000    0.0600000   2.494471e-04  1.671101e-07
    433    450   2   0.50000    -0.1200000    0.0600000   2.494471e-04  1.671101e-07
    447    436   2   0.50000     0.0600000   -0.1200000   2.494471e-04  1.671101e-07
    447    449   2   0.50000     0.0600000    0.0600000   6.128906e-05  1.496315e-08
    447    450   2   0.50000     0.0600000    0.0600000   6.128906e-05  1.496315e-08
    448    436   2   0.50000     0.0600000   -0.1200000   2.494471e-04  1.671101e-07
    448    449   2   0.50000     0.0600000    0.0600000   6.128906e-05  1.496315e-08
    448    450   2   0.50000     0.0600000    0.0600000   6.128906e-05  1.496315e-08
    434    437   2   0.50000    -0.1200000   -0.1200000   1.015252e-03  1.866303e-06
    434    451   2   0.50000    -0.1200000    0.0600000   2.494471e-04  1.671101e-07
    434    452   2   0.50000    -0.1200000    0.0600000   2.494471e-04  1.671101e-07
    449    437   2   0.50000     0.0600000   -0.1200000   2.494471e-04  1.671101e-07
    449    451   2   0.50000     0.0600000    0.0600000   6.128906e-05  1.496315e-08
    449    452   2   0.50000     0.0600000    0.0600000   6.128906e-05  1.496315e-08
    450    437   2   0.50000     0.0600000   -0.1200000   2.494471e-04  1.671101e-07
    450    451   2   0.50000     0.0600000    0.0600000   6.128906e-05  1.496315e-08
    450    452   2   0.50000     0.0600000    0.0600000   6.128906e-05  1.496315e-08
    435    438   2   0.50000    -0.1200000   -0.1200000   1.015252e-03  1.866303e-06
    435    453   2   0.50000    -0.1200000    0.0600000   2.494471e-04  1.671101e-07
    435    454   2   0.50000    -0.1200000    0.0600000   2.494471e-04  1.671101e-07
    451    438   2   0.50000     0.0600000   -0.1200000   2.494471e-04  1.671101e-07
    451    453   2   0.50000     0.0600000    0.0600000   6.128906e-05  1.496315e-08
    451    454   2   0.50000     0.0600000    0.0600000   6.128906e-05  1.496315e-08
    452    438   2   0.50000     0.0600000   -0.1200000   2.494471e-04  1.671101e-07
    452    453   2   0.50000     0.0600000    0.0600000   6.128906e-05  1.496315e-08
    452    454   2   0.50000     0.0600000    0.0600000   6.128906e-05  1.496315e-08
    436    439   2   0.50000    -0.1200000   -0.1200000   1.015252e-03  1.866303e-06
    436    455   2   0.50000    -0.1200000    0.0600000   2.494471e-04  1.671101e-07
    436    456   2   0.50000    -0.1200000    0.0600000   2.494471e-04  1.671101e-07
    453    439   2   0.50000     0.0600000   -0.1200000   2.494471e-04  1.671101e-07
    453    455   2   0.50000     0.0600000    0.0600000   6.128906e-05  1.496315e-08
    453    456   2   0.50000     0.0600000    0.0600000   6.128906e-05  1.496315e-08
    454    439   2   0.50000     0.0600000   -0.1200000   2.494471e-04  1.671101e-07
    454    455   2   0.50000     0.0600000    0.0600000   6.128906e-05  1.496315e-08
    454    456   2   0.50000     0.0600000    0.0600000   6.128906e-05  1.496315e-08
    437    440   2   0.50000    -0.1200000   -0.1200000   1.015252e-03  1.866303e-06
    437    457   2   0.50000    -0.1200000    0.0600000   2.494471e-04  1.671101e-07
    437    458   2   0.50000    -0.1200000    0.0600000   2.494471e-04  1.671101e-07
    455    440   2   0.50000     0.0600000   -0.1200000   2.494471e-04  1.671101e-07
    455    457   2   0.50000     0.0600000    0.0600000   6.128906e-05  1.496315e-08
    455    458   2   0.50000     0.0600000    0.0600000   6.128906e-05  1.496315e-08
    456    440   2   0.50000     0.0600000   -0.1200000   2.494471e-04  1.671101e-07
    456    457   2   0.50000     0.0600000    0.0600000   6.128906e-05  1.496315e-08
    456    458   2   0.50000     0.0600000    0.0600000   6.128906e-05  1.496315e-08
    438    441   2   0.50000    -0.1200000   -0.1800000   1.015252e-03  1.866303e-06
    438    459   2   0.50000    -0.1200000    0.0600000   2.494471e-04  1.671101e-07
    438    460   2   0.50000    -0.1200000    0.0600000   2.494471e-04  1.671101e-07
    457    441   2   0.50000     0.0600000   -0.1800000   2.494471e-04  1.671101e-07
    457    459   2   0.50000     0.0600000    0.0600000   6.128906e-05  1.496315e-08
    457    460   2   0.50000     0.0600000    0.0600000   6.128906e-05  1.496315e-08
    458    441   2   0.50000     0.0600000   -0.1800000   2.494471e-04  1.671101e-07
    458    459   2   0.50000     0.0600000    0.0600000   6.128906e-05  1.496315e-08
    458    460   2   0.50000     0.0600000    0.0600000   6.128906e-05  1.496315e-08
    439    461   2   0.50000    -0.1200000    0.0600000   2.494471e-04  1.671101e-07
    439    462   2   0.50000    -0.1200000    0.0600000   2.494471e-04  1.671101e-07
    439    463   2   0.50000    -0.1200000    0.0600000   2.494471e-04  1.671101e-07
    459    461   2   0.50000     0.0600000    0.0600000   6.128906e-05  1.496315e-08
    459    462   2   0.50000     0.0600000    0.0600000   6.128906e-05  1.496315e-08
    459    463   2   0.50000     0.0600000    0.0600000   6.128906e-05  1.496315e-08
    460    461   2   0.50000     0.0600000    0.0600000   6.128906e-05  1.496315e-08
    460    462   2   0.50000     0.0600000    0.0600000   6.128906e-05  1.496315e-08
    460    463   2   0.50000     0.0600000    0.0600000   6.128906e-05  1.496315e-08
    432    466   2   0.50000    -0.0600000   -0.1200000   1.015252e-03  1.866303e-06
    432    477   2   0.50000    -0.0600000    0.0600000   2.494471e-04  1.671101e-07
    432    497   2   0.50000    -0.0600000   -0.1200000   1.015252e-03  1.866303e-06
    475    466   2   0.50000     0.0600000   -0.1200000   2.494471e-04  1.671101e-07
    475    477   2   0.50000     0.0600000    0.0600000   6.128906e-05  1.496315e-08
    475    497   2   0.50000     0.0600000   -0.1200000   2.494471e-04  1.671101e-07
    476    466   2   0.50000     0.0600000   -0.1200000   2.494471e-04  1.671101e-07
    476    477   2   0.50000     0.0600000    0.0600000   6.128906e-05  1.496315e-08
    476    497   2   0.50000     0.0600000   -0.1200000   2.494471e-04  1.671101e-07
    464    467   2   0.50000    -0.1200000   -0.1200000   1.015252e-03  1.866303e-06
    464    478   2   0.50000    -0.1200000    0.0600000   2.494471e-04  1.671101e-07
    464    479   2   0.50000    -0.1200000    0.0600000   2.494471e-04  1.671101e-07
    477    467   2   0.50000     0.0600000   -0.1200000   2.494471e-04  1.671101e-07
    477    478   2   0.50000     0.0600000    0.0600000   6.128906e-05  1.496315e-08
    477    479   2   0.50000     0.0600000    0.0600000   6.128906e-05  1.496315e-08
    497    467   2   0.50000    -0.1200000   -0.1200000   1.015252e-03  1.866303e-06
    497    478   2   0.50000    -0.1200000    0.0600000   2.494471e-04  1.671101e-07
    497    479   2   0.50000    -0.1200000    0.0600000   2.494471e-04  1.671101e-07
    464    498   2   0.50000    -0.1200000   -0.0600000   1.015252e-03  1.866303e-06
    464    508   2   0.50000    -0.1200000    0.0600000   2.494471e-04  1.671101e-07
    464    509   2   0.50000    -0.1200000    0.0600000   2.494471e-04  1.671101e-07
    466    498   2   0.50000    -0.1200000   -0.0600000   1.015252e-03  1.866303e-06
    466    508   2   0.50000    -0.1200000    0.0600000   2.494471e-04  1.671101e-07
    466    509   2   0.50000    -0.1200000    0.0600000   2.494471e-04  1.671101e-07
    477    498   2   0.50000     0.0600000   -0.0600000   2.494471e-04  1.671101e-07
    477    508   2   0.50000     0.0600000    0.0600000   6.128906e-05  1.496315e-08
    477    509   2   0.50000     0.0600000    0.0600000   6.128906e-05  1.496315e-08
    465    468   2   0.50000    -0.0600000   -0.1200000   1.015252e-03  1.866303e-06
    465    480   2   0.50000    -0.0600000    0.0600000   2.494471e-04  1.671101e-07
    465    481   2   0.50000    -0.0600000    0.0600000   2.494471e-04  1.671101e-07
    478    468   2   0.50000     0.0600000   -0.1200000   2.494471e-04  1.671101e-07
    478    480   2   0.50000     0.0600000    0.0600000   6.128906e-05  1.496315e-08
    478    481   2   0.50000     0.0600000    0.0600000   6.128906e-05  1.496315e-08
    479    468   2   0.50000     0.0600000   -0.1200000   2.494471e-04  1.671101e-07
    479    480   2   0.50000     0.0600000    0.0600000   6.128906e-05  1.496315e-08
    479    481   2   0.50000     0.0600000    0.0600000   6.128906e-05  1.496315e-08
    466    469   2   0.50000    -0.1200000   -0.1200000   1.015252e-03  1.866303e-06
    466    482   2   0.50000    -0.1200000    0.0600000   2.494471e-04  1.671101e-07
    466    483   2   0.50000    -0.1200000    0.0600000   2.494471e-04  1.671101e-07
    480    469   2   0.50000     0.0600000   -0.1200000   2.494471e-04  1.671101e-07
    480    482   2   0.50000     0.0600000    0.0600000   6.128906e-05  1.496315e-08
    480    483   2   0.50000     0.0600000    0.0600000   6.128906e-05  1.496315e-08
    481    469   2   0.50000     0.0600000   -0.1200000   2.494471e-04  1.671101e-07
    481    482   2   0.50000     0.0600000    0.0600000   6.128906e-05  1.496315e-08
    481    483   2   0.50000     0.0600000    0.0600000   6.128906e-05  1.496315e-08
    467    470   2   0.50000    -0.1200000   -0.1200000   1.015252e-03  1.866303e-06
    467    484   2   0.50000    -0.1200000    0.0600000   2.494471e-04  1.671101e-07
    467    485   2   0.50000    -0.1200000    0.0600000   2.494471e-04  1.671101e-07
    482    470   2   0.50000     0.0600000   -0.1200000   2.494471e-04  1.671101e-07
    482    484   2   0.50000     0.0600000    0.0600000   6.128906e-05  1.496315e-08
    482    485   2   0.50000     0.0600000    0.0600000   6.128906e-05  1.496315e-08
    483    470   2   0.50000     0.0600000   -0.1200000   2.494471e-04  1.671101e-07
    483    484   2   0.50000     0.0600000    0.0600000   6.128906e-05  1.496315e-08
    483    485   2   0.50000     0.0600000    0.0600000   6.128906e-05  1.496315e-08
    468    471   2   0.50000    -0.1200000   -0.1200000   1.015252e-03  1.866303e-06
    468    486   2   0.50000    -0.1200000    0.0600000   2.494471e-04  1.671101e-07
    468    487   2   0.50000    -0.1200000    0.0600000   2.494471e-04  1.671101e-07
    484    471   2   0.50000     0.0600000   -0.1200000   2.494471e-04  1.671101e-07
    484    486   2   0.50000     0.0600000    0.0600000   6.128906e-05  1.496315e-08
    484    487   2   0.50000     0.0600000    0.0600000   6.128906e-05  1.496315e-08
    485    471   2   0.50000     0.0600000   -0.1200000   2.494471e-04  1.671101e-07
    485    486   2   0.50000     0.0600000    0.0600000   6.128906e-05  1.496315e-08
    485    487   2   0.50000     0.0600000    0.0600000   6.128906e-05  1.496315e-08
    469    472   2   0.50000    -0.1200000   -0.1200000   1.015252e-03  1.866303e-06
    469    488   2   0.50000    -0.1200000    0.0600000   2.494471e-04  1.671101e-07
    469    489   2   0.50000    -0.1200000    0.0600000   2.494471e-04  1.671101e-07
    486    472   2   0.50000     0.0600000   -0.1200000   2.494471e-04  1.671101e-07
    486    488   2   0.50000     0.0600000    0.0600000   6.128906e-05  1.496315e-08
    486    489   2   0.50000     0.0600000    0.0600000   6.128906e-05  1.496315e-08
    487    472   2   0.50000     0.0600000   -0.1200000   2.494471e-04  1.671101e-07
    487    488   2   0.50000     0.0600000    0.0600000   6.128906e-05  1.496315e-08
    487    489   2   0.50000     0.0600000    0.0600000   6.128906e-05  1.496315e-08
    470    473   2   0.50000    -0.1200000   -0.1200000   1.015252e-03  1.866303e-06
    470    490   2   0.50000    -0.1200000    0.0600000   2.494471e-04  1.671101e-07
    470    491   2   0.50000    -0.1200000    0.0600000   2.494471e-04  1.671101e-07
    488    473   2   0.50000     0.0600000   -0.1200000   2.494471e-04  1.671101e-07
    488    490   2   0.50000     0.0600000    0.0600000   6.128906e-05  1.496315e-08
    488    491   2   0.50000     0.0600000    0.0600000   6.128906e-05  1.496315e-08
    489    473   2   0.50000     0.0600000   -0.1200000   2.494471e-04  1.671101e-07
    489    490   2   0.50000     0.0600000    0.0600000   6.128906e-05  1.496315e-08
    489    491   2   0.50000     0.0600000    0.0600000   6.128906e-05  1.496315e-08
    471    474   2   0.50000    -0.1200000   -0.1800000   1.015252e-03  1.866303e-06
    471    492   2   0.50000    -0.1200000    0.0600000   2.494471e-04  1.671101e-07
    471    493   2   0.50000    -0.1200000    0.0600000   2.494471e-04  1.671101e-07
    490    474   2   0.50000     0.0600000   -0.1800000   2.494471e-04  1.671101e-07
    490    492   2   0.50000     0.0600000    0.0600000   6.128906e-05  1.496315e-08
    490    493   2   0.50000     0.0600000    0.0600000   6.128906e-05  1.496315e-08
    491    474   2   0.50000     0.0600000   -0.1800000   2.494471e-04  1.671101e-07
    491    492   2   0.50000     0.0600000    0.0600000   6.128906e-05  1.496315e-08
    491    493   2   0.50000     0.0600000    0.0600000   6.128906e-05  1.496315e-08
    472    494   2   0.50000    -0.1200000    0.0600000   2.494471e-04  1.671101e-07
    472    495   2   0.50000    -0.1200000    0.0600000   2.494471e-04  1.671101e-07
    472    496   2   0.50000    -0.1200000    0.0600000   2.494471e-04  1.671101e-07
    492    494   2   0.50000     0.0600000    0.0600000   6.128906e-05  1.496315e-08
    492    495   2   0.50000     0.0600000    0.0600000   6.128906e-05  1.496315e-08
    492    496   2   0.50000     0.0600000    0.0600000   6.128906e-05  1.496315e-08
    493    494   2   0.50000     0.0600000    0.0600000   6.128906e-05  1.496315e-08
    493    495   2   0.50000     0.0600000    0.0600000   6.128906e-05  1.496315e-08
    493    496   2   0.50000     0.0600000    0.0600000   6.128906e-05  1.496315e-08
    465    499   2   0.50000    -0.0600000   -0.1200000   1.015252e-03  1.866303e-06
    465    510   2   0.50000    -0.0600000    0.0600000   2.494471e-04  1.671101e-07
    465    530   2   0.50000    -0.0600000   -0.1200000   1.015252e-03  1.866303e-06
    508    499   2   0.50000     0.0600000   -0.1200000   2.494471e-04  1.671101e-07
    508    510   2   0.50000     0.0600000    0.0600000   6.128906e-05  1.496315e-08
    508    530   2   0.50000     0.0600000   -0.1200000   2.494471e-04  1.671101e-07
    509    499   2   0.50000     0.0600000   -0.1200000   2.494471e-04  1.671101e-07
    509    510   2   0.50000     0.0600000    0.0600000   6.128906e-05  1.496315e-08
    509    530   2   0.50000     0.0600000   -0.1200000   2.494471e-04  1.671101e-07
    497    500   2   0.50000    -0.1200000   -0.1200000   1.015252e-03  1.866303e-06
    497    511   2   0.50000    -0.1200000    0.0600000   2.494471e-04  1.671101e-07
    497    512   2   0.50000    -0.1200000    0.0600000   2.494471e-04  1.671101e-07
    510    500   2   0.50000     0.0600000   -0.1200000   2.494471e-04  1.671101e-07
    510    511   2   0.50000     0.0600000    0.0600000   6.128906e-05  1.496315e-08
    510    512   2   0.50000     0.0600000    0.0600000   6.128906e-05  1.496315e-08
    530    500   2   0.50000    -0.1200000   -0.1200000   1.015252e-03  1.866303e-06
    530    511   2   0.50000    -0.1200000    0.0600000   2.494471e-04  1.671101e-07
    530    512   2   0.50000    -0.1200000    0.0600000   2.494471e-04  1.671101e-07
    497    531   2   0.50000    -0.1200000   -0.0600000   1.015252e-03  1.866303e-06
    497    541   2   0.50000    -0.1200000    0.0600000   2.494471e-04  1.671101e-07
    497    542   2   0.50000    -0.1200000    0.0600000   2.494471e-04  1.671101e-07
    499    531   2   0.50000    -0.1200000   -0.0600000   1.015252e-03  1.866303e-06
    499    541   2   0.50000    -0.1200000    0.0600000   2.494471e-04  1.671101e-07
    499    542   2   0.50000    -0.1200000    0.0600000   2.494471e-04  1.671101e-07
    510    531   2   0.50000     0.0600000   -0.0600000   2.494471e-04  1.671101e-07
    510    541   2   0.50000     0.0600000    0.0600000   6.128906e-05  1.496315e-08
    510    542   2   0.50000     0.0600000    0.0600000   6.128906e-05  1.496315e-08
    498    501   2   0.50000    -0.0600000   -0.1200000   1.015252e-03  1.866303e-06
    498    513   2   0.50000    -0.0600000    0.0600000   2.494471e-04  1.671101e-07
    498    514   2   0.50000    -0.0600000    0.0600000   2.494471e-04  1.671101e-07
    511    501   2   0.50000     0.0600000   -0.1200000   2.494471e-04  1.671101e-07
    511    513   2   0.50000     0.0600000    0.0600000   6.128906e-05  1.496315e-08
    511    514   2   0.50000     0.0600000    0.0600000   6.128906e-05  1.496315e-08
    512    501   2   0.50000     0.0600000   -0.1200000   2.494471e-04  1.671101e-07
    512    513   2   0.50000     0.0600000    0.0600000   6.128906e-05  1.496315e-08
    512    514   2   0.50000     0.0600000    0.0600000   6.128906e-05  1.496315e-08
    499    502   2   0.50000    -0.1200000   -0.1200000   1.015252e-03  1.866303e-06
    499    515   2   0.50000    -0.1200000    0.0600000   2.494471e-04  1.671101e-07
    499    516   2   0.50000    -0.1200000    0.0600000   2.494471e-04  1.671101e-07
    513    502   2   0.50000     0.0600000   -0.1200000   2.494471e-04  1.671101e-07
    513    515   2   0.50000     0.0600000    0.0600000   6.128906e-05  1.496315e-08
    513    516   2   0.50000     0.0600000    0.0600000   6.128906e-05  1.496315e-08
    514    502   2   0.50000     0.0600000   -0.1200000   2.494471e-04  1.671101e-07
    514    515   2   0.50000     0.0600000    0.0600000   6.128906e-05  1.496315e-08
    514    516   2   0.50000     0.0600000    0.0600000   6.128906e-05  1.496315e-08
    500    503   2   0.50000    -0.1200000   -0.1200000   1.015252e-03  1.866303e-06
    500    517   2   0.50000    -0.1200000    0.0600000   2.494471e-04  1.671101e-07
    500    518   2   0.50000    -0.1200000    0.0600000   2.494471e-04  1.671101e-07
    515    503   2   0.50000     0.0600000   -0.1200000   2.494471e-04  1.671101e-07
    515    517   2   0.50000     0.0600000    0.0600000   6.128906e-05  1.496315e-08
    515    518   2   0.50000     0.0600000    0.0600000   6.128906e-05  1.496315e-08
    516    503   2   0.50000     0.0600000   -0.1200000   2.494471e-04  1.671101e-07
    516    517   2   0.50000     0.0600000    0.0600000   6.128906e-05  1.496315e-08
    516    518   2   0.50000     0.0600000    0.0600000   6.128906e-05  1.496315e-08
    501    504   2   0.50000    -0.1200000   -0.1200000   1.015252e-03  1.866303e-06
    501    519   2   0.50000    -0.1200000    0.0600000   2.494471e-04  1.671101e-07
    501    520   2   0.50000    -0.1200000    0.0600000   2.494471e-04  1.671101e-07
    517    504   2   0.50000     0.0600000   -0.1200000   2.494471e-04  1.671101e-07
    517    519   2   0.50000     0.0600000    0.0600000   6.128906e-05  1.496315e-08
    517    520   2   0.50000     0.0600000    0.0600000   6.128906e-05  1.496315e-08
    518    504   2   0.50000     0.0600000   -0.1200000   2.494471e-04  1.671101e-07
    518    519   2   0.50000     0.0600000    0.0600000   6.128906e-05  1.496315e-08
    518    520   2   0.50000     0.0600000    0.0600000   6.128906e-05  1.496315e-08
    502    505   2   0.50000    -0.1200000   -0.1200000   1.015252e-03  1.866303e-06
    502    521   2   0.50000    -0.1200000    0.0600000   2.494471e-04  1.671101e-07
    502    522   2   0.50000    -0.1200000    0.0600000   2.494471e-04  1.671101e-07
    519    505   2   0.50000     0.0600000   -0.1200000   2.494471e-04  1.671101e-07
    519    521   2   0.50000     0.0600000    0.0600000   6.128906e-05  1.496315e-08
    519    522   2   0.50000     0.0600000    0.0600000   6.128906e-05  1.496315e-08
    520    505   2   0.50000     0.0600000   -0.1200000   2.494471e-04  1.671101e-07
    520    521   2   0.50000     0.0600000    0.0600000   6.128906e-05  1.496315e-08
    520    522   2   0.50000     0.0600000    0.0600000   6.128906e-05  1.496315e-08
    503    506   2   0.50000    -0.1200000   -0.1200000   1.015252e-03  1.866303e-06
    503    523   2   0.50000    -0.1200000    0.0600000   2.494471e-04  1.671101e-07
    503    524   2   0.50000    -0.1200000    0.0600000   2.494471e-04  1.671101e-07
    521    506   2   0.50000     0.0600000   -0.1200000   2.494471e-04  1.671101e-07
    521    523   2   0.50000     0.0600000    0.0600000   6.128906e-05  1.496315e-08
    521    524   2   0.50000     0.0600000    0.0600000   6.128906e-05  1.496315e-08
    522    506   2   0.50000     0.0600000   -0.1200000   2.494471e-04  1.671101e-07
    522    523   2   0.50000     0.0600000    0.0600000   6.128906e-05  1.496315e-08
    522    524   2   0.50000     0.0600000    0.0600000   6.128906e-05  1.496315e-08
    504    507   2   0.50000    -0.1200000   -0.1800000   1.015252e-03  1.866303e-06
    504    525   2   0.50000    -0.1200000    0.0600000   2.494471e-04  1.671101e-07
    504    526   2   0.50000    -0.1200000    0.0600000   2.494471e-04  1.671101e-07
    523    507   2   0.50000     0.0600000   -0.1800000   2.494471e-04  1.671101e-07
    523    525   2   0.50000     0.0600000    0.0600000   6.128906e-05  1.496315e-08
    523    526   2   0.50000     0.0600000    0.0600000   6.128906e-05  1.496315e-08
    524    507   2   0.50000     0.0600000   -0.1800000   2.494471e-04  1.671101e-07
    524    525   2   0.50000     0.0600000    0.0600000   6.128906e-05  1.496315e-08
    524    526   2   0.50000     0.0600000    0.0600000   6.128906e-05  1.496315e-08
    505    527   2   0.50000    -0.1200000    0.0600000   2.494471e-04  1.671101e-07
    505    528   2   0.50000    -0.1200000    0.0600000   2.494471e-04  1.671101e-07
    505    529   2   0.50000    -0.1200000    0.0600000   2.494471e-04  1.671101e-07
    525    527   2   0.50000     0.0600000    0.0600000   6.128906e-05  1.496315e-08
    525    528   2   0.50000     0.0600000    0.0600000   6.128906e-05  1.496315e-08
    525    529   2   0.50000     0.0600000    0.0600000   6.128906e-05  1.496315e-08
    526    527   2   0.50000     0.0600000    0.0600000   6.128906e-05  1.496315e-08
    526    528   2   0.50000     0.0600000    0.0600000   6.128906e-05  1.496315e-08
    526    529   2   0.50000     0.0600000    0.0600000   6.128906e-05  1.496315e-08
    498    532   2   0.50000    -0.0600000   -0.1200000   1.015252e-03  1.866303e-06
    498    543   2   0.50000    -0.0600000    0.0600000   2.494471e-04  1.671101e-07
    498    563   2   0.50000    -0.0600000   -0.1200000   1.015252e-03  1.866303e-06
    541    532   2   0.50000     0.0600000   -0.1200000   2.494471e-04  1.671101e-07
    541    543   2   0.50000     0.0600000    0.0600000   6.128906e-05  1.496315e-08
    541    563   2   0.50000     0.0600000   -0.1200000   2.494471e-04  1.671101e-07
    542    532   2   0.50000     0.0600000   -0.1200000   2.494471e-04  1.671101e-07
    542    543   2   0.50000     0.0600000    0.0600000   6.128906e-05  1.496315e-08
    542    563   2   0.50000     0.0600000   -0.1200000   2.494471e-04  1.671101e-07
    530    533   2   0.50000    -0.1200000   -0.1200000   1.015252e-03  1.866303e-06
    530    544   2   0.50000    -0.1200000    0.0600000   2.494471e-04  1.671101e-07
    530    545   2   0.50000    -0.1200000    0.0600000   2.494471e-04  1.671101e-07
    543    533   2   0.50000     0.0600000   -0.1200000   2.494471e-04  1.671101e-07
    543    544   2   0.50000     0.0600000    0.0600000   6.128906e-05  1.496315e-08
    543    545   2   0.50000     0.0600000    0.0600000   6.128906e-05  1.496315e-08
    563    533   2   0.50000    -0.1200000   -0.1200000   1.015252e-03  1.866303e-06
    563    544   2   0.50000    -0.1200000    0.0600000   2.494471e-04  1.671101e-07
    563    545   2   0.50000    -0.1200000    0.0600000   2.494471e-04  1.671101e-07
    530    564   2   0.50000    -0.1200000   -0.0600000   1.015252e-03  1.866303e-06
    530    574   2   0.50000    -0.1200000    0.0600000   2.494471e-04  1.671101e-07
    530    575   2   0.50000    -0.1200000    0.0600000   2.494471e-04  1.671101e-07
    532    564   2   0.50000    -0.1200000   -0.0600000   1.015252e-03  1.866303e-06
    532    574   2   0.50000    -0.1200000    0.0600000   2.494471e-04  1.671101e-07
    532    575   2   0.50000    -0.1200000    0.0600000   2.494471e-04  1.671101e-07
    543    564   2   0.50000     0.0600000   -0.0600000   2.494471e-04  1.671101e-07
    543    574   2   0.50000     0.0600000    0.0600000   6.128906e-05  1.496315e-08
    543    575   2   0.50000     0.0600000    0.0600000   6.128906e-05  1.496315e-08
    531    534   2   0.50000    -0.0600000   -0.1200000   1.015252e-03  1.866303e-06
    531    546   2   0.50000    -0.0600000    0.0600000   2.494471e-04  1.671101e-07
    531    547   2   0.50000    -0.0600000    0.0600000   2.494471e-04  1.671101e-07
    544    534   2   0.50000     0.0600000   -0.1200000   2.494471e-04  1.671101e-07
    544    546   2   0.50000     0.0600000    0.0600000   6.128906e-05  1.496315e-08
    544    547   2   0.50000     0.0600000    0.0600000   6.128906e-05  1.496315e-08
    545    534   2   0.50000     0.0600000   -0.1200000   2.494471e-04  1.671101e-07
    545    546   2   0.50000     0.0600000    0.0600000   6.128906e-05  1.496315e-08
    545    547   2   0.50000     0.0600000    0.0600000   6.128906e-05  1.496315e-08
    532    535   2   0.50000    -0.1200000   -0.1200000   1.015252e-03  1.866303e-06
    532    548   2   0.50000    -0.1200000    0.0600000   2.494471e-04  1.671101e-07
    532    549   2   0.50000    -0.1200000    0.0600000   2.494471e-04  1.671101e-07
    546    535   2   0.50000     0.0600000   -0.1200000   2.494471e-04  1.671101e-07
    546    548   2   0.50000     0.0600000    0.0600000   6.128906e-05  1.496315e-08
    546    549   2   0.50000     0.0600000    0.0600000   6.128906e-05  1.496315e-08
    547    535   2   0.50000     0.0600000   -0.1200000   2.494471e-04  1.671101e-07
    547    548   2   0.50000     0.0600000    0.0600000   6.128906e-05  1.496315e-08
    547    549   2   0.50000     0.0600000    0.0600000   6.128906e-05  1.496315e-08
    533    536   2   0.50000    -0.1200000   -0.1200000   1.015252e-03  1.866303e-06
    533    550   2   0.50000    -0.1200000    0.0600000   2.494471e-04  1.671101e-07
    533    551   2   0.50000    -0.1200000    0.0600000   2.494471e-04  1.671101e-07
    548    536   2   0.50000     0.0600000   -0.1200000   2.494471e-04  1.671101e-07
    548    550   2   0.50000     0.0600000    0.0600000   6.128906e-05  1.496315e-08
    548    551   2   0.50000     0.0600000    0.0600000   6.128906e-05  1.496315e-08
    549    536   2   0.50000     0.0600000   -0.1200000   2.494471e-04  1.671101e-07
    549    550   2   0.50000     0.0600000    0.0600000   6.128906e-05  1.496315e-08
    549    551   2   0.50000     0.0600000    0.0600000   6.128906e-05  1.496315e-08
    534    537   2   0.50000    -0.1200000   -0.1200000   1.015252e-03  1.866303e-06
    534    552   2   0.50000    -0.1200000    0.0600000   2.494471e-04  1.671101e-07
    534    553   2   0.50000    -0.1200000    0.0600000   2.494471e-04  1.671101e-07
    550    537   2   0.50000     0.0600000   -0.1200000   2.494471e-04  1.671101e-07
    550    552   2   0.50000     0.0600000    0.0600000   6.128906e-05  1.496315e-08
    550    553   2   0.50000     0.0600000    0.0600000   6.128906e-05  1.496315e-08
    551    537   2   0.50000     0.0600000   -0.1200000   2.494471e-04  1.671101e-07
    551    552   2   0.50000     0.0600000    0.0600000   6.128906e-05  1.496315e-08
    551    553   2   0.50000     0.0600000    0.0600000   6.128906e-05  1.496315e-08
    535    538   2   0.50000    -0.1200000   -0.1200000   1.015252e-03  1.866303e-06
    535    554   2   0.50000    -0.1200000    0.0600000   2.494471e-04  1.671101e-07
    535    555   2   0.50000    -0.1200000    0.0600000   2.494471e-04  1.671101e-07
    552    538   2   0.50000     0.0600000   -0.1200000   2.494471e-04  1.671101e-07
    552    554   2   0.50000     0.0600000    0.0600000   6.128906e-05  1.496315e-08
    552    555   2   0.50000     0.0600000    0.0600000   6.128906e-05  1.496315e-08
    553    538   2   0.50000     0.0600000   -0.1200000   2.494471e-04  1.671101e-07
    553    554   2   0.50000     0.0600000    0.0600000   6.128906e-05  1.496315e-08
    553    555   2   0.50000     0.0600000    0.0600000   6.128906e-05  1.496315e-08
    536    539   2   0.50000    -0.1200000   -0.1200000   1.015252e-03  1.866303e-06
    536    556   2   0.50000    -0.1200000    0.0600000   2.494471e-04  1.671101e-07
    536    557   2   0.50000    -0.1200000    0.0600000   2.494471e-04  1.671101e-07
    554    539   2   0.50000     0.0600000   -0.1200000   2.494471e-04  1.671101e-07
    554    556   2   0.50000     0.0600000    0.0600000   6.128906e-05  1.496315e-08
    554    557   2   0.50000     0.0600000    0.0600000   6.128906e-05  1.496315e-08
    555    539   2   0.50000     0.0600000   -0.1200000   2.494471e-04  1.671101e-07
    555    556   2   0.50000     0.0600000    0.0600000   6.128906e-05  1.496315e-08
    555    557   2   0.50000     0.0600000    0.0600000   6.128906e-05  1.496315e-08
    537    540   2   0.50000    -0.1200000   -0.1800000   1.015252e-03  1.866303e-06
    537    558   2   0.50000    -0.1200000    0.0600000   2.494471e-04  1.671101e-07
    537    559   2   0.50000    -0.1200000    0.0600000   2.494471e-04  1.671101e-07
    556    540   2   0.50000     0.0600000   -0.1800000   2.494471e-04  1.671101e-07
    556    558   2   0.50000     0.0600000    0.0600000   6.128906e-05  1.496315e-08
    556    559   2   0.50000     0.0600000    0.0600000   6.128906e-05  1.496315e-08
    557    540   2   0.50000     0.0600000   -0.1800000   2.494471e-04  1.671101e-07
    557    558   2   0.50000     0.0600000    0.0600000   6.128906e-05  1.496315e-08
    557    559   2   0.50000     0.0600000    0.0600000   6.128906e-05  1.496315e-08
    538    560   2   0.50000    -0.1200000    0.0600000   2.494471e-04  1.671101e-07
    538    561   2   0.50000    -0.1200000    0.0600000   2.494471e-04  1.671101e-07
    538    562   2   0.50000    -0.1200000    0.0600000   2.494471e-04  1.671101e-07
    558    560   2   0.50000     0.0600000    0.0600000   6.128906e-05  1.496315e-08
    558    561   2   0.50000     0.0600000    0.0600000   6.128906e-05  1.496315e-08
    558    562   2   0.50000     0.0600000    0.0600000   6.128906e-05  1.496315e-08
    559    560   2   0.50000     0.0600000    0.0600000   6.128906e-05  1.496315e-08
    559    561   2   0.50000     0.0600000    0.0600000   6.128906e-05  1.496315e-08
    559    562   2   0.50000     0.0600000    0.0600000   6.128906e-05  1.496315e-08
    531    565   2   0.50000    -0.0600000   -0.1200000   1.015252e-03  1.866303e-06
    531    576   2   0.50000    -0.0600000    0.0600000   2.494471e-04  1.671101e-07
    531    596   2   0.50000    -0.0600000   -0.1200000   1.015252e-03  1.866303e-06
    574    565   2   0.50000     0.0600000   -0.1200000   2.494471e-04  1.671101e-07
    574    576   2   0.50000     0.0600000    0.0600000   6.128906e-05  1.496315e-08
    574    596   2   0.50000     0.0600000   -0.1200000   2.494471e-04  1.671101e-07
    575    565   2   0.50000     0.0600000   -0.1200000   2.494471e-04  1.671101e-07
    575    576   2   0.50000     0.0600000    0.0600000   6.128906e-05  1.496315e-08
    575    596   2   0.50000     0.0600000   -0.1200000   2.494471e-04  1.671101e-07
    563    566   2   0.50000    -0.1200000   -0.1200000   1.015252e-03  1.866303e-06
    563    577   2   0.50000    -0.1200000    0.0600000   2.494471e-04  1.671101e-07
    563    578   2   0.50000    -0.1200000    0.0600000   2.494471e-04  1.671101e-07
    576    566   2   0.50000     0.0600000   -0.1200000   2.494471e-04  1.671101e-07
    576    577   2   0.50000     0.0600000    0.0600000   6.128906e-05  1.496315e-08
    576    578   2   0.50000     0.0600000    0.0600000   6.128906e-05  1.496315e-08
    596    566   2   0.50000    -0.1200000   -0.1200000   1.015252e-03  1.866303e-06
    596    577   2   0.50000    -0.1200000    0.0600000   2.494471e-04  1.671101e-07
    596    578   2   0.50000    -0.1200000    0.0600000   2.494471e-04  1.671101e-07
    563    597   2   0.50000    -0.1200000   -0.0600000   1.015252e-03  1.866303e-06
    563    607   2   0.50000    -0.1200000    0.0600000   2.494471e-04  1.671101e-07
    563    608   2   0.50000    -0.1200000    0.0600000   2.494471e-04  1.671101e-07
    565    597   2   0.50000    -0.1200000   -0.0600000   1.015252e-03  1.866303e-06
    565    607   2   0.50000    -0.1200000    0.0600000   2.494471e-04  1.671101e-07
    565    608   2   0.50000    -0.1200000    0.0600000   2.494471e-04  1.671101e-07
    576    597   2   0.50000     0.0600000   -0.0600000   2.494471e-04  1.671101e-07
    576    607   2   0.50000     0.0600000    0.0600000   6.128906e-05  1.496315e-08
    576    608   2   0.50000     0.0600000    0.0600000   6.128906e-05  1.496315e-08
    564    567   2   0.50000    -0.0600000   -0.1200000   1.015252e-03  1.866303e-06
    564    579   2   0.50000    -0.0600000    0.0600000   2.494471e-04  1.671101e-07
    564    580   2   0.50000    -0.0600000    0.0600000   2.494471e-04  1.671101e-07
    577    567   2   0.50000     0.0600000   -0.1200000   2.494471e-04  1.671101e-07
    577    579   2   0.50000     0.0600000    0.0600000   6.128906e-05  1.496315e-08
    577    580   2   0.50000     0.0600000    0.0600000   6.128906e-05  1.496315e-08
    578    567   2   0.50000     0.0600000   -0.1200000   2.494471e-04  1.671101e-07
    578    579   2   0.50000     0.0600000    0.0600000   6.128906e-05  1.496315e-08
    578    580   2   0.50000     0.0600000    0.0600000   6.128906e-05  1.496315e-08
    565    568   2   0.50000    -0.1200000   -0.1200000   1.015252e-03  1.866303e-06
    565    581   2   0.50000    -0.1200000    0.0600000   2.494471e-04  1.671101e-07
    565    582   2   0.50000    -0.1200000    0.0600000   2.494471e-04  1.671101e-07
    579    568   2   0.50000     0.0600000   -0.1200000   2.494471e-04  1.671101e-07
    579    581   2   0.50000     0.0600000    0.0600000   6.128906e-05  1.496315e-08
    579    582   2   0.50000     0.0600000    0.0600000   6.128906e-05  1.496315e-08
    580    568   2   0.50000     0.0600000   -0.1200000   2.494471e-04  1.671101e-07
    580    581   2   0.50000     0.0600000    0.0600000   6.128906e-05  1.496315e-08
    580    582   2   0.50000     0.0600000    0.0600000   6.128906e-05  1.496315e-08
    566    569   2   0.50000    -0.1200000   -0.1200000   1.015252e-03  1.866303e-06
    566    583   2   0.50000    -0.1200000    0.0600000   2.494471e-04  1.671101e-07
    566    584   2   0.50000    -0.1200000    0.0600000   2.494471e-04  1.671101e-07
    581    569   2   0.50000     0.0600000   -0.1200000   2.494471e-04  1.671101e-07
    581    583   2   0.50000     0.0600000    0.0600000   6.128906e-05  1.496315e-08
    581    584   2   0.50000     0.0600000    0.0600000   6.128906e-05  1.496315e-08
    582    569   2   0.50000     0.0600000   -0.1200000   2.494471e-04  1.671101e-07
    582    583   2   0.50000     0.0600000    0.0600000   6.128906e-05  1.496315e-08
    582    584   2   0.50000     0.0600000    0.0600000   6.128906e-05  1.496315e-08
    567    570   2   0.50000    -0.1200000   -0.1200000   1.015252e-03  1.866303e-06
    567    585   2   0.50000    -0.1200000    0.0600000   2.494471e-04  1.671101e-07
    567    586   2   0.50000    -0.1200000    0.0600000   2.494471e-04  1.671101e-07
    583    570   2   0.50000     0.0600000   -0.1200000   2.494471e-04  1.671101e-07
    583    585   2   0.50000     0.0600000    0.0600000   6.128906e-05  1.496315e-08
    583    586   2   0.50000     0.0600000    0.0600000   6.128906e-05  1.496315e-08
    584    570   2   0.50000     0.0600000   -0.1200000   2.494471e-04  1.671101e-07
    584    585   2   0.50000     0.0600000    0.0600000   6.128906e-05  1.496315e-08
    584    586   2   0.50000     0.0600000    0.0600000   6.128906e-05  1.496315e-08
    568    571   2   0.50000    -0.1200000   -0.1200000   1.015252e-03  1.866303e-06
    568    587   2   0.50000    -0.1200000    0.0600000   2.494471e-04  1.671101e-07
    568    588   2   0.50000    -0.1200000    0.0600000   2.494471e-04  1.671101e-07
    585    571   2   0.50000     0.0600000   -0.1200000   2.494471e-04  1.671101e-07
    585    587   2   0.50000     0.0600000    0.0600000   6.128906e-05  1.496315e-08
    585    588   2   0.50000     0.0600000    0.0600000   6.128906e-05  1.496315e-08
    586    571   2   0.50000     0.0600000   -0.1200000   2.494471e-04  1.671101e-07
    586    587   2   0.50000     0.0600000    0.0600000   6.128906e-05  1.496315e-08
    586    588   2   0.50000     0.0600000    0.0600000   6.128906e-05  1.496315e-08
    569    572   2   0.50000    -0.1200000   -0.1200000   1.015252e-03  1.866303e-06
    569    589   2   0.50000    -0.1200000    0.0600000   2.494471e-04  1.671101e-07
    569    590   2   0.50000    -0.1200000    0.0600000   2.494471e-04  1.671101e-07
    587    572   2   0.50000     0.0600000   -0.1200000   2.494471e-04  1.671101e-07
    587    589   2   0.50000     0.0600000    0.0600000   6.128906e-05  1.496315e-08
    587    590   2   0.50000     0.0600000    0.0600000   6.128906e-05  1.496315e-08
    588    572   2   0.50000     0.0600000   -0.1200000   2.494471e-04  1.671101e-07
    588    589   2   0.50000     0.0600000    0.0600000   6.128906e-05  1.496315e-08
    588    590   2   0.50000     0.0600000    0.0600000   6.128906e-05  1.496315e-08
    570    573   2   0.50000    -0.1200000   -0.1800000   1.015252e-03  1.866303e-06
    570    591   2   0.50000    -0.1200000    0.0600000   2.494471e-04  1.671101e-07
    570    592   2   0.50000    -0.1200000    0.0600000   2.494471e-04  1.671101e-07
    589    573   2   0.50000     0.0600000   -0.1800000   2.494471e-04  1.671101e-07
    589    591   2   0.50000     0.0600000    0.0600000   6.128906e-05  1.496315e-08
    589    592   2   0.50000     0.0600000    0.0600000   6.128906e-05  1.496315e-08
    590    573   2   0.50000     0.0600000   -0.1800000   2.494471e-04  1.671101e-07
    590    591   2   0.50000     0.0600000    0.0600000   6.128906e-05  1.496315e-08
    590    592   2   0.50000     0.0600000    0.0600000   6.128906e-05  1.496315e-08
    571    593   2   0.50000    -0.1200000    0.0600000   2.494471e-04  1.671101e-07
    571    594   2   0.50000    -0.1200000    0.0600000   2.494471e-04  1.671101e-07
    571    595   2   0.50000    -0.1200000    0.0600000   2.494471e-04  1.671101e-07
    591    593   2   0.50000     0.0600000    0.0600000   6.128906e-05  1.496315e-08
    591    594   2   0.50000     0.0600000    0.0600000   6.128906e-05  1.496315e-08
    591    595   2   0.50000     0.0600000    0.0600000   6.128906e-05  1.496315e-08
    592    593   2   0.50000     0.0600000    0.0600000   6.128906e-05  1.496315e-08
    592    594   2   0.50000     0.0600000    0.0600000   6.128906e-05  1.496315e-08
    592    595   2   0.50000     0.0600000    0.0600000   6.128906e-05  1.496315e-08
    564    598   2   0.50000    -0.0600000   -0.1200000   1.015252e-03  1.866303e-06
    564    609   2   0.50000    -0.0600000    0.0600000   2.494471e-04  1.671101e-07
    564    629   2   0.50000    -0.0600000   -0.1200000   1.015252e-03  1.866303e-06
    607    598   2   0.50000     0.0600000   -0.1200000   2.494471e-04  1.671101e-07
    607    609   2   0.50000     0.0600000    0.0600000   6.128906e-05  1.496315e-08
    607    629   2   0.50000     0.0600000   -0.1200000   2.494471e-04  1.671101e-07
    608    598   2   0.50000     0.0600000   -0.1200000   2.494471e-04  1.671101e-07
    608    609   2   0.50000     0.0600000    0.0600000   6.128906e-05  1.496315e-08
    608    629   2   0.50000     0.0600000   -0.1200000   2.494471e-04  1.671101e-07
    596    599   2   0.50000    -0.1200000   -0.1200000   1.015252e-03  1.866303e-06
    596    610   2   0.50000    -0.1200000    0.0600000   2.494471e-04  1.671101e-07
    596    611   2   0.50000    -0.1200000    0.0600000   2.494471e-04  1.671101e-07
    609    599   2   0.50000     0.0600000   -0.1200000   2.494471e-04  1.671101e-07
    609    610   2   0.50000     0.0600000    0.0600000   6.128906e-05  1.496315e-08
    609    611   2   0.50000     0.0600000    0.0600000   6.128906e-05  1.496315e-08
    629    599   2   0.50000    -0.1200000   -0.1200000   1.015252e-03  1.866303e-06
    629    610   2   0.50000    -0.1200000    0.0600000   2.494471e-04  1.671101e-07
    629    611   2   0.50000    -0.1200000    0.0600000   2.494471e-04  1.671101e-07
    596    630   2   0.50000    -0.1200000   -0.1200000   1.015252e-03  1.866303e-06
    596    640   2   0.50000    -0.1200000    0.0600000   2.494471e-04  1.671101e-07
    596    641   2   0.50000    -0.1200000    0.0600000   2.494471e-04  1.671101e-07
    598    630   2   0.50000    -0.1200000   -0.1200000   1.015252e-03  1.866303e-06
    598    640   2   0.50000    -0.1200000    0.0600000   2.494471e-04  1.671101e-07
    598    641   2   0.50000    -0.1200000    0.0600000   2.494471e-04  1.671101e-07
    609    630   2   0.50000     0.0600000   -0.1200000   2.494471e-04  1.671101e-07
    609    640   2   0.50000     0.0600000    0.0600000   6.128906e-05  1.496315e-08
    609    641   2   0.50000     0.0600000    0.0600000   6.128906e-05  1.496315e-08
    597    600   2   0.50000    -0.0600000   -0.1200000   1.015252e-03  1.866303e-06
    597    612   2   0.50000    -0.0600000    0.0600000   2.494471e-04  1.671101e-07
    597    613   2   0.50000    -0.0600000    0.0600000   2.494471e-04  1.671101e-07
    610    600   2   0.50000     0.0600000   -0.1200000   2.494471e-04  1.671101e-07
    610    612   2   0.50000     0.0600000    0.0600000   6.128906e-05  1.496315e-08
    610    613   2   0.50000     0.0600000    0.0600000   6.128906e-05  1.496315e-08
    611    600   2   0.50000     0.0600000   -0.1200000   2.494471e-04  1.671101e-07
    611    612   2   0.50000     0.0600000    0.0600000   6.128906e-05  1.496315e-08
    611    613   2   0.50000     0.0600000    0.0600000   6.128906e-05  1.496315e-08
    598    601   2   0.50000    -0.1200000   -0.1200000   1.015252e-03  1.866303e-06
    598    614   2   0.50000    -0.1200000    0.0600000   2.494471e-04  1.671101e-07
    598    615   2   0.50000    -0.1200000    0.0600000   2.494471e-04  1.671101e-07
    612    601   2   0.50000     0.0600000   -0.1200000   2.494471e-04  1.671101e-07
    612    614   2   0.50000     0.0600000    0.0600000   6.128906e-05  1.496315e-08
    612    615   2   0.50000     0.0600000    0.0600000   6.128906e-05  1.496315e-08
    613    601   2   0.50000     0.0600000   -0.1200000   2.494471e-04  1.671101e-07
    613    614   2   0.50000     0.0600000    0.0600000   6.128906e-05  1.496315e-08
    613    615   2   0.50000     0.0600000    0.0600000   6.128906e-05  1.496315e-08
    599    602   2   0.50000    -0.1200000   -0.1200000   1.015252e-03  1.866303e-06
    599    616   2   0.50000    -0.1200000    0.0600000   2.494471e-04  1.671101e-07
    599    617   2   0.50000    -0.1200000    0.0600000   2.494471e-04  1.671101e-07
    614    602   2   0.50000     0.0600000   -0.1200000   2.494471e-04  1.671101e-07
    614    616   2   0.50000     0.0600000    0.0600000   6.128906e-05  1.496315e-08
    614    617   2   0.50000     0.0600000    0.0600000   6.128906e-05  1.496315e-08
    615    602   2   0.50000     0.0600000   -0.1200000   2.494471e-04  1.671101e-07
    615    616   2   0.50000     0.0600000    0.0600000   6.128906e-05  1.496315e-08
    615    617   2   0.50000     0.0600000    0.0600000   6.128906e-05  1.496315e-08
    600    603   2   0.50000    -0.1200000   -0.1200000   1.015252e-03  1.866303e-06
    600    618   2   0.50000    -0.1200000    0.0600000   2.494471e-04  1.671101e-07
    600    619   2   0.50000    -0.1200000    0.0600000   2.494471e-04  1.671101e-07
    616    603   2   0.50000     0.0600000   -0.1200000   2.494471e-04  1.671101e-07
    616    618   2   0.50000     0.0600000    0.0600000   6.128906e-05  1.496315e-08
    616    619   2   0.50000     0.0600000    0.0600000   6.128906e-05  1.496315e-08
    617    603   2   0.50000     0.0600000   -0.1200000   2.494471e-04  1.671101e-07
    617    618   2   0.50000     0.0600000    0.0600000   6.128906e-05  1.496315e-08
    617    619   2   0.50000     0.0600000    0.0600000   6.128906e-05  1.496315e-08
    601    604   2   0.50000    -0.1200000   -0.1200000   1.015252e-03  1.866303e-06
    601    620   2   0.50000    -0.1200000    0.0600000   2.494471e-04  1.671101e-07
    601    621   2   0.50000    -0.1200000    0.0600000   2.494471e-04  1.671101e-07
    618    604   2   0.50000     0.0600000   -0.1200000   2.494471e-04  1.671101e-07
    618    620   2   0.50000     0.0600000    0.0600000   6.128906e-05  1.496315e-08
    618    621   2   0.50000     0.0600000    0.0600000   6.128906e-05  1.496315e-08
    619    604   2   0.50000     0.0600000   -0.1200000   2.494471e-04  1.671101e-07
    619    620   2   0.50000     0.0600000    0.0600000   6.128906e-05  1.496315e-08
    619    621   2   0.50000     0.0600000    0.0600000   6.128906e-05  1.496315e-08
    602    605   2   0.50000    -0.1200000   -0.1200000   1.015252e-03  1.866303e-06
    602    622   2   0.50000    -0.1200000    0.0600000   2.494471e-04  1.671101e-07
    602    623   2   0.50000    -0.1200000    0.0600000   2.494471e-04  1.671101e-07
    620    605   2   0.50000     0.0600000   -0.1200000   2.494471e-04  1.671101e-07
    620    622   2   0.50000     0.0600000    0.0600000   6.128906e-05  1.496315e-08
    620    623   2   0.50000     0.0600000    0.0600000   6.128906e-05  1.496315e-08
    621    605   2   0.50000     0.0600000   -0.1200000   2.494471e-04  1.671101e-07
    621    622   2   0.50000     0.0600000    0.0600000   6.128906e-05  1.496315e-08
    621    623   2   0.50000     0.0600000    0.0600000   6.128906e-05  1.496315e-08
    603    606   2   0.50000    -0.1200000   -0.1800000   1.015252e-03  1.866303e-06
    603    624   2   0.50000    -0.1200000    0.0600000   2.494471e-04  1.671101e-07
    603    625   2   0.50000    -0.1200000    0.0600000   2.494471e-04  1.671101e-07
    622    606   2   0.50000     0.0600000   -0.1800000   2.494471e-04  1.671101e-07
    622    624   2   0.50000     0.0600000    0.0600000   6.128906e-05  1.496315e-08
    622    625   2   0.50000     0.0600000    0.0600000   6.128906e-05  1.496315e-08
    623    606   2   0.50000     0.0600000   -0.1800000   2.494471e-04  1.671101e-07
    623    624   2   0.50000     0.0600000    0.0600000   6.128906e-05  1.496315e-08
    623    625   2   0.50000     0.0600000    0.0600000   6.128906e-05  1.496315e-08
    604    626   2   0.50000    -0.1200000    0.0600000   2.494471e-04  1.671101e-07
    604    627   2   0.50000    -0.1200000    0.0600000   2.494471e-04  1.671101e-07
    604    628   2   0.50000    -0.1200000    0.0600000   2.494471e-04  1.671101e-07
    624    626   2   0.50000     0.0600000    0.0600000   6.128906e-05  1.496315e-08
    624    627   2   0.50000     0.0600000    0.0600000   6.128906e-05  1.496315e-08
    624    628   2   0.50000     0.0600000    0.0600000   6.128906e-05  1.496315e-08
    625    626   2   0.50000     0.0600000    0.0600000   6.128906e-05  1.496315e-08
    625    627   2   0.50000     0.0600000    0.0600000   6.128906e-05  1.496315e-08
    625    628   2   0.50000     0.0600000    0.0600000   6.128906e-05  1.496315e-08
    597    631   2   0.50000    -0.0600000   -0.1200000   1.015252e-03  1.866303e-06
    597    642   2   0.50000    -0.0600000    0.0600000   2.494471e-04  1.671101e-07
    597    662   2   0.50000    -0.0600000    0.0600000   2.494471e-04  1.671101e-07
    640    631   2   0.50000     0.0600000   -0.1200000   2.494471e-04  1.671101e-07
    640    642   2   0.50000     0.0600000    0.0600000   6.128906e-05  1.496315e-08
    640    662   2   0.50000     0.0600000    0.0600000   6.128906e-05  1.496315e-08
    641    631   2   0.50000     0.0600000   -0.1200000   2.494471e-04  1.671101e-07
    641    642   2   0.50000     0.0600000    0.0600000   6.128906e-05  1.496315e-08
    641    662   2   0.50000     0.0600000    0.0600000   6.128906e-05  1.496315e-08
    629    632   2   0.50000    -0.1200000   -0.1200000   1.015252e-03  1.866303e-06
    629    643   2   0.50000    -0.1200000    0.0600000   2.494471e-04  1.671101e-07
    629    644   2   0.50000    -0.1200000    0.0600000   2.494471e-04  1.671101e-07
    642    632   2   0.50000     0.0600000   -0.1200000   2.494471e-04  1.671101e-07
    642    643   2   0.50000     0.0600000    0.0600000   6.128906e-05  1.496315e-08
    642    644   2   0.50000     0.0600000    0.0600000   6.128906e-05  1.496315e-08
    662    632   2   0.50000     0.0600000   -0.1200000   2.494471e-04  1.671101e-07
    662    643   2   0.50000     0.0600000    0.0600000   6.128906e-05  1.496315e-08
    662    644   2   0.50000     0.0600000    0.0600000   6.128906e-05  1.496315e-08
    630    633   2   0.50000    -0.1200000   -0.1200000   1.015252e-03  1.866303e-06
    630    645   2   0.50000    -0.1200000    0.0600000   2.494471e-04  1.671101e-07
    630    646   2   0.50000    -0.1200000    0.0600000   2.494471e-04  1.671101e-07
    643    633   2   0.50000     0.0600000   -0.1200000   2.494471e-04  1.671101e-07
    643    645   2   0.50000     0.0600000    0.0600000   6.128906e-05  1.496315e-08
    643    646   2   0.50000     0.0600000    0.0600000   6.128906e-05  1.496315e-08
    644    633   2   0.50000     0.0600000   -0.1200000   2.494471e-04  1.671101e-07
    644    645   2   0.50000     0.0600000    0.0600000   6.128906e-05  1.496315e-08
    644    646   2   0.50000     0.0600000    0.0600000   6.128906e-05  1.496315e-08
    631    634   2   0.50000    -0.1200000   -0.1200000   1.015252e-03  1.866303e-06
    631    647   2   0.50000    -0.1200000    0.0600000   2.494471e-04  1.671101e-07
    631    648   2   0.50000    -0.1200000    0.0600000   2.494471e-04  1.671101e-07
    645    634   2   0.50000     0.0600000   -0.1200000   2.494471e-04  1.671101e-07
    645    647   2   0.50000     0.0600000    0.0600000   6.128906e-05  1.496315e-08
    645    648   2   0.50000     0.0600000    0.0600000   6.128906e-05  1.496315e-08
    646    634   2   0.50000     0.0600000   -0.1200000   2.494471e-04  1.671101e-07
    646    647   2   0.50000     0.0600000    0.0600000   6.128906e-05  1.496315e-08
    646    648   2   0.50000     0.0600000    0.0600000   6.128906e-05  1.496315e-08
    632    635   2   0.50000    -0.1200000   -0.1200000   1.015252e-03  1.866303e-06
    632    649   2   0.50000    -0.1200000    0.0600000   2.494471e-04  1.671101e-07
    632    650   2   0.50000    -0.1200000    0.0600000   2.494471e-04  1.671101e-07
    647    635   2   0.50000     0.0600000   -0.1200000   2.494471e-04  1.671101e-07
    647    649   2   0.50000     0.0600000    0.0600000   6.128906e-05  1.496315e-08
    647    650   2   0.50000     0.0600000    0.0600000   6.128906e-05  1.496315e-08
    648    635   2   0.50000     0.0600000   -0.1200000   2.494471e-04  1.671101e-07
    648    649   2   0.50000     0.0600000    0.0600000   6.128906e-05  1.496315e-08
    648    650   2   0.50000     0.0600000    0.0600000   6.128906e-05  1.496315e-08
    633    636   2   0.50000    -0.1200000   -0.1200000   1.015252e-03  1.866303e-06
    633    651   2   0.50000    -0.1200000    0.0600000   2.494471e-04  1.671101e-07
    633    652   2   0.50000    -0.1200000    0.0600000   2.494471e-04  1.671101e-07
    649    636   2   0.50000     0.0600000   -0.1200000   2.494471e-04  1.671101e-07
    649    651   2   0.50000     0.0600000    0.0600000   6.128906e-05  1.496315e-08
    649    652   2   0.50000     0.0600000    0.0600000   6.128906e-05  1.496315e-08
    650    636   2   0.50000     0.0600000   -0.1200000   2.494471e-04  1.671101e-07
    650    651   2   0.50000     0.0600000    0.0600000   6.128906e-05  1.496315e-08
    650    652   2   0.50000     0.0600000    0.0600000   6.128906e-05  1.496315e-08
    634    637   2   0.50000    -0.1200000   -0.1200000   1.015252e-03  1.866303e-06
    634    653   2   0.50000    -0.1200000    0.0600000   2.494471e-04  1.671101e-07
    634    654   2   0.50000    -0.1200000    0.0600000   2.494471e-04  1.671101e-07
    651    637   2   0.50000     0.0600000   -0.1200000   2.494471e-04  1.671101e-07
    651    653   2   0.50000     0.0600000    0.0600000   6.128906e-05  1.496315e-08
    651    654   2   0.50000     0.0600000    0.0600000   6.128906e-05  1.496315e-08
    652    637   2   0.50000     0.0600000   -0.1200000   2.494471e-04  1.671101e-07
    652    653   2   0.50000     0.0600000    0.0600000   6.128906e-05  1.496315e-08
    652    654   2   0.50000     0.0600000    0.0600000   6.128906e-05  1.496315e-08
    635    638   2   0.50000    -0.1200000   -0.1200000   1.015252e-03  1.866303e-06
    635    655   2   0.50000    -0.1200000    0.0600000   2.494471e-04  1.671101e-07
    635    656   2   0.50000    -0.1200000    0.0600000   2.494471e-04  1.671101e-07
    653    638   2   0.50000     0.0600000   -0.1200000   2.494471e-04  1.671101e-07
    653    655   2   0.50000     0.0600000    0.0600000   6.128906e-05  1.496315e-08
    653    656   2   0.50000     0.0600000    0.0600000   6.128906e-05  1.496315e-08
    654    638   2   0.50000     0.0600000   -0.1200000   2.494471e-04  1.671101e-07
    654    655   2   0.50000     0.0600000    0.0600000   6.128906e-05  1.496315e-08
    654    656   2   0.50000     0.0600000    0.0600000   6.128906e-05  1.496315e-08
    636    639   2   0.50000    -0.1200000   -0.1800000   1.015252e-03  1.866303e-06
    636    657   2   0.50000    -0.1200000    0.0600000   2.494471e-04  1.671101e-07
    636    658   2   0.50000    -0.1200000    0.0600000   2.494471e-04  1.671101e-07
    655    639   2   0.50000     0.0600000   -0.1800000   2.494471e-04  1.671101e-07
    655    657   2   0.50000     0.0600000    0.0600000   6.128906e-05  1.496315e-08
    655    658   2   0.50000     0.0600000    0.0600000   6.128906e-05  1.496315e-08
    656    639   2   0.50000     0.0600000   -0.1800000   2.494471e-04  1.671101e-07
    656    657   2   0.50000     0.0600000    0.0600000   6.128906e-05  1.496315e-08
    656    658   2   0.50000     0.0600000    0.0600000   6.128906e-05  1.496315e-08
    637    659   2   0.50000    -0.1200000    0.0600000   2.494471e-04  1.671101e-07
    637    660   2   0.50000    -0.1200000    0.0600000   2.494471e-04  1.671101e-07
    637    661   2   0.50000    -0.1200000    0.0600000   2.494471e-04  1.671101e-07
    657    659   2   0.50000     0.0600000    0.0600000   6.128906e-05  1.496315e-08
    657    660   2   0.50000     0.0600000    0.0600000   6.128906e-05  1.496315e-08
    657    661   2   0.50000     0.0600000    0.0600000   6.128906e-05  1.496315e-08
    658    659   2   0.50000     0.0600000    0.0600000   6.128906e-05  1.496315e-08
    658    660   2   0.50000     0.0600000    0.0600000   6.128906e-05  1.496315e-08
    658    661   2   0.50000     0.0600000    0.0600000   6.128906e-05  1.496315e-08

[ angles ]
; ai  aj  ak
      2      1     12   1    110.7000    313.8000
      2      1     13   1    110.7000    313.8000
      2      1     34   1    110.7000    313.8000
     12      1     13   1    107.8000    276.1440
     12      1     34   1    107.8000    276.1440
     13      1     34   1    107.8000    276.1440
      1      2      3   1    112.7000    488.2728
      1      2     14   1    110.7000    313.8000
      1      2     35   1    112.7000    488.2728
      3      2     14   1    110.7000    313.8000
      3      2     35   1    112.7000    488.2728
     14      2     35   1    110.7000    313.8000
      2      3      4   1    112.7000    488.2728
      2      3     15   1    110.7000    313.8000
      2      3     16   1    110.7000    313.8000
      4      3     15   1    110.7000    313.8000
      4      3     16   1    110.7000    313.8000
     15      3     16   1    107.8000    276.1440
      3      4      5   1    112.7000    488.2728
      3      4     17   1    110.7000    313.8000
      3      4     18   1    110.7000    313.8000
      5      4     17   1    110.7000    313.8000
      5      4     18   1    110.7000    313.8000
     17      4     18   1    107.8000    276.1440
      4      5      6   1    112.7000    488.2728
      4      5     19   1    110.7000    313.8000
      4      5     20   1    110.7000    313.8000
      6      5     19   1    110.7000    313.8000
      6      5     20   1    110.7000    313.8000
     19      5     20   1    107.8000    276.1440
      5      6      7   1    112.7000    488.2728
      5      6     21   1    110.7000    313.8000
      5      6     22   1    110.7000    313.8000
      7      6     21   1    110.7000    313.8000
      7      6     22   1    110.7000    313.8000
     21      6     22   1    107.8000    276.1440
      6      7      8   1    112.7000    488.2728
      6      7     23   1    110.7000    313.8000
      6      7     24   1    110.7000    313.8000
      8      7     23   1    110.7000    313.8000
      8      7     24   1    110.7000    313.8000
     23      7     24   1    107.8000    276.1440
      7      8      9   1    112.7000    488.2728
      7      8     25   1    110.7000    313.8000
      7      8     26   1    110.7000    313.8000
      9      8     25   1    110.7000    313.8000
      9      8     26   1    110.7000    313.8000
     25      8     26   1    107.8000    276.1440
      8      9     10   1    112.7000    488.2728
      8      9     27   1    110.7000    313.8000
      8      9     28   1    110.7000    313.8000
     10      9     27   1    110.7000    313.8000
     10      9     28   1    110.7000    313.8000
     27      9     28   1    107.8000    276.1440
      9     10     11   1    112.7000    488.2728
      9     10     29   1    110.7000    313.8000
      9     10     30   1    110.7000    313.8000
     11     10     29   1    110.7000    313.8000
     11     10     30   1    110.7000    313.8000
     29     10     30   1    107.8000    276.1440
     10     11     31   1    110.7000    313.8000
     10     11     32   1    110.7000    313.8000
     10     11     33   1    110.7000    313.8000
     31     11     32   1    107.8000    276.1440
     31     11     33   1    107.8000    276.1440
     32     11     33   1    107.8000    276.1440
      2     35     36   1    112.7000    488.2728
      2     35     46   1    110.7000    313.8000
      2     35     47   1    110.7000    313.8000
     36     35     46   1    110.7000    313.8000
     36     35     47   1    110.7000    313.8000
     46     35     47   1    107.8000    276.1440
     35     36     37   1    112.7000    488.2728
     35     36     48   1    110.7000    313.8000
     35     36     68   1    112.7000    488.2728
     37     36     48   1    110.7000    313.8000
     37     36     68   1    112.7000    488.2728
     48     36     68   1    110.7000    313.8000
     36     37     38   1    112.7000    488.2728
     36     37     49   1    110.7000    313.8000
     36     37     50   1    110.7000    313.8000
     38     37     49   1    110.7000    313.8000
     38     37     50   1    110.7000    313.8000
     49     37     50   1    107.8000    276.1440
     37     38     39   1    112.7000    488.2728
     37     38     51   1    110.7000    313.8000
     37     38     52   1    110.7000    313.8000
     39     38     51   1    110.7000    313.8000
     39     38     52   1    110.7000    313.8000
     51     38     52   1    107.8000    276.1440
     38     39     40   1    112.7000    488.2728
     38     39     53   1    110.7000    313.8000
     38     39     54   1    110.7000    313.8000
     40     39     53   1    110.7000    313.8000
     40     39     54   1    110.7000    313.8000
     53     39     54   1    107.8000    276.1440
     39     40     41   1    112.7000    488.2728
     39     40     55   1    110.7000    313.8000
     39     40     56   1    110.7000    313.8000
     41     40     55   1    110.7000    313.8000
     41     40     56   1    110.7000    313.8000
     55     40     56   1    107.8000    276.1440
     40     41     42   1    112.7000    488.2728
     40     41     57   1    110.7000    313.8000
     40     41     58   1    110.7000    313.8000
     42     41     57   1    110.7000    313.8000
     42     41     58   1    110.7000    313.8000
     57     41     58   1    107.8000    276.1440
     41     42     43   1    112.7000    488.2728
     41     42     59   1    110.7000    313.8000
     41     42     60   1    110.7000    313.8000
     43     42     59   1    110.7000    313.8000
     43     42     60   1    110.7000    313.8000
     59     42     60   1    107.8000    276.1440
     42     43     44   1    112.7000    488.2728
     42     43     61   1    110.7000    313.8000
     42     43     62   1    110.7000    313.8000
     44     43     61   1    110.7000    313.8000
     44     43     62   1    110.7000    313.8000
     61     43     62   1    107.8000    276.1440
     43     44     45   1    112.7000    488.2728
     43     44     63   1    110.7000    313.8000
     43     44     64   1    110.7000    313.8000
     45     44     63   1    110.7000    313.8000
     45     44     64   1    110.7000    313.8000
     63     44     64   1    107.8000    276.1440
     44     45     65   1    110.7000    313.8000
     44     45     66   1    110.7000    313.8000
     44     45     67   1    110.7000    313.8000
     65     45     66   1    107.8000    276.1440
     65     45     67   1    107.8000    276.1440
     66     45     67   1    107.8000    276.1440
     36     68     69   1    112.7000    488.2728
     36     68     79   1    110.7000    313.8000
     36     68     80   1    110.7000    313.8000
     69     68     79   1    110.7000    313.8000
     69     68     80   1    110.7000    313.8000
     79     68     80   1    107.8000    276.1440
     68     69     70   1    112.7000    488.2728
     68     69     81   1    110.7000    313.8000
     68     69    101   1    112.7000    488.2728
     70     69     81   1    110.7000    313.8000
     70     69    101   1    112.7000    488.2728
     81     69    101   1    110.7000    313.8000
     69     70     71   1    112.7000    488.2728
     69     70     82   1    110.7000    313.8000
     69     70     83   1    110.7000    313.8000
     71     70     82   1    110.7000    313.8000
     71     70     83   1    110.7000    313.8000
     82     70     83   1    107.8000    276.1440
     70     71     72   1    112.7000    488.2728
     70     71     84   1    110.7000    313.8000
     70     71     85   1    110.7000    313.8000
     72     71     84   1    110.7000    313.8000
     72     71     85   1    110.7000    313.8000
     84     71     85   1    107.8000    276.1440
     71     72     73   1    112.7000    488.2728
     71     72     86   1    110.7000    313.8000
     71     72     87   1    110.7000    313.8000
     73     72     86   1    110.7000    313.8000
     73     72     87   1    110.7000    313.8000
     86     72     87   1    107.8000    276.1440
     72     73     74   1    112.7000    488.2728
     72     73     88   1    110.7000    313.8000
     72     73     89   1    110.7000    313.8000
     74     73     88   1    110.7000    313.8000
     74     73     89   1    110.7000    313.8000
     88     73     89   1    107.8000    276.1440
     73     74     75   1    112.7000    488.2728
     73     74     90   1    110.7000    313.8000
     73     74     91   1    110.7000    313.8000
     75     74     90   1    110.7000    313.8000
     75     74     91   1    110.7000    313.8000
     90     74     91   1    107.8000    276.1440
     74     75     76   1    112.7000    488.2728
     74     75     92   1    110.7000    313.8000
     74     75     93   1    110.7000    313.8000
     76     75     92   1    110.7000    313.8000
     76     75     93   1    110.7000    313.8000
     92     75     93   1    107.8000    276.1440
     75     76     77   1    112.7000    488.2728
     75     76     94   1    110.7000    313.8000
     75     76     95   1    110.7000    313.8000
     77     76     94   1    110.7000    313.8000
     77     76     95   1    110.7000    313.8000
     94     76     95   1    107.8000    276.1440
     76     77     78   1    112.7000    488.2728
     76     77     96   1    110.7000    313.8000
     76     77     97   1    110.7000    313.8000
     78     77     96   1    110.7000    313.8000
     78     77     97   1    110.7000    313.8000
     96     77     97   1    107.8000    276.1440
     77     78     98   1    110.7000    313.8000
     77     78     99   1    110.7000    313.8000
     77     78    100   1    110.7000    313.8000
     98     78     99   1    107.8000    276.1440
     98     78    100   1    107.8000    276.1440
     99     78    100   1    107.8000    276.1440
     69    101    102   1    112.7000    488.2728
     69    101    112   1    110.7000    313.8000
     69    101    113   1    110.7000    313.8000
    102    101    112   1    110.7000    313.8000
    102    101    113   1    110.7000    313.8000
    112    101    113   1    107.8000    276.1440
    101    102    103   1    112.7000    488.2728
    101    102    114   1    110.7000    313.8000
    101    102    134   1    112.7000    488.2728
    103    102    114   1    110.7000    313.8000
    103    102    134   1    112.7000    488.2728
    114    102    134   1    110.7000    313.8000
    102    103    104   1    112.7000    488.2728
    102    103    115   1    110.7000    313.8000
    102    103    116   1    110.7000    313.8000
    104    103    115   1    110.7000    313.8000
    104    103    116   1    110.7000    313.8000
    115    103    116   1    107.8000    276.1440
    103    104    105   1    112.7000    488.2728
    103    104    117   1    110.7000    313.8000
    103    104    118   1    110.7000    313.8000
    105    104    117   1    110.7000    313.8000
    105    104    118   1    110.7000    313.8000
    117    104    118   1    107.8000    276.1440
    104    105    106   1    112.7000    488.2728
    104    105    119   1    110.7000    313.8000
    104    105    120   1    110.7000    313.8000
    106    105    119   1    110.7000    313.8000
    106    105    120   1    110.7000    313.8000
    119    105    120   1    107.8000    276.1440
    105    106    107   1    112.7000    488.2728
    105    106    121   1    110.7000    313.8000
    105    106    122   1    110.7000    313.8000
    107    106    121   1    110.7000    313.8000
    107    106    122   1    110.7000    313.8000
    121    106    122   1    107.8000    276.1440
    106    107    108   1    112.7000    488.2728
    106    107    123   1    110.7000    313.8000
    106    107    124   1    110.7000    313.8000
    108    107    123   1    110.7000    313.8000
    108    107    124   1    110.7000    313.8000
    123    107    124   1    107.8000    276.1440
    107    108    109   1    112.7000    488.2728
    107    108    125   1    110.7000    313.8000
    107    108    126   1    110.7000    313.8000
    109    108    125   1    110.7000    313.8000
    109    108    126   1    110.7000    313.8000
    125    108    126   1    107.8000    276.1440
    108    109    110   1    112.7000    488.2728
    108    109    127   1    110.7000    313.8000
    108    109    128   1    110.7000    313.8000
    110    109    127   1    110.7000    313.8000
    110    109    128   1    110.7000    313.8000
    127    109    128   1    107.8000    276.1440
    109    110    111   1    112.7000    488.2728
    109    110    129   1    110.7000    313.8000
    109    110    130   1    110.7000    313.8000
    111    110    129   1    110.7000    313.8000
    111    110    130   1    110.7000    313.8000
    129    110    130   1    107.8000    276.1440
    110    111    131   1    110.7000    313.8000
    110    111    132   1    110.7000    313.8000
    110    111    133   1    110.7000    313.8000
    131    111    132   1    107.8000    276.1440
    131    111    133   1    107.8000    276.1440
    132    111    133   1    107.8000    276.1440
    102    134    135   1    112.7000    488.2728
    102    134    145   1    110.7000    313.8000
    102    134    146   1    110.7000    313.8000
    135    134    145   1    110.7000    313.8000
    135    134    146   1    110.7000    313.8000
    145    134    146   1    107.8000    276.1440
    134    135    136   1    112.7000    488.2728
    134    135    147   1    110.7000    313.8000
    134    135    167   1    112.7000    488.2728
    136    135    147   1    110.7000    313.8000
    136    135    167   1    112.7000    488.2728
    147    135    167   1    110.7000    313.8000
    135    136    137   1    112.7000    488.2728
    135    136    148   1    110.7000    313.8000
    135    136    149   1    110.7000    313.8000
    137    136    148   1    110.7000    313.8000
    137    136    149   1    110.7000    313.8000
    148    136    149   1    107.8000    276.1440
    136    137    138   1    112.7000    488.2728
    136    137    150   1    110.7000    313.8000
    136    137    151   1    110.7000    313.8000
    138    137    150   1    110.7000    313.8000
    138    137    151   1    110.7000    313.8000
    150    137    151   1    107.8000    276.1440
    137    138    139   1    112.7000    488.2728
    137    138    152   1    110.7000    313.8000
    137    138    153   1    110.7000    313.8000
    139    138    152   1    110.7000    313.8000
    139    138    153   1    110.7000    313.8000
    152    138    153   1    107.8000    276.1440
    138    139    140   1    112.7000    488.2728
    138    139    154   1    110.7000    313.8000
    138    139    155   1    110.7000    313.8000
    140    139    154   1    110.7000    313.8000
    140    139    155   1    110.7000    313.8000
    154    139    155   1    107.8000    276.1440
    139    140    141   1    112.7000    488.2728
    139    140    156   1    110.7000    313.8000
    139    140    157   1    110.7000    313.8000
    141    140    156   1    110.7000    313.8000
    141    140    157   1    110.7000    313.8000
    156    140    157   1    107.8000    276.1440
    140    141    142   1    112.7000    488.2728
    140    141    158   1    110.7000    313.8000
    140    141    159   1    110.7000    313.8000
    142    141    158   1    110.7000    313.8000
    142    141    159   1    110.7000    313.8000
    158    141    159   1    107.8000    276.1440
    141    142    143   1    112.7000    488.2728
    141    142    160   1    110.7000    313.8000
    141    142    161   1    110.7000    313.8000
    143    142    160   1    110.7000    313.8000
    143    142    161   1    110.7000    313.8000
    160    142    161   1    107.8000    276.1440
    142    143    144   1    112.7000    488.2728
    142    143    162   1    110.7000    313.8000
    142    143    163   1    110.7000    313.8000
    144    143    162   1    110.7000    313.8000
    144    143    163   1    110.7000    313.8000
    162    143    163   1    107.8000    276.1440
    143    144    164   1    110.7000    313.8000
    143    144    165   1    110.7000    313.8000
    143    144    166   1    110.7000    313.8000
    164    144    165   1    107.8000    276.1440
    164    144    166   1    107.8000    276.1440
    165    144    166   1    107.8000    276.1440
    135    167    168   1    112.7000    488.2728
    135    167    178   1    110.7000    313.8000
    135    167    179   1    110.7000    313.8000
    168    167    178   1    110.7000    313.8000
    168    167    179   1    110.7000    313.8000
    178    167    179   1    107.8000    276.1440
    167    168    169   1    112.7000    488.2728
    167    168    180   1    110.7000    313.8000
    167    168    200   1    112.7000    488.2728
    169    168    180   1    110.7000    313.8000
    169    168    200   1    112.7000    488.2728
    180    168    200   1    110.7000    313.8000
    168    169    170   1    112.7000    488.2728
    168    169    181   1    110.7000    313.8000
    168    169    182   1    110.7000    313.8000
    170    169    181   1    110.7000    313.8000
    170    169    182   1    110.7000    313.8000
    181    169    182   1    107.8000    276.1440
    169    170    171   1    112.7000    488.2728
    169    170    183   1    110.7000    313.8000
    169    170    184   1    110.7000    313.8000
    171    170    183   1    110.7000    313.8000
    171    170    184   1    110.7000    313.8000
    183    170    184   1    107.8000    276.1440
    170    171    172   1    112.7000    488.2728
    170    171    185   1    110.7000    313.8000
    170    171    186   1    110.7000    313.8000
    172    171    185   1    110.7000    313.8000
    172    171    186   1    110.7000    313.8000
    185    171    186   1    107.8000    276.1440
    171    172    173   1    112.7000    488.2728
    171    172    187   1    110.7000    313.8000
    171    172    188   1    110.7000    313.8000
    173    172    187   1    110.7000    313.8000
    173    172    188   1    110.7000    313.8000
    187    172    188   1    107.8000    276.1440
    172    173    174   1    112.7000    488.2728
    172    173    189   1    110.7000    313.8000
    172    173    190   1    110.7000    313.8000
    174    173    189   1    110.7000    313.8000
    174    173    190   1    110.7000    313.8000
    189    173    190   1    107.8000    276.1440
    173    174    175   1    112.7000    488.2728
    173    174    191   1    110.7000    313.8000
    173    174    192   1    110.7000    313.8000
    175    174    191   1    110.7000    313.8000
    175    174    192   1    110.7000    313.8000
    191    174    192   1    107.8000    276.1440
    174    175    176   1    112.7000    488.2728
    174    175    193   1    110.7000    313.8000
    174    175    194   1    110.7000    313.8000
    176    175    193   1    110.7000    313.8000
    176    175    194   1    110.7000    313.8000
    193    175    194   1    107.8000    276.1440
    175    176    177   1    112.7000    488.2728
    175    176    195   1    110.7000    313.8000
    175    176    196   1    110.7000    313.8000
    177    176    195   1    110.7000    313.8000
    177    176    196   1    110.7000    313.8000
    195    176    196   1    107.8000    276.1440
    176    177    197   1    110.7000    313.8000
    176    177    198   1    110.7000    313.8000
    176    177    199   1    110.7000    313.8000
    197    177    198   1    107.8000    276.1440
    197    177    199   1    107.8000    276.1440
    198    177    199   1    107.8000    276.1440
    168    200    201   1    112.7000    488.2728
    168    200    211   1    110.7000    313.8000
    168    200    212   1    110.7000    313.8000
    201    200    211   1    110.7000    313.8000
    201    200    212   1    110.7000    313.8000
    211    200    212   1    107.8000    276.1440
    200    201    202   1    112.7000    488.2728
    200    201    213   1    110.7000    313.8000
    200    201    233   1    112.7000    488.2728
    202    201    213   1    110.7000    313.8000
    202    201    233   1    112.7000    488.2728
    213    201    233   1    110.7000    313.8000
    201    202    203   1    112.7000    488.2728
    201    202    214   1    110.7000    313.8000
    201    202    215   1    110.7000    313.8000
    203    202    214   1    110.7000    313.8000
    203    202    215   1    110.7000    313.8000
    214    202    215   1    107.8000    276.1440
    202    203    204   1    112.7000    488.2728
    202    203    216   1    110.7000    313.8000
    202    203    217   1    110.7000    313.8000
    204    203    216   1    110.7000    313.8000
    204    203    217   1    110.7000    313.8000
    216    203    217   1    107.8000    276.1440
    203    204    205   1    112.7000    488.2728
    203    204    218   1    110.7000    313.8000
    203    204    219   1    110.7000    313.8000
    205    204    218   1    110.7000    313.8000
    205    204    219   1    110.7000    313.8000
    218    204    219   1    107.8000    276.1440
    204    205    206   1    112.7000    488.2728
    204    205    220   1    110.7000    313.8000
    204    205    221   1    110.7000    313.8000
    206    205    220   1    110.7000    313.8000
    206    205    221   1    110.7000    313.8000
    220    205    221   1    107.8000    276.1440
    205    206    207   1    112.7000    488.2728
    205    206    222   1    110.7000    313.8000
    205    206    223   1    110.7000    313.8000
    207    206    222   1    110.7000    313.8000
    207    206    223   1    110.7000    313.8000
    222    206    223   1    107.8000    276.1440
    206    207    208   1    112.7000    488.2728
    206    207    224   1    110.7000    313.8000
    206    207    225   1    110.7000    313.8000
    208    207    224   1    110.7000    313.8000
    208    207    225   1    110.7000    313.8000
    224    207    225   1    107.8000    276.1440
    207    208    209   1    112.7000    488.2728
    207    208    226   1    110.7000    313.8000
    207    208    227   1    110.7000    313.8000
    209    208    226   1    110.7000    313.8000
    209    208    227   1    110.7000    313.8000
    226    208    227   1    107.8000    276.1440
    208    209    210   1    112.7000    488.2728
    208    209    228   1    110.7000    313.8000
    208    209    229   1    110.7000    313.8000
    210    209    228   1    110.7000    313.8000
    210    209    229   1    110.7000    313.8000
    228    209    229   1    107.8000    276.1440
    209    210    230   1    110.7000    313.8000
    209    210    231   1    110.7000    313.8000
    209    210    232   1    110.7000    313.8000
    230    210    231   1    107.8000    276.1440
    230    210    232   1    107.8000    276.1440
    231    210    232   1    107.8000    276.1440
    201    233    234   1    112.7000    488.2728
    201    233    244   1    110.7000    313.8000
    201    233    245   1    110.7000    313.8000
    234    233    244   1    110.7000    313.8000
    234    233    245   1    110.7000    313.8000
    244    233    245   1    107.8000    276.1440
    233    234    235   1    112.7000    488.2728
    233    234    246   1    110.7000    313.8000
    233    234    266   1    112.7000    488.2728
    235    234    246   1    110.7000    313.8000
    235    234    266   1    112.7000    488.2728
    246    234    266   1    110.7000    313.8000
    234    235    236   1    112.7000    488.2728
    234    235    247   1    110.7000    313.8000
    234    235    248   1    110.7000    313.8000
    236    235    247   1    110.7000    313.8000
    236    235    248   1    110.7000    313.8000
    247    235    248   1    107.8000    276.1440
    235    236    237   1    112.7000    488.2728
    235    236    249   1    110.7000    313.8000
    235    236    250   1    110.7000    313.8000
    237    236    249   1    110.7000    313.8000
    237    236    250   1    110.7000    313.8000
    249    236    250   1    107.8000    276.1440
    236    237    238   1    112.7000    488.2728
    236    237    251   1    110.7000    313.8000
    236    237    252   1    110.7000    313.8000
    238    237    251   1    110.7000    313.8000
    238    237    252   1    110.7000    313.8000
    251    237    252   1    107.8000    276.1440
    237    238    239   1    112.7000    488.2728
    237    238    253   1    110.7000    313.8000
    237    238    254   1    110.7000    313.8000
    239    238    253   1    110.7000    313.8000
    239    238    254   1    110.7000    313.8000
    253    238    254   1    107.8000    276.1440
    238    239    240   1    112.7000    488.2728
    238    239    255   1    110.7000    313.8000
    238    239    256   1    110.7000    313.8000
    240    239    255   1    110.7000    313.8000
    240    239    256   1    110.7000    313.8000
    255    239    256   1    107.8000    276.1440
    239    240    241   1    112.7000    488.2728
    239    240    257   1    110.7000    313.8000
    239    240    258   1    110.7000    313.8000
    241    240    257   1    110.7000    313.8000
    241    240    258   1    110.7000    313.8000
    257    240    258   1    107.8000    276.1440
    240    241    242   1    112.7000    488.2728
    240    241    259   1    110.7000    313.8000
    240    241    260   1    110.7000    313.8000
    242    241    259   1    110.7000    313.8000
    242    241    260   1    110.7000    313.8000
    259    241    260   1    107.8000    276.1440
    241    242    243   1    112.7000    488.2728
    241    242    261   1    110.7000    313.8000
    241    242    262   1    110.7000    313.8000
    243    242    261   1    110.7000    313.8000
    243    242    262   1    110.7000    313.8000
    261    242    262   1    107.8000    276.1440
    242    243    263   1    110.7000    313.8000
    242    243    264   1    110.7000    313.8000
    242    243    265   1    110.7000    313.8000
    263    243    264   1    107.8000    276.1440
    263    243    265   1    107.8000    276.1440
    264    243    265   1    107.8000    276.1440
    234    266    267   1    112.7000    488.2728
    234    266    277   1    110.7000    313.8000
    234    266    278   1    110.7000    313.8000
    267    266    277   1    110.7000    313.8000
    267    266    278   1    110.7000    313.8000
    277    266    278   1    107.8000    276.1440
    266    267    268   1    112.7000    488.2728
    266    267    279   1    110.7000    313.8000
    266    267    299   1    112.7000    488.2728
    268    267    279   1    110.7000    313.8000
    268    267    299   1    112.7000    488.2728
    279    267    299   1    110.7000    313.8000
    267    268    269   1    112.7000    488.2728
    267    268    280   1    110.7000    313.8000
    267    268    281   1    110.7000    313.8000
    269    268    280   1    110.7000    313.8000
    269    268    281   1    110.7000    313.8000
    280    268    281   1    107.8000    276.1440
    268    269    270   1    112.7000    488.2728
    268    269    282   1    110.7000    313.8000
    268    269    283   1    110.7000    313.8000
    270    269    282   1    110.7000    313.8000
    270    269    283   1    110.7000    313.8000
    282    269    283   1    107.8000    276.1440
    269    270    271   1    112.7000    488.2728
    269    270    284   1    110.7000    313.8000
    269    270    285   1    110.7000    313.8000
    271    270    284   1    110.7000    313.8000
    271    270    285   1    110.7000    313.8000
    284    270    285   1    107.8000    276.1440
    270    271    272   1    112.7000    488.2728
    270    271    286   1    110.7000    313.8000
    270    271    287   1    110.7000    313.8000
    272    271    286   1    110.7000    313.8000
    272    271    287   1    110.7000    313.8000
    286    271    287   1    107.8000    276.1440
    271    272    273   1    112.7000    488.2728
    271    272    288   1    110.7000    313.8000
    271    272    289   1    110.7000    313.8000
    273    272    288   1    110.7000    313.8000
    273    272    289   1    110.7000    313.8000
    288    272    289   1    107.8000    276.1440
    272    273    274   1    112.7000    488.2728
    272    273    290   1    110.7000    313.8000
    272    273    291   1    110.7000    313.8000
    274    273    290   1    110.7000    313.8000
    274    273    291   1    110.7000    313.8000
    290    273    291   1    107.8000    276.1440
    273    274    275   1    112.7000    488.2728
    273    274    292   1    110.7000    313.8000
    273    274    293   1    110.7000    313.8000
    275    274    292   1    110.7000    313.8000
    275    274    293   1    110.7000    313.8000
    292    274    293   1    107.8000    276.1440
    274    275    276   1    112.7000    488.2728
    274    275    294   1    110.7000    313.8000
    274    275    295   1    110.7000    313.8000
    276    275    294   1    110.7000    313.8000
    276    275    295   1    110.7000    313.8000
    294    275    295   1    107.8000    276.1440
    275    276    296   1    110.7000    313.8000
    275    276    297   1    110.7000    313.8000
    275    276    298   1    110.7000    313.8000
    296    276    297   1    107.8000    276.1440
    296    276    298   1    107.8000    276.1440
    297    276    298   1    107.8000    276.1440
    267    299    300   1    112.7000    488.2728
    267    299    310   1    110.7000    313.8000
    267    299    311   1    110.7000    313.8000
    300    299    310   1    110.7000    313.8000
    300    299    311   1    110.7000    313.8000
    310    299    311   1    107.8000    276.1440
    299    300    301   1    112.7000    488.2728
    299    300    312   1    110.7000    313.8000
    299    300    332   1    112.7000    488.2728
    301    300    312   1    110.7000    313.8000
    301    300    332   1    112.7000    488.2728
    312    300    332   1    110.7000    313.8000
    300    301    302   1    112.7000    488.2728
    300    301    313   1    110.7000    313.8000
    300    301    314   1    110.7000    313.8000
    302    301    313   1    110.7000    313.8000
    302    301    314   1    110.7000    313.8000
    313    301    314   1    107.8000    276.1440
    301    302    303   1    112.7000    488.2728
    301    302    315   1    110.7000    313.8000
    301    302    316   1    110.7000    313.8000
    303    302    315   1    110.7000    313.8000
    303    302    316   1    110.7000    313.8000
    315    302    316   1    107.8000    276.1440
    302    303    304   1    112.7000    488.2728
    302    303    317   1    110.7000    313.8000
    302    303    318   1    110.7000    313.8000
    304    303    317   1    110.7000    313.8000
    304    303    318   1    110.7000    313.8000
    317    303    318   1    107.8000    276.1440
    303    304    305   1    112.7000    488.2728
    303    304    319   1    110.7000    313.8000
    303    304    320   1    110.7000    313.8000
    305    304    319   1    110.7000    313.8000
    305    304    320   1    110.7000    313.8000
    319    304    320   1    107.8000    276.1440
    304    305    306   1    112.7000    488.2728
    304    305    321   1    110.7000    313.8000
    304    305    322   1    110.7000    313.8000
    306    305    321   1    110.7000    313.8000
    306    305    322   1    110.7000    313.8000
    321    305    322   1    107.8000    276.1440
    305    306    307   1    112.7000    488.2728
    305    306    323   1    110.7000    313.8000
    305    306    324   1    110.7000    313.8000
    307    306    323   1    110.7000    313.8000
    307    306    324   1    110.7000    313.8000
    323    306    324   1    107.8000    276.1440
    306    307    308   1    112.7000    488.2728
    306    307    325   1    110.7000    313.8000
    306    307    326   1    110.7000    313.8000
    308    307    325   1    110.7000    313.8000
    308    307    326   1    110.7000    313.8000
    325    307    326   1    107.8000    276.1440
    307    308    309   1    112.7000    488.2728
    307    308    327   1    110.7000    313.8000
    307    308    328   1    110.7000    313.8000
    309    308    327   1    110.7000    313.8000
    309    308    328   1    110.7000    313.8000
    327    308    328   1    107.8000    276.1440
    308    309    329   1    110.7000    313.8000
    308    309    330   1    110.7000    313.8000
    308    309    331   1    110.7000    313.8000
    329    309    330   1    107.8000    276.1440
    329    309    331   1    107.8000    276.1440
    330    309    331   1    107.8000    276.1440
    300    332    333   1    112.7000    488.2728
    300    332    343   1    110.7000    313.8000
    300    332    344   1    110.7000    313.8000
    333    332    343   1    110.7000    313.8000
    333    332    344   1    110.7000    313.8000
    343    332    344   1    107.8000    276.1440
    332    333    334   1    112.7000    488.2728
    332    333    345   1    110.7000    313.8000
    332    333    365   1    112.7000    488.2728
    334    333    345   1    110.7000    313.8000
    334    333    365   1    112.7000    488.2728
    345    333    365   1    110.7000    313.8000
    333    334    335   1    112.7000    488.2728
    333    334    346   1    110.7000    313.8000
    333    334    347   1    110.7000    313.8000
    335    334    346   1    110.7000    313.8000
    335    334    347   1    110.7000    313.8000
    346    334    347   1    107.8000    276.1440
    334    335    336   1    112.7000    488.2728
    334    335    348   1    110.7000    313.8000
    334    335    349   1    110.7000    313.8000
    336    335    348   1    110.7000    313.8000
    336    335    349   1    110.7000    313.8000
    348    335    349   1    107.8000    276.1440
    335    336    337   1    112.7000    488.2728
    335    336    350   1    110.7000    313.8000
    335    336    351   1    110.7000    313.8000
    337    336    350   1    110.7000    313.8000
    337    336    351   1    110.7000    313.8000
    350    336    351   1    107.8000    276.1440
    336    337    338   1    112.7000    488.2728
    336    337    352   1    110.7000    313.8000
    336    337    353   1    110.7000    313.8000
    338    337    352   1    110.7000    313.8000
    338    337    353   1    110.7000    313.8000
    352    337    353   1    107.8000    276.1440
    337    338    339   1    112.7000    488.2728
    337    338    354   1    110.7000    313.8000
    337    338    355   1    110.7000    313.8000
    339    338    354   1    110.7000    313.8000
    339    338    355   1    110.7000    313.8000
    354    338    355   1    107.8000    276.1440
    338    339    340   1    112.7000    488.2728
    338    339    356   1    110.7000    313.8000
    338    339    357   1    110.7000    313.8000
    340    339    356   1    110.7000    313.8000
    340    339    357   1    110.7000    313.8000
    356    339    357   1    107.8000    276.1440
    339    340    341   1    112.7000    488.2728
    339    340    358   1    110.7000    313.8000
    339    340    359   1    110.7000    313.8000
    341    340    358   1    110.7000    313.8000
    341    340    359   1    110.7000    313.8000
    358    340    359   1    107.8000    276.1440
    340    341    342   1    112.7000    488.2728
    340    341    360   1    110.7000    313.8000
    340    341    361   1    110.7000    313.8000
    342    341    360   1    110.7000    313.8000
    342    341    361   1    110.7000    313.8000
    360    341    361   1    107.8000    276.1440
    341    342    362   1    110.7000    313.8000
    341    342    363   1    110.7000    313.8000
    341    342    364   1    110.7000    313.8000
    362    342    363   1    107.8000    276.1440
    362    342    364   1    107.8000    276.1440
    363    342    364   1    107.8000    276.1440
    333    365    366   1    112.7000    488.2728
    333    365    376   1    110.7000    313.8000
    333    365    377   1    110.7000    313.8000
    366    365    376   1    110.7000    313.8000
    366    365    377   1    110.7000    313.8000
    376    365    377   1    107.8000    276.1440
    365    366    367   1    112.7000    488.2728
    365    366    378   1    110.7000    313.8000
    365    366    398   1    112.7000    488.2728
    367    366    378   1    110.7000    313.8000
    367    366    398   1    112.7000    488.2728
    378    366    398   1    110.7000    313.8000
    366    367    368   1    112.7000    488.2728
    366    367    379   1    110.7000    313.8000
    366    367    380   1    110.7000    313.8000
    368    367    379   1    110.7000    313.8000
    368    367    380   1    110.7000    313.8000
    379    367    380   1    107.8000    276.1440
    367    368    369   1    112.7000    488.2728
    367    368    381   1    110.7000    313.8000
    367    368    382   1    110.7000    313.8000
    369    368    381   1    110.7000    313.8000
    369    368    382   1    110.7000    313.8000
    381    368    382   1    107.8000    276.1440
    368    369    370   1    112.7000    488.2728
    368    369    383   1    110.7000    313.8000
    368    369    384   1    110.7000    313.8000
    370    369    383   1    110.7000    313.8000
    370    369    384   1    110.7000    313.8000
    383    369    384   1    107.8000    276.1440
    369    370    371   1    112.7000    488.2728
    369    370    385   1    110.7000    313.8000
    369    370    386   1    110.7000    313.8000
    371    370    385   1    110.7000    313.8000
    371    370    386   1    110.7000    313.8000
    385    370    386   1    107.8000    276.1440
    370    371    372   1    112.7000    488.2728
    370    371    387   1    110.7000    313.8000
    370    371    388   1    110.7000    313.8000
    372    371    387   1    110.7000    313.8000
    372    371    388   1    110.7000    313.8000
    387    371    388   1    107.8000    276.1440
    371    372    373   1    112.7000    488.2728
    371    372    389   1    110.7000    313.8000
    371    372    390   1    110.7000    313.8000
    373    372    389   1    110.7000    313.8000
    373    372    390   1    110.7000    313.8000
    389    372    390   1    107.8000    276.1440
    372    373    374   1    112.7000    488.2728
    372    373    391   1    110.7000    313.8000
    372    373    392   1    110.7000    313.8000
    374    373    391   1    110.7000    313.8000
    374    373    392   1    110.7000    313.8000
    391    373    392   1    107.8000    276.1440
    373    374    375   1    112.7000    488.2728
    373    374    393   1    110.7000    313.8000
    373    374    394   1    110.7000    313.8000
    375    374    393   1    110.7000    313.8000
    375    374    394   1    110.7000    313.8000
    393    374    394   1    107.8000    276.1440
    374    375    395   1    110.7000    313.8000
    374    375    396   1    110.7000    313.8000
    374    375    397   1    110.7000    313.8000
    395    375    396   1    107.8000    276.1440
    395    375    397   1    107.8000    276.1440
    396    375    397   1    107.8000    276.1440
    366    398    399   1    112.7000    488.2728
    366    398    409   1    110.7000    313.8000
    366    398    410   1    110.7000    313.8000
    399    398    409   1    110.7000    313.8000
    399    398    410   1    110.7000    313.8000
    409    398    410   1    107.8000    276.1440
    398    399    400   1    112.7000    488.2728
    398    399    411   1    110.7000    313.8000
    398    399    431   1    112.7000    488.2728
    400    399    411   1    110.7000    313.8000
    400    399    431   1    112.7000    488.2728
    411    399    431   1    110.7000    313.8000
    399    400    401   1    112.7000    488.2728
    399    400    412   1    110.7000    313.8000
    399    400    413   1    110.7000    313.8000
    401    400    412   1    110.7000    313.8000
    401    400    413   1    110.7000    313.8000
    412    400    413   1    107.8000    276.1440
    400    401    402   1    112.7000    488.2728
    400    401    414   1    110.7000    313.8000
    400    401    415   1    110.7000    313.8000
    402    401    414   1    110.7000    313.8000
    402    401    415   1    110.7000    313.8000
    414    401    415   1    107.8000    276.1440
    401    402    403   1    112.7000    488.2728
    401    402    416   1    110.7000    313.8000
    401    402    417   1    110.7000    313.8000
    403    402    416   1    110.7000    313.8000
    403    402    417   1    110.7000    313.8000
    416    402    417   1    107.8000    276.1440
    402    403    404   1    112.7000    488.2728
    402    403    418   1    110.7000    313.8000
    402    403    419   1    110.7000    313.8000
    404    403    418   1    110.7000    313.8000
    404    403    419   1    110.7000    313.8000
    418    403    419   1    107.8000    276.1440
    403    404    405   1    112.7000    488.2728
    403    404    420   1    110.7000    313.8000
    403    404    421   1    110.7000    313.8000
    405    404    420   1    110.7000    313.8000
    405    404    421   1    110.7000    313.8000
    420    404    421   1    107.8000    276.1440
    404    405    406   1    112.7000    488.2728
    404    405    422   1    110.7000    313.8000
    404    405    423   1    110.7000    313.8000
    406    405    422   1    110.7000    313.8000
    406    405    423   1    110.7000    313.8000
    422    405    423   1    107.8000    276.1440
    405    406    407   1    112.7000    488.2728
    405    406    424   1    110.7000    313.8000
    405    406    425   1    110.7000    313.8000
    407    406    424   1    110.7000    313.8000
    407    406    425   1    110.7000    313.8000
    424    406    425   1    107.8000    276.1440
    406    407    408   1    112.7000    488.2728
    406    407    426   1    110.7000    313.8000
    406    407    427   1    110.7000    313.8000
    408    407    426   1    110.7000    313.8000
    408    407    427   1    110.7000    313.8000
    426    407    427   1    107.8000    276.1440
    407    408    428   1    110.7000    313.8000
    407    408    429   1    110.7000    313.8000
    407    408    430   1    110.7000    313.8000
    428    408    429   1    107.8000    276.1440
    428    408    430   1    107.8000    276.1440
    429    408    430   1    107.8000    276.1440
    399    431    432   1    112.7000    488.2728
    399    431    442   1    110.7000    313.8000
    399    431    443   1    110.7000    313.8000
    432    431    442   1    110.7000    313.8000
    432    431    443   1    110.7000    313.8000
    442    431    443   1    107.8000    276.1440
    431    432    433   1    112.7000    488.2728
    431    432    444   1    110.7000    313.8000
    431    432    464   1    112.7000    488.2728
    433    432    444   1    110.7000    313.8000
    433    432    464   1    112.7000    488.2728
    444    432    464   1    110.7000    313.8000
    432    433    434   1    112.7000    488.2728
    432    433    445   1    110.7000    313.8000
    432    433    446   1    110.7000    313.8000
    434    433    445   1    110.7000    313.8000
    434    433    446   1    110.7000    313.8000
    445    433    446   1    107.8000    276.1440
    433    434    435   1    112.7000    488.2728
    433    434    447   1    110.7000    313.8000
    433    434    448   1    110.7000    313.8000
    435    434    447   1    110.7000    313.8000
    435    434    448   1    110.7000    313.8000
    447    434    448   1    107.8000    276.1440
    434    435    436   1    112.7000    488.2728
    434    435    449   1    110.7000    313.8000
    434    435    450   1    110.7000    313.8000
    436    435    449   1    110.7000    313.8000
    436    435    450   1    110.7000    313.8000
    449    435    450   1    107.8000    276.1440
    435    436    437   1    112.7000    488.2728
    435    436    451   1    110.7000    313.8000
    435    436    452   1    110.7000    313.8000
    437    436    451   1    110.7000    313.8000
    437    436    452   1    110.7000    313.8000
    451    436    452   1    107.8000    276.1440
    436    437    438   1    112.7000    488.2728
    436    437    453   1    110.7000    313.8000
    436    437    454   1    110.7000    313.8000
    438    437    453   1    110.7000    313.8000
    438    437    454   1    110.7000    313.8000
    453    437    454   1    107.8000    276.1440
    437    438    439   1    112.7000    488.2728
    437    438    455   1    110.7000    313.8000
    437    438    456   1    110.7000    313.8000
    439    438    455   1    110.7000    313.8000
    439    438    456   1    110.7000    313.8000
    455    438    456   1    107.8000    276.1440
    438    439    440   1    112.7000    488.2728
    438    439    457   1    110.7000    313.8000
    438    439    458   1    110.7000    313.8000
    440    439    457   1    110.7000    313.8000
    440    439    458   1    110.7000    313.8000
    457    439    458   1    107.8000    276.1440
    439    440    441   1    112.7000    488.2728
    439    440    459   1    110.7000    313.8000
    439    440    460   1    110.7000    313.8000
    441    440    459   1    110.7000    313.8000
    441    440    460   1    110.7000    313.8000
    459    440    460   1    107.8000    276.1440
    440    441    461   1    110.7000    313.8000
    440    441    462   1    110.7000    313.8000
    440    441    463   1    110.7000    313.8000
    461    441    462   1    107.8000    276.1440
    461    441    463   1    107.8000    276.1440
    462    441    463   1    107.8000    276.1440
    432    464    465   1    112.7000    488.2728
    432    464    475   1    110.7000    313.8000
    432    464    476   1    110.7000    313.8000
    465    464    475   1    110.7000    313.8000
    465    464    476   1    110.7000    313.8000
    475    464    476   1    107.8000    276.1440
    464    465    466   1    112.7000    488.2728
    464    465    477   1    110.7000    313.8000
    464    465    497   1    112.7000    488.2728
    466    465    477   1    110.7000    313.8000
    466    465    497   1    112.7000    488.2728
    477    465    497   1    110.7000    313.8000
    465    466    467   1    112.7000    488.2728
    465    466    478   1    110.7000    313.8000
    465    466    479   1    110.7000    313.8000
    467    466    478   1    110.7000    313.8000
    467    466    479   1    110.7000    313.8000
    478    466    479   1    107.8000    276.1440
    466    467    468   1    112.7000    488.2728
    466    467    480   1    110.7000    313.8000
    466    467    481   1    110.7000    313.8000
    468    467    480   1    110.7000    313.8000
    468    467    481   1    110.7000    313.8000
    480    467    481   1    107.8000    276.1440
    467    468    469   1    112.7000    488.2728
    467    468    482   1    110.7000    313.8000
    467    468    483   1    110.7000    313.8000
    469    468    482   1    110.7000    313.8000
    469    468    483   1    110.7000    313.8000
    482    468    483   1    107.8000    276.1440
    468    469    470   1    112.7000    488.2728
    468    469    484   1    110.7000    313.8000
    468    469    485   1    110.7000    313.8000
    470    469    484   1    110.7000    313.8000
    470    469    485   1    110.7000    313.8000
    484    469    485   1    107.8000    276.1440
    469    470    471   1    112.7000    488.2728
    469    470    486   1    110.7000    313.8000
    469    470    487   1    110.7000    313.8000
    471    470    486   1    110.7000    313.8000
    471    470    487   1    110.7000    313.8000
    486    470    487   1    107.8000    276.1440
    470    471    472   1    112.7000    488.2728
    470    471    488   1    110.7000    313.8000
    470    471    489   1    110.7000    313.8000
    472    471    488   1    110.7000    313.8000
    472    471    489   1    110.7000    313.8000
    488    471    489   1    107.8000    276.1440
    471    472    473   1    112.7000    488.2728
    471    472    490   1    110.7000    313.8000
    471    472    491   1    110.7000    313.8000
    473    472    490   1    110.7000    313.8000
    473    472    491   1    110.7000    313.8000
    490    472    491   1    107.8000    276.1440
    472    473    474   1    112.7000    488.2728
    472    473    492   1    110.7000    313.8000
    472    473    493   1    110.7000    313.8000
    474    473    492   1    110.7000    313.8000
    474    473    493   1    110.7000    313.8000
    492    473    493   1    107.8000    276.1440
    473    474    494   1    110.7000    313.8000
    473    474    495   1    110.7000    313.8000
    473    474    496   1    110.7000    313.8000
    494    474    495   1    107.8000    276.1440
    494    474    496   1    107.8000    276.1440
    495    474    496   1    107.8000    276.1440
    465    497    498   1    112.7000    488.2728
    465    497    508   1    110.7000    313.8000
    465    497    509   1    110.7000    313.8000
    498    497    508   1    110.7000    313.8000
    498    497    509   1    110.7000    313.8000
    508    497    509   1    107.8000    276.1440
    497    498    499   1    112.7000    488.2728
    497    498    510   1    110.7000    313.8000
    497    498    530   1    112.7000    488.2728
    499    498    510   1    110.7000    313.8000
    499    498    530   1    112.7000    488.2728
    510    498    530   1    110.7000    313.8000
    498    499    500   1    112.7000    488.2728
    498    499    511   1    110.7000    313.8000
    498    499    512   1    110.7000    313.8000
    500    499    511   1    110.7000    313.8000
    500    499    512   1    110.7000    313.8000
    511    499    512   1    107.8000    276.1440
    499    500    501   1    112.7000    488.2728
    499    500    513   1    110.7000    313.8000
    499    500    514   1    110.7000    313.8000
    501    500    513   1    110.7000    313.8000
    501    500    514   1    110.7000    313.8000
    513    500    514   1    107.8000    276.1440
    500    501    502   1    112.7000    488.2728
    500    501    515   1    110.7000    313.8000
    500    501    516   1    110.7000    313.8000
    502    501    515   1    110.7000    313.8000
    502    501    516   1    110.7000    313.8000
    515    501    516   1    107.8000    276.1440
    501    502    503   1    112.7000    488.2728
    501    502    517   1    110.7000    313.8000
    501    502    518   1    110.7000    313.8000
    503    502    517   1    110.7000    313.8000
    503    502    518   1    110.7000    313.8000
    517    502    518   1    107.8000    276.1440
    502    503    504   1    112.7000    488.2728
    502    503    519   1    110.7000    313.8000
    502    503    520   1    110.7000    313.8000
    504    503    519   1    110.7000    313.8000
    504    503    520   1    110.7000    313.8000
    519    503    520   1    107.8000    276.1440
    503    504    505   1    112.7000    488.2728
    503    504    521   1    110.7000    313.8000
    503    504    522   1    110.7000    313.8000
    505    504    521   1    110.7000    313.8000
    505    504    522   1    110.7000    313.8000
    521    504    522   1    107.8000    276.1440
    504    505    506   1    112.7000    488.2728
    504    505    523   1    110.7000    313.8000
    504    505    524   1    110.7000    313.8000
    506    505    523   1    110.7000    313.8000
    506    505    524   1    110.7000    313.8000
    523    505    524   1    107.8000    276.1440
    505    506    507   1    112.7000    488.2728
    505    506    525   1    110.7000    313.8000
    505    506    526   1    110.7000    313.8000
    507    506    525   1    110.7000    313.8000
    507    506    526   1    110.7000    313.8000
    525    506    526   1    107.8000    276.1440
    506    507    527   1    110.7000    313.8000
    506    507    528   1    110.7000    313.8000
    506    507    529   1    110.7000    313.8000
    527    507    528   1    107.8000    276.1440
    527    507    529   1    107.8000    276.1440
    528    507    529   1    107.8000    276.1440
    498    530    531   1    112.7000    488.2728
    498    530    541   1    110.7000    313.8000
    498    530    542   1    110.7000    313.8000
    531    530    541   1    110.7000    313.8000
    531    530    542   1    110.7000    313.8000
    541    530    542   1    107.8000    276.1440
    530    531    532   1    112.7000    488.2728
    530    531    543   1    110.7000    313.8000
    530    531    563   1    112.7000    488.2728
    532    531    543   1    110.7000    313.8000
    532    531    563   1    112.7000    488.2728
    543    531    563   1    110.7000    313.8000
    531    532    533   1    112.7000    488.2728
    531    532    544   1    110.7000    313.8000
    531    532    545   1    110.7000    313.8000
    533    532    544   1    110.7000    313.8000
    533    532    545   1    110.7000    313.8000
    544    532    545   1    107.8000    276.1440
    532    533    534   1    112.7000    488.2728
    532    533    546   1    110.7000    313.8000
    532    533    547   1    110.7000    313.8000
    534    533    546   1    110.7000    313.8000
    534    533    547   1    110.7000    313.8000
    546    533    547   1    107.8000    276.1440
    533    534    535   1    112.7000    488.2728
    533    534    548   1    110.7000    313.8000
    533    534    549   1    110.7000    313.8000
    535    534    548   1    110.7000    313.8000
    535    534    549   1    110.7000    313.8000
    548    534    549   1    107.8000    276.1440
    534    535    536   1    112.7000    488.2728
    534    535    550   1    110.7000    313.8000
    534    535    551   1    110.7000    313.8000
    536    535    550   1    110.7000    313.8000
    536    535    551   1    110.7000    313.8000
    550    535    551   1    107.8000    276.1440
    535    536    537   1    112.7000    488.2728
    535    536    552   1    110.7000    313.8000
    535    536    553   1    110.7000    313.8000
    537    536    552   1    110.7000    313.8000
    537    536    553   1    110.7000    313.8000
    552    536    553   1    107.8000    276.1440
    536    537    538   1    112.7000    488.2728
    536    537    554   1    110.7000    313.8000
    536    537    555   1    110.7000    313.8000
    538    537    554   1    110.7000    313.8000
    538    537    555   1    110.7000    313.8000
    554    537    555   1    107.8000    276.1440
    537    538    539   1    112.7000    488.2728
    537    538    556   1    110.7000    313.8000
    537    538    557   1    110.7000    313.8000
    539    538    556   1    110.7000    313.8000
    539    538    557   1    110.7000    313.8000
    556    538    557   1    107.8000    276.1440
    538    539    540   1    112.7000    488.2728
    538    539    558   1    110.7000    313.8000
    538    539    559   1    110.7000    313.8000
    540    539    558   1    110.7000    313.8000
    540    539    559   1    110.7000    313.8000
    558    539    559   1    107.8000    276.1440
    539    540    560   1    110.7000    313.8000
    539    540    561   1    110.7000    313.8000
    539    540    562   1    110.7000    313.8000
    560    540    561   1    107.8000    276.1440
    560    540    562   1    107.8000    276.1440
    561    540    562   1    107.8000    276.1440
    531    563    564   1    112.7000    488.2728
    531    563    574   1    110.7000    313.8000
    531    563    575   1    110.7000    313.8000
    564    563    574   1    110.7000    313.8000
    564    563    575   1    110.7000    313.8000
    574    563    575   1    107.8000    276.1440
    563    564    565   1    112.7000    488.2728
    563    564    576   1    110.7000    313.8000
    563    564    596   1    112.7000    488.2728
    565    564    576   1    110.7000    313.8000
    565    564    596   1    112.7000    488.2728
    576    564    596   1    110.7000    313.8000
    564    565    566   1    112.7000    488.2728
    564    565    577   1    110.7000    313.8000
    564    565    578   1    110.7000    313.8000
    566    565    577   1    110.7000    313.8000
    566    565    578   1    110.7000    313.8000
    577    565    578   1    107.8000    276.1440
    565    566    567   1    112.7000    488.2728
    565    566    579   1    110.7000    313.8000
    565    566    580   1    110.7000    313.8000
    567    566    579   1    110.7000    313.8000
    567    566    580   1    110.7000    313.8000
    579    566    580   1    107.8000    276.1440
    566    567    568   1    112.7000    488.2728
    566    567    581   1    110.7000    313.8000
    566    567    582   1    110.7000    313.8000
    568    567    581   1    110.7000    313.8000
    568    567    582   1    110.7000    313.8000
    581    567    582   1    107.8000    276.1440
    567    568    569   1    112.7000    488.2728
    567    568    583   1    110.7000    313.8000
    567    568    584   1    110.7000    313.8000
    569    568    583   1    110.7000    313.8000
    569    568    584   1    110.7000    313.8000
    583    568    584   1    107.8000    276.1440
    568    569    570   1    112.7000    488.2728
    568    569    585   1    110.7000    313.8000
    568    569    586   1    110.7000    313.8000
    570    569    585   1    110.7000    313.8000
    570    569    586   1    110.7000    313.8000
    585    569    586   1    107.8000    276.1440
    569    570    571   1    112.7000    488.2728
    569    570    587   1    110.7000    313.8000
    569    570    588   1    110.7000    313.8000
    571    570    587   1    110.7000    313.8000
    571    570    588   1    110.7000    313.8000
    587    570    588   1    107.8000    276.1440
    570    571    572   1    112.7000    488.2728
    570    571    589   1    110.7000    313.8000
    570    571    590   1    110.7000    313.8000
    572    571    589   1    110.7000    313.8000
    572    571    590   1    110.7000    313.8000
    589    571    590   1    107.8000    276.1440
    571    572    573   1    112.7000    488.2728
    571    572    591   1    110.7000    313.8000
    571    572    592   1    110.7000    313.8000
    573    572    591   1    110.7000    313.8000
    573    572    592   1    110.7000    313.8000
    591    572    592   1    107.8000    276.1440
    572    573    593   1    110.7000    313.8000
    572    573    594   1    110.7000    313.8000
    572    573    595   1    110.7000    313.8000
    593    573    594   1    107.8000    276.1440
    593    573    595   1    107.8000    276.1440
    594    573    595   1    107.8000    276.1440
    564    596    597   1    112.7000    488.2728
    564    596    607   1    110.7000    313.8000
    564    596    608   1    110.7000    313.8000
    597    596    607   1    110.7000    313.8000
    597    596    608   1    110.7000    313.8000
    607    596    608   1    107.8000    276.1440
    596    597    598   1    112.7000    488.2728
    596    597    609   1    110.7000    313.8000
    596    597    629   1    112.7000    488.2728
    598    597    609   1    110.7000    313.8000
    598    597    629   1    112.7000    488.2728
    609    597    629   1    110.7000    313.8000
    597    598    599   1    112.7000    488.2728
    597    598    610   1    110.7000    313.8000
    597    598    611   1    110.7000    313.8000
    599    598    610   1    110.7000    313.8000
    599    598    611   1    110.7000    313.8000
    610    598    611   1    107.8000    276.1440
    598    599    600   1    112.7000    488.2728
    598    599    612   1    110.7000    313.8000
    598    599    613   1    110.7000    313.8000
    600    599    612   1    110.7000    313.8000
    600    599    613   1    110.7000    313.8000
    612    599    613   1    107.8000    276.1440
    599    600    601   1    112.7000    488.2728
    599    600    614   1    110.7000    313.8000
    599    600    615   1    110.7000    313.8000
    601    600    614   1    110.7000    313.8000
    601    600    615   1    110.7000    313.8000
    614    600    615   1    107.8000    276.1440
    600    601    602   1    112.7000    488.2728
    600    601    616   1    110.7000    313.8000
    600    601    617   1    110.7000    313.8000
    602    601    616   1    110.7000    313.8000
    602    601    617   1    110.7000    313.8000
    616    601    617   1    107.8000    276.1440
    601    602    603   1    112.7000    488.2728
    601    602    618   1    110.7000    313.8000
    601    602    619   1    110.7000    313.8000
    603    602    618   1    110.7000    313.8000
    603    602    619   1    110.7000    313.8000
    618    602    619   1    107.8000    276.1440
    602    603    604   1    112.7000    488.2728
    602    603    620   1    110.7000    313.8000
    602    603    621   1    110.7000    313.8000
    604    603    620   1    110.7000    313.8000
    604    603    621   1    110.7000    313.8000
    620    603    621   1    107.8000    276.1440
    603    604    605   1    112.7000    488.2728
    603    604    622   1    110.7000    313.8000
    603    604    623   1    110.7000    313.8000
    605    604    622   1    110.7000    313.8000
    605    604    623   1    110.7000    313.8000
    622    604    623   1    107.8000    276.1440
    604    605    606   1    112.7000    488.2728
    604    605    624   1    110.7000    313.8000
    604    605    625   1    110.7000    313.8000
    606    605    624   1    110.7000    313.8000
    606    605    625   1    110.7000    313.8000
    624    605    625   1    107.8000    276.1440
    605    606    626   1    110.7000    313.8000
    605    606    627   1    110.7000    313.8000
    605    606    628   1    110.7000    313.8000
    626    606    627   1    107.8000    276.1440
    626    606    628   1    107.8000    276.1440
    627    606    628   1    107.8000    276.1440
    597    629    630   1    112.7000    488.2728
    597    629    640   1    110.7000    313.8000
    597    629    641   1    110.7000    313.8000
    630    629    640   1    110.7000    313.8000
    630    629    641   1    110.7000    313.8000
    640    629    641   1    107.8000    276.1440
    629    630    631   1    112.7000    488.2728
    629    630    642   1    110.7000    313.8000
    629    630    662   1    110.7000    313.8000
    631    630    642   1    110.7000    313.8000
    631    630    662   1    110.7000    313.8000
    642    630    662   1    107.8000    276.1440
    630    631    632   1    112.7000    488.2728
    630    631    643   1    110.7000    313.8000
    630    631    644   1    110.7000    313.8000
    632    631    643   1    110.7000    313.8000
    632    631    644   1    110.7000    313.8000
    643    631    644   1    107.8000    276.1440
    631    632    633   1    112.7000    488.2728
    631    632    645   1    110.7000    313.8000
    631    632    646   1    110.7000    313.8000
    633    632    645   1    110.7000    313.8000
    633    632    646   1    110.7000    313.8000
    645    632    646   1    107.8000    276.1440
    632    633    634   1    112.7000    488.2728
    632    633    647   1    110.7000    313.8000
    632    633    648   1    110.7000    313.8000
    634    633    647   1    110.7000    313.8000
    634    633    648   1    110.7000    313.8000
    647    633    648   1    107.8000    276.1440
    633    634    635   1    112.7000    488.2728
    633    634    649   1    110.7000    313.8000
    633    634    650   1    110.7000    313.8000
    635    634    649   1    110.7000    313.8000
    635    634    650   1    110.7000    313.8000
    649    634    650   1    107.8000    276.1440
    634    635    636   1    112.7000    488.2728
    634    635    651   1    110.7000    313.8000
    634    635    652   1    110.7000    313.8000
    636    635    651   1    110.7000    313.8000
    636    635    652   1    110.7000    313.8000
    651    635    652   1    107.8000    276.1440
    635    636    637   1    112.7000    488.2728
    635    636    653   1    110.7000    313.8000
    635    636    654   1    110.7000    313.8000
    637    636    653   1    110.7000    313.8000
    637    636    654   1    110.7000    313.8000
    653    636    654   1    107.8000    276.1440
    636    637    638   1    112.7000    488.2728
    636    637    655   1    110.7000    313.8000
    636    637    656   1    110.7000    313.8000
    638    637    655   1    110.7000    313.8000
    638    637    656   1    110.7000    313.8000
    655    637    656   1    107.8000    276.1440
    637    638    639   1    112.7000    488.2728
    637    638    657   1    110.7000    313.8000
    637    638    658   1    110.7000    313.8000
    639    638    657   1    110.7000    313.8000
    639    638    658   1    110.7000    313.8000
    657    638    658   1    107.8000    276.1440
    638    639    659   1    110.7000    313.8000
    638    639    660   1    110.7000    313.8000
    638    639    661   1    110.7000    313.8000
    659    639    660   1    107.8000    276.1440
    659    639    661   1    107.8000    276.1440
    660    639    661   1    107.8000    276.1440

[ dihedrals ]
; Proper dihedrals
     12      1      2      3   5     0.00000     0.00000     1.25520  0.0
     12      1      2     14   5     0.00000     0.00000     1.25520  0.0
     12      1      2     35   5     0.00000     0.00000     1.25520  0.0
     13      1      2      3   5     0.00000     0.00000     1.25520  0.0
     13      1      2     14   5     0.00000     0.00000     1.25520  0.0
     13      1      2     35   5     0.00000     0.00000     1.25520  0.0
     34      1      2      3   5     0.00000     0.00000     1.25520  0.0
     34      1      2     14   5     0.00000     0.00000     1.25520  0.0
     34      1      2     35   5     0.00000     0.00000     1.25520  0.0
      1      2      3      4   5     4.74884    -0.63178     1.67360  0.0
      1      2      3     15   5     0.00000     0.00000     1.25520  0.0
      1      2      3     16   5     0.00000     0.00000     1.25520  0.0
     14      2      3      4   5     0.00000     0.00000     1.25520  0.0
     14      2      3     15   5     0.00000     0.00000     1.25520  0.0
     14      2      3     16   5     0.00000     0.00000     1.25520  0.0
     35      2      3      4   5     4.74884    -0.63178     1.67360  0.0
     35      2      3     15   5     0.00000     0.00000     1.25520  0.0
     35      2      3     16   5     0.00000     0.00000     1.25520  0.0
      1      2     35     36   5     4.74884    -0.63178     1.67360  0.0
      1      2     35     46   5     0.00000     0.00000     1.25520  0.0
      1      2     35     47   5     0.00000     0.00000     1.25520  0.0
      3      2     35     36   5     4.74884    -0.63178     1.67360  0.0
      3      2     35     46   5     0.00000     0.00000     1.25520  0.0
      3      2     35     47   5     0.00000     0.00000     1.25520  0.0
     14      2     35     36   5     0.00000     0.00000     1.25520  0.0
     14      2     35     46   5     0.00000     0.00000     1.25520  0.0
     14      2     35     47   5     0.00000     0.00000     1.25520  0.0
      2      3      4      5   5     4.74884    -0.63178     1.67360  0.0
      2      3      4     17   5     0.00000     0.00000     1.25520  0.0
      2      3      4     18   5     0.00000     0.00000     1.25520  0.0
     15      3      4      5   5     0.00000     0.00000     1.25520  0.0
     15      3      4     17   5     0.00000     0.00000     1.25520  0.0
     15      3      4     18   5     0.00000     0.00000     1.25520  0.0
     16      3      4      5   5     0.00000     0.00000     1.25520  0.0
     16      3      4     17   5     0.00000     0.00000     1.25520  0.0
     16      3      4     18   5     0.00000     0.00000     1.25520  0.0
      3      4      5      6   5     4.74884    -0.63178     1.67360  0.0
      3      4      5     19   5     0.00000     0.00000     1.25520  0.0
      3      4      5     20   5     0.00000     0.00000     1.25520  0.0
     17      4      5      6   5     0.00000     0.00000     1.25520  0.0
     17      4      5     19   5     0.00000     0.00000     1.25520  0.0
     17      4      5     20   5     0.00000     0.00000     1.25520  0.0
     18      4      5      6   5     0.00000     0.00000     1.25520  0.0
     18      4      5     19   5     0.00000     0.00000     1.25520  0.0
     18      4      5     20   5     0.00000     0.00000     1.25520  0.0
      4      5      6      7   5     4.74884    -0.63178     1.67360  0.0
      4      5      6     21   5     0.00000     0.00000     1.25520  0.0
      4      5      6     22   5     0.00000     0.00000     1.25520  0.0
     19      5      6      7   5     0.00000     0.00000     1.25520  0.0
     19      5      6     21   5     0.00000     0.00000     1.25520  0.0
     19      5      6     22   5     0.00000     0.00000     1.25520  0.0
     20      5      6      7   5     0.00000     0.00000     1.25520  0.0
     20      5      6     21   5     0.00000     0.00000     1.25520  0.0
     20      5      6     22   5     0.00000     0.00000     1.25520  0.0
      5      6      7      8   5     4.74884    -0.63178     1.67360  0.0
      5      6      7     23   5     0.00000     0.00000     1.25520  0.0
      5      6      7     24   5     0.00000     0.00000     1.25520  0.0
     21      6      7      8   5     0.00000     0.00000     1.25520  0.0
     21      6      7     23   5     0.00000     0.00000     1.25520  0.0
     21      6      7     24   5     0.00000     0.00000     1.25520  0.0
     22      6      7      8   5     0.00000     0.00000     1.25520  0.0
     22      6      7     23   5     0.00000     0.00000     1.25520  0.0
     22      6      7     24   5     0.00000     0.00000     1.25520  0.0
      6      7      8      9   5     4.74884    -0.63178     1.67360  0.0
      6      7      8     25   5     0.00000     0.00000     1.25520  0.0
      6      7      8     26   5     0.00000     0.00000     1.25520  0.0
     23      7      8      9   5     0.00000     0.00000     1.25520  0.0
     23      7      8     25   5     0.00000     0.00000     1.25520  0.0
     23      7      8     26   5     0.00000     0.00000     1.25520  0.0
     24      7      8      9   5     0.00000     0.00000     1.25520  0.0
     24      7      8     25   5     0.00000     0.00000     1.25520  0.0
     24      7      8     26   5     0.00000     0.00000     1.25520  0.0
      7      8      9     10   5     4.74884    -0.63178     1.67360  0.0
      7      8      9     27   5     0.00000     0.00000     1.25520  0.0
      7      8      9     28   5     0.00000     0.00000     1.25520  0.0
     25      8      9     10   5     0.00000     0.00000     1.25520  0.0
     25      8      9     27   5     0.00000     0.00000     1.25520  0.0
     25      8      9     28   5     0.00000     0.00000     1.25520  0.0
     26      8      9     10   5     0.00000     0.00000     1.25520  0.0
     26      8      9     27   5     0.00000     0.00000     1.25520  0.0
     26      8      9     28   5     0.00000     0.00000     1.25520  0.0
      8      9     10     11   5     4.74884    -0.63178     1.67360  0.0
      8      9     10     29   5     0.00000     0.00000     1.25520  0.0
      8      9     10     30   5     0.00000     0.00000     1.25520  0.0
     27      9     10     11   5     0.00000     0.00000     1.25520  0.0
     27      9     10     29   5     0.00000     0.00000     1.25520  0.0
     27      9     10     30   5     0.00000     0.00000     1.25520  0.0
     28      9     10     11   5     0.00000     0.00000     1.25520  0.0
     28      9     10     29   5     0.00000     0.00000     1.25520  0.0
     28      9     10     30   5     0.00000     0.00000     1.25520  0.0
      9     10     11     31   5     0.00000     0.00000     1.25520  0.0
      9     10     11     32   5     0.00000     0.00000     1.25520  0.0
      9     10     11     33   5     0.00000     0.00000     1.25520  0.0
     29     10     11     31   5     0.00000     0.00000     1.25520  0.0
     29     10     11     32   5     0.00000     0.00000     1.25520  0.0
     29     10     11     33   5     0.00000     0.00000     1.25520  0.0
     30     10     11     31   5     0.00000     0.00000     1.25520  0.0
     30     10     11     32   5     0.00000     0.00000     1.25520  0.0
     30     10     11     33   5     0.00000     0.00000     1.25520  0.0
      2     35     36     37   5     4.74884    -0.63178     1.67360  0.0
      2     35     36     48   5     0.00000     0.00000     1.25520  0.0
      2     35     36     68   5     4.74884    -0.63178     1.67360  0.0
     46     35     36     37   5     0.00000     0.00000     1.25520  0.0
     46     35     36     48   5     0.00000     0.00000     1.25520  0.0
     46     35     36     68   5     0.00000     0.00000     1.25520  0.0
     47     35     36     37   5     0.00000     0.00000     1.25520  0.0
     47     35     36     48   5     0.00000     0.00000     1.25520  0.0
     47     35     36     68   5     0.00000     0.00000     1.25520  0.0
     35     36     37     38   5     4.74884    -0.63178     1.67360  0.0
     35     36     37     49   5     0.00000     0.00000     1.25520  0.0
     35     36     37     50   5     0.00000     0.00000     1.25520  0.0
     48     36     37     38   5     0.00000     0.00000     1.25520  0.0
     48     36     37     49   5     0.00000     0.00000     1.25520  0.0
     48     36     37     50   5     0.00000     0.00000     1.25520  0.0
     68     36     37     38   5     4.74884    -0.63178     1.67360  0.0
     68     36     37     49   5     0.00000     0.00000     1.25520  0.0
     68     36     37     50   5     0.00000     0.00000     1.25520  0.0
     35     36     68     69   5     4.74884    -0.63178     1.67360  0.0
     35     36     68     79   5     0.00000     0.00000     1.25520  0.0
     35     36     68     80   5     0.00000     0.00000     1.25520  0.0
     37     36     68     69   5     4.74884    -0.63178     1.67360  0.0
     37     36     68     79   5     0.00000     0.00000     1.25520  0.0
     37     36     68     80   5     0.00000     0.00000     1.25520  0.0
     48     36     68     69   5     0.00000     0.00000     1.25520  0.0
     48     36     68     79   5     0.00000     0.00000     1.25520  0.0
     48     36     68     80   5     0.00000     0.00000     1.25520  0.0
     36     37     38     39   5     4.74884    -0.63178     1.67360  0.0
     36     37     38     51   5     0.00000     0.00000     1.25520  0.0
     36     37     38     52   5     0.00000     0.00000     1.25520  0.0
     49     37     38     39   5     0.00000     0.00000     1.25520  0.0
     49     37     38     51   5     0.00000     0.00000     1.25520  0.0
     49     37     38     52   5     0.00000     0.00000     1.25520  0.0
     50     37     38     39   5     0.00000     0.00000     1.25520  0.0
     50     37     38     51   5     0.00000     0.00000     1.25520  0.0
     50     37     38     52   5     0.00000     0.00000     1.25520  0.0
     37     38     39     40   5     4.74884    -0.63178     1.67360  0.0
     37     38     39     53   5     0.00000     0.00000     1.25520  0.0
     37     38     39     54   5     0.00000     0.00000     1.25520  0.0
     51     38     39     40   5     0.00000     0.00000     1.25520  0.0
     51     38     39     53   5     0.00000     0.00000     1.25520  0.0
     51     38     39     54   5     0.00000     0.00000     1.25520  0.0
     52     38     39     40   5     0.00000     0.00000     1.25520  0.0
     52     38     39     53   5     0.00000     0.00000     1.25520  0.0
     52     38     39     54   5     0.00000     0.00000     1.25520  0.0
     38     39     40     41   5     4.74884    -0.63178     1.67360  0.0
     38     39     40     55   5     0.00000     0.00000     1.25520  0.0
     38     39     40     56   5     0.00000     0.00000     1.25520  0.0
     53     39     40     41   5     0.00000     0.00000     1.25520  0.0
     53     39     40     55   5     0.00000     0.00000     1.25520  0.0
     53     39     40     56   5     0.00000     0.00000     1.25520  0.0
     54     39     40     41   5     0.00000     0.00000     1.25520  0.0
     54     39     40     55   5     0.00000     0.00000     1.25520  0.0
     54     39     40     56   5     0.00000     0.00000     1.25520  0.0
     39     40     41     42   5     4.74884    -0.63178     1.67360  0.0
     39     40     41     57   5     0.00000     0.00000     1.25520  0.0
     39     40     41     58   5     0.00000     0.00000     1.25520  0.0
     55     40     41     42   5     0.00000     0.00000     1.25520  0.0
     55     40     41     57   5     0.00000     0.00000     1.25520  0.0
     55     40     41     58   5     0.00000     0.00000     1.25520  0.0
     56     40     41     42   5     0.00000     0.00000     1.25520  0.0
     56     40     41     57   5     0.00000     0.00000     1.25520  0.0
     56     40     41     58   5     0.00000     0.00000     1.25520  0.0
     40     41     42     43   5     4.74884    -0.63178     1.67360  0.0
     40     41     42     59   5     0.00000     0.00000     1.25520  0.0
     40     41     42     60   5     0.00000     0.00000     1.25520  0.0
     57     41     42     43   5     0.00000     0.00000     1.25520  0.0
     57     41     42     59   5     0.00000     0.00000     1.25520  0.0
     57     41     42     60   5     0.00000     0.00000     1.25520  0.0
     58     41     42     43   5     0.00000     0.00000     1.25520  0.0
     58     41     42     59   5     0.00000     0.00000     1.25520  0.0
     58     41     42     60   5     0.00000     0.00000     1.25520  0.0
     41     42     43     44   5     4.74884    -0.63178     1.67360  0.0
     41     42     43     61   5     0.00000     0.00000     1.25520  0.0
     41     42     43     62   5     0.00000     0.00000     1.25520  0.0
     59     42     43     44   5     0.00000     0.00000     1.25520  0.0
     59     42     43     61   5     0.00000     0.00000     1.25520  0.0
     59     42     43     62   5     0.00000     0.00000     1.25520  0.0
     60     42     43     44   5     0.00000     0.00000     1.25520  0.0
     60     42     43     61   5     0.00000     0.00000     1.25520  0.0
     60     42     43     62   5     0.00000     0.00000     1.25520  0.0
     42     43     44     45   5     4.74884    -0.63178     1.67360  0.0
     42     43     44     63   5     0.00000     0.00000     1.25520  0.0
     42     43     44     64   5     0.00000     0.00000     1.25520  0.0
     61     43     44     45   5     0.00000     0.00000     1.25520  0.0
     61     43     44     63   5     0.00000     0.00000     1.25520  0.0
     61     43     44     64   5     0.00000     0.00000     1.25520  0.0
     62     43     44     45   5     0.00000     0.00000     1.25520  0.0
     62     43     44     63   5     0.00000     0.00000     1.25520  0.0
     62     43     44     64   5     0.00000     0.00000     1.25520  0.0
     43     44     45     65   5     0.00000     0.00000     1.25520  0.0
     43     44     45     66   5     0.00000     0.00000     1.25520  0.0
     43     44     45     67   5     0.00000     0.00000     1.25520  0.0
     63     44     45     65   5     0.00000     0.00000     1.25520  0.0
     63     44     45     66   5     0.00000     0.00000     1.25520  0.0
     63     44     45     67   5     0.00000     0.00000     1.25520  0.0
     64     44     45     65   5     0.00000     0.00000     1.25520  0.0
     64     44     45     66   5     0.00000     0.00000     1.25520  0.0
     64     44     45     67   5     0.00000     0.00000     1.25520  0.0
     36     68     69     70   5     4.74884    -0.63178     1.67360  0.0
     36     68     69     81   5     0.00000     0.00000     1.25520  0.0
     36     68     69    101   5     4.74884    -0.63178     1.67360  0.0
     79     68     69     70   5     0.00000     0.00000     1.25520  0.0
     79     68     69     81   5     0.00000     0.00000     1.25520  0.0
     79     68     69    101   5     0.00000     0.00000     1.25520  0.0
     80     68     69     70   5     0.00000     0.00000     1.25520  0.0
     80     68     69     81   5     0.00000     0.00000     1.25520  0.0
     80     68     69    101   5     0.00000     0.00000     1.25520  0.0
     68     69     70     71   5     4.74884    -0.63178     1.67360  0.0
     68     69     70     82   5     0.00000     0.00000     1.25520  0.0
     68     69     70     83   5     0.00000     0.00000     1.25520  0.0
     81     69     70     71   5     0.00000     0.00000     1.25520  0.0
     81     69     70     82   5     0.00000     0.00000     1.25520  0.0
     81     69     70     83   5     0.00000     0.00000     1.25520  0.0
    101     69     70     71   5     4.74884    -0.63178     1.67360  0.0
    101     69     70     82   5     0.00000     0.00000     1.25520  0.0
    101     69     70     83   5     0.00000     0.00000     1.25520  0.0
     68     69    101    102   5     4.74884    -0.63178     1.67360  0.0
     68     69    101    112   5     0.00000     0.00000     1.25520  0.0
     68     69    101    113   5     0.00000     0.00000     1.25520  0.0
     70     69    101    102   5     4.74884    -0.63178     1.67360  0.0
     70     69    101    112   5     0.00000     0.00000     1.25520  0.0
     70     69    101    113   5     0.00000     0.00000     1.25520  0.0
     81     69    101    102   5     0.00000     0.00000     1.25520  0.0
     81     69    101    112   5     0.00000     0.00000     1.25520  0.0
     81     69    101    113   5     0.00000     0.00000     1.25520  0.0
     69     70     71     72   5     4.74884    -0.63178     1.67360  0.0
     69     70     71     84   5     0.00000     0.00000     1.25520  0.0
     69     70     71     85   5     0.00000     0.00000     1.25520  0.0
     82     70     71     72   5     0.00000     0.00000     1.25520  0.0
     82     70     71     84   5     0.00000     0.00000     1.25520  0.0
     82     70     71     85   5     0.00000     0.00000     1.25520  0.0
     83     70     71     72   5     0.00000     0.00000     1.25520  0.0
     83     70     71     84   5     0.00000     0.00000     1.25520  0.0
     83     70     71     85   5     0.00000     0.00000     1.25520  0.0
     70     71     72     73   5     4.74884    -0.63178     1.67360  0.0
     70     71     72     86   5     0.00000     0.00000     1.25520  0.0
     70     71     72     87   5     0.00000     0.00000     1.25520  0.0
     84     71     72     73   5     0.00000     0.00000     1.25520  0.0
     84     71     72     86   5     0.00000     0.00000     1.25520  0.0
     84     71     72     87   5     0.00000     0.00000     1.25520  0.0
     85     71     72     73   5     0.00000     0.00000     1.25520  0.0
     85     71     72     86   5     0.00000     0.00000     1.25520  0.0
     85     71     72     87   5     0.00000     0.00000     1.25520  0.0
     71     72     73     74   5     4.74884    -0.63178     1.67360  0.0
     71     72     73     88   5     0.00000     0.00000     1.25520  0.0
     71     72     73     89   5     0.00000     0.00000     1.25520  0.0
     86     72     73     74   5     0.00000     0.00000     1.25520  0.0
     86     72     73     88   5     0.00000     0.00000     1.25520  0.0
     86     72     73     89   5     0.00000     0.00000     1.25520  0.0
     87     72     73     74   5     0.00000     0.00000     1.25520  0.0
     87     72     73     88   5     0.00000     0.00000     1.25520  0.0
     87     72     73     89   5     0.00000     0.00000     1.25520  0.0
     72     73     74     75   5     4.74884    -0.63178     1.67360  0.0
     72     73     74     90   5     0.00000     0.00000     1.25520  0.0
     72     73     74     91   5     0.00000     0.00000     1.25520  0.0
     88     73     74     75   5     0.00000     0.00000     1.25520  0.0
     88     73     74     90   5     0.00000     0.00000     1.25520  0.0
     88     73     74     91   5     0.00000     0.00000     1.25520  0.0
     89     73     74     75   5     0.00000     0.00000     1.25520  0.0
     89     73     74     90   5     0.00000     0.00000     1.25520  0.0
     89     73     74     91   5     0.00000     0.00000     1.25520  0.0
     73     74     75     76   5     4.74884    -0.63178     1.67360  0.0
     73     74     75     92   5     0.00000     0.00000     1.25520  0.0
     73     74     75     93   5     0.00000     0.00000     1.25520  0.0
     90     74     75     76   5     0.00000     0.00000     1.25520  0.0
     90     74     75     92   5     0.00000     0.00000     1.25520  0.0
     90     74     75     93   5     0.00000     0.00000     1.25520  0.0
     91     74     75     76   5     0.00000     0.00000     1.25520  0.0
     91     74     75     92   5     0.00000     0.00000     1.25520  0.0
     91     74     75     93   5     0.00000     0.00000     1.25520  0.0
     74     75     76     77   5     4.74884    -0.63178     1.67360  0.0
     74     75     76     94   5     0.00000     0.00000     1.25520  0.0
     74     75     76     95   5     0.00000     0.00000     1.25520  0.0
     92     75     76     77   5     0.00000     0.00000     1.25520  0.0
     92     75     76     94   5     0.00000     0.00000     1.25520  0.0
     92     75     76     95   5     0.00000     0.00000     1.25520  0.0
     93     75     76     77   5     0.00000     0.00000     1.25520  0.0
     93     75     76     94   5     0.00000     0.00000     1.25520  0.0
     93     75     76     95   5     0.00000     0.00000     1.25520  0.0
     75     76     77     78   5     4.74884    -0.63178     1.67360  0.0
     75     76     77     96   5     0.00000     0.00000     1.25520  0.0
     75     76     77     97   5     0.00000     0.00000     1.25520  0.0
     94     76     77     78   5     0.00000     0.00000     1.25520  0.0
     94     76     77     96   5     0.00000     0.00000     1.25520  0.0
     94     76     77     97   5     0.00000     0.00000     1.25520  0.0
     95     76     77     78   5     0.00000     0.00000     1.25520  0.0
     95     76     77     96   5     0.00000     0.00000     1.25520  0.0
     95     76     77     97   5     0.00000     0.00000     1.25520  0.0
     76     77     78     98   5     0.00000     0.00000     1.25520  0.0
     76     77     78     99   5     0.00000     0.00000     1.25520  0.0
     76     77     78    100   5     0.00000     0.00000     1.25520  0.0
     96     77     78     98   5     0.00000     0.00000     1.25520  0.0
     96     77     78     99   5     0.00000     0.00000     1.25520  0.0
     96     77     78    100   5     0.00000     0.00000     1.25520  0.0
     97     77     78     98   5     0.00000     0.00000     1.25520  0.0
     97     77     78     99   5     0.00000     0.00000     1.25520  0.0
     97     77     78    100   5     0.00000     0.00000     1.25520  0.0
     69    101    102    103   5     4.74884    -0.63178     1.67360  0.0
     69    101    102    114   5     0.00000     0.00000     1.25520  0.0
     69    101    102    134   5     4.74884    -0.63178     1.67360  0.0
    112    101    102    103   5     0.00000     0.00000     1.25520  0.0
    112    101    102    114   5     0.00000     0.00000     1.25520  0.0
    112    101    102    134   5     0.00000     0.00000     1.25520  0.0
    113    101    102    103   5     0.00000     0.00000     1.25520  0.0
    113    101    102    114   5     0.00000     0.00000     1.25520  0.0
    113    101    102    134   5     0.00000     0.00000     1.25520  0.0
    101    102    103    104   5     4.74884    -0.63178     1.67360  0.0
    101    102    103    115   5     0.00000     0.00000     1.25520  0.0
    101    102    103    116   5     0.00000     0.00000     1.25520  0.0
    114    102    103    104   5     0.00000     0.00000     1.25520  0.0
    114    102    103    115   5     0.00000     0.00000     1.25520  0.0
    114    102    103    116   5     0.00000     0.00000     1.25520  0.0
    134    102    103    104   5     4.74884    -0.63178     1.67360  0.0
    134    102    103    115   5     0.00000     0.00000     1.25520  0.0
    134    102    103    116   5     0.00000     0.00000     1.25520  0.0
    101    102    134    135   5     4.74884    -0.63178     1.67360  0.0
    101    102    134    145   5     0.00000     0.00000     1.25520  0.0
    101    102    134    146   5     0.00000     0.00000     1.25520  0.0
    103    102    134    135   5     4.74884    -0.63178     1.67360  0.0
    103    102    134    145   5     0.00000     0.00000     1.25520  0.0
    103    102    134    146   5     0.00000     0.00000     1.25520  0.0
    114    102    134    135   5     0.00000     0.00000     1.25520  0.0
    114    102    134    145   5     0.00000     0.00000     1.25520  0.0
    114    102    134    146   5     0.00000     0.00000     1.25520  0.0
    102    103    104    105   5     4.74884    -0.63178     1.67360  0.0
    102    103    104    117   5     0.00000     0.00000     1.25520  0.0
    102    103    104    118   5     0.00000     0.00000     1.25520  0.0
    115    103    104    105   5     0.00000     0.00000     1.25520  0.0
    115    103    104    117   5     0.00000     0.00000     1.25520  0.0
    115    103    104    118   5     0.00000     0.00000     1.25520  0.0
    116    103    104    105   5     0.00000     0.00000     1.25520  0.0
    116    103    104    117   5     0.00000     0.00000     1.25520  0.0
    116    103    104    118   5     0.00000     0.00000     1.25520  0.0
    103    104    105    106   5     4.74884    -0.63178     1.67360  0.0
    103    104    105    119   5     0.00000     0.00000     1.25520  0.0
    103    104    105    120   5     0.00000     0.00000     1.25520  0.0
    117    104    105    106   5     0.00000     0.00000     1.25520  0.0
    117    104    105    119   5     0.00000     0.00000     1.25520  0.0
    117    104    105    120   5     0.00000     0.00000     1.25520  0.0
    118    104    105    106   5     0.00000     0.00000     1.25520  0.0
    118    104    105    119   5     0.00000     0.00000     1.25520  0.0
    118    104    105    120   5     0.00000     0.00000     1.25520  0.0
    104    105    106    107   5     4.74884    -0.63178     1.67360  0.0
    104    105    106    121   5     0.00000     0.00000     1.25520  0.0
    104    105    106    122   5     0.00000     0.00000     1.25520  0.0
    119    105    106    107   5     0.00000     0.00000     1.25520  0.0
    119    105    106    121   5     0.00000     0.00000     1.25520  0.0
    119    105    106    122   5     0.00000     0.00000     1.25520  0.0
    120    105    106    107   5     0.00000     0.00000     1.25520  0.0
    120    105    106    121   5     0.00000     0.00000     1.25520  0.0
    120    105    106    122   5     0.00000     0.00000     1.25520  0.0
    105    106    107    108   5     4.74884    -0.63178     1.67360  0.0
    105    106    107    123   5     0.00000     0.00000     1.25520  0.0
    105    106    107    124   5     0.00000     0.00000     1.25520  0.0
    121    106    107    108   5     0.00000     0.00000     1.25520  0.0
    121    106    107    123   5     0.00000     0.00000     1.25520  0.0
    121    106    107    124   5     0.00000     0.00000     1.25520  0.0
    122    106    107    108   5     0.00000     0.00000     1.25520  0.0
    122    106    107    123   5     0.00000     0.00000     1.25520  0.0
    122    106    107    124   5     0.00000     0.00000     1.25520  0.0
    106    107    108    109   5     4.74884    -0.63178     1.67360  0.0
    106    107    108    125   5     0.00000     0.00000     1.25520  0.0
    106    107    108    126   5     0.00000     0.00000     1.25520  0.0
    123    107    108    109   5     0.00000     0.00000     1.25520  0.0
    123    107    108    125   5     0.00000     0.00000     1.25520  0.0
    123    107    108    126   5     0.00000     0.00000     1.25520  0.0
    124    107    108    109   5     0.00000     0.00000     1.25520  0.0
    124    107    108    125   5     0.00000     0.00000     1.25520  0.0
    124    107    108    126   5     0.00000     0.00000     1.25520  0.0
    107    108    109    110   5     4.74884    -0.63178     1.67360  0.0
    107    108    109    127   5     0.00000     0.00000     1.25520  0.0
    107    108    109    128   5     0.00000     0.00000     1.25520  0.0
    125    108    109    110   5     0.00000     0.00000     1.25520  0.0
    125    108    109    127   5     0.00000     0.00000     1.25520  0.0
    125    108    109    128   5     0.00000     0.00000     1.25520  0.0
    126    108    109    110   5     0.00000     0.00000     1.25520  0.0
    126    108    109    127   5     0.00000     0.00000     1.25520  0.0
    126    108    109    128   5     0.00000     0.00000     1.25520  0.0
    108    109    110    111   5     4.74884    -0.63178     1.67360  0.0
    108    109    110    129   5     0.00000     0.00000     1.25520  0.0
    108    109    110    130   5     0.00000     0.00000     1.25520  0.0
    127    109    110    111   5     0.00000     0.00000     1.25520  0.0
    127    109    110    129   5     0.00000     0.00000     1.25520  0.0
    127    109    110    130   5     0.00000     0.00000     1.25520  0.0
    128    109    110    111   5     0.00000     0.00000     1.25520  0.0
    128    109    110    129   5     0.00000     0.00000     1.25520  0.0
    128    109    110    130   5     0.00000     0.00000     1.25520  0.0
    109    110    111    131   5     0.00000     0.00000     1.25520  0.0
    109    110    111    132   5     0.00000     0.00000     1.25520  0.0
    109    110    111    133   5     0.00000     0.00000     1.25520  0.0
    129    110    111    131   5     0.00000     0.00000     1.25520  0.0
    129    110    111    132   5     0.00000     0.00000     1.25520  0.0
    129    110    111    133   5     0.00000     0.00000     1.25520  0.0
    130    110    111    131   5     0.00000     0.00000     1.25520  0.0
    130    110    111    132   5     0.00000     0.00000     1.25520  0.0
    130    110    111    133   5     0.00000     0.00000     1.25520  0.0
    102    134    135    136   5     4.74884    -0.63178     1.67360  0.0
    102    134    135    147   5     0.00000     0.00000     1.25520  0.0
    102    134    135    167   5     4.74884    -0.63178     1.67360  0.0
    145    134    135    136   5     0.00000     0.00000     1.25520  0.0
    145    134    135    147   5     0.00000     0.00000     1.25520  0.0
    145    134    135    167   5     0.00000     0.00000     1.25520  0.0
    146    134    135    136   5     0.00000     0.00000     1.25520  0.0
    146    134    135    147   5     0.00000     0.00000     1.25520  0.0
    146    134    135    167   5     0.00000     0.00000     1.25520  0.0
    134    135    136    137   5     4.74884    -0.63178     1.67360  0.0
    134    135    136    148   5     0.00000     0.00000     1.25520  0.0
    134    135    136    149   5     0.00000     0.00000     1.25520  0.0
    147    135    136    137   5     0.00000     0.00000     1.25520  0.0
    147    135    136    148   5     0.00000     0.00000     1.25520  0.0
    147    135    136    149   5     0.00000     0.00000     1.25520  0.0
    167    135    136    137   5     4.74884    -0.63178     1.67360  0.0
    167    135    136    148   5     0.00000     0.00000     1.25520  0.0
    167    135    136    149   5     0.00000     0.00000     1.25520  0.0
    134    135    167    168   5     4.74884    -0.63178     1.67360  0.0
    134    135    167    178   5     0.00000     0.00000     1.25520  0.0
    134    135    167    179   5     0.00000     0.00000     1.25520  0.0
    136    135    167    168   5     4.74884    -0.63178     1.67360  0.0
    136    135    167    178   5     0.00000     0.00000     1.25520  0.0
    136    135    167    179   5     0.00000     0.00000     1.25520  0.0
    147    135    167    168   5     0.00000     0.00000     1.25520  0.0
    147    135    167    178   5     0.00000     0.00000     1.25520  0.0
    147    135    167    179   5     0.00000     0.00000     1.25520  0.0
    135    136    137    138   5     4.74884    -0.63178     1.67360  0.0
    135    136    137    150   5     0.00000     0.00000     1.25520  0.0
    135    136    137    151   5     0.00000     0.00000     1.25520  0.0
    148    136    137    138   5     0.00000     0.00000     1.25520  0.0
    148    136    137    150   5     0.00000     0.00000     1.25520  0.0
    148    136    137    151   5     0.00000     0.00000     1.25520  0.0
    149    136    137    138   5     0.00000     0.00000     1.25520  0.0
    149    136    137    150   5     0.00000     0.00000     1.25520  0.0
    149    136    137    151   5     0.00000     0.00000     1.25520  0.0
    136    137    138    139   5     4.74884    -0.63178     1.67360  0.0
    136    137    138    152   5     0.00000     0.00000     1.25520  0.0
    136    137    138    153   5     0.00000     0.00000     1.25520  0.0
    150    137    138    139   5     0.00000     0.00000     1.25520  0.0
    150    137    138    152   5     0.00000     0.00000     1.25520  0.0
    150    137    138    153   5     0.00000     0.00000     1.25520  0.0
    151    137    138    139   5     0.00000     0.00000     1.25520  0.0
    151    137    138    152   5     0.00000     0.00000     1.25520  0.0
    151    137    138    153   5     0.00000     0.00000     1.25520  0.0
    137    138    139    140   5     4.74884    -0.63178     1.67360  0.0
    137    138    139    154   5     0.00000     0.00000     1.25520  0.0
    137    138    139    155   5     0.00000     0.00000     1.25520  0.0
    152    138    139    140   5     0.00000     0.00000     1.25520  0.0
    152    138    139    154   5     0.00000     0.00000     1.25520  0.0
    152    138    139    155   5     0.00000     0.00000     1.25520  0.0
    153    138    139    140   5     0.00000     0.00000     1.25520  0.0
    153    138    139    154   5     0.00000     0.00000     1.25520  0.0
    153    138    139    155   5     0.00000     0.00000     1.25520  0.0
    138    139    140    141   5     4.74884    -0.63178     1.67360  0.0
    138    139    140    156   5     0.00000     0.00000     1.25520  0.0
    138    139    140    157   5     0.00000     0.00000     1.25520  0.0
    154    139    140    141   5     0.00000     0.00000     1.25520  0.0
    154    139    140    156   5     0.00000     0.00000     1.25520  0.0
    154    139    140    157   5     0.00000     0.00000     1.25520  0.0
    155    139    140    141   5     0.00000     0.00000     1.25520  0.0
    155    139    140    156   5     0.00000     0.00000     1.25520  0.0
    155    139    140    157   5     0.00000     0.00000     1.25520  0.0
    139    140    141    142   5     4.74884    -0.63178     1.67360  0.0
    139    140    141    158   5     0.00000     0.00000     1.25520  0.0
    139    140    141    159   5     0.00000     0.00000     1.25520  0.0
    156    140    141    142   5     0.00000     0.00000     1.25520  0.0
    156    140    141    158   5     0.00000     0.00000     1.25520  0.0
    156    140    141    159   5     0.00000     0.00000     1.25520  0.0
    157    140    141    142   5     0.00000     0.00000     1.25520  0.0
    157    140    141    158   5     0.00000     0.00000     1.25520  0.0
    157    140    141    159   5     0.00000     0.00000     1.25520  0.0
    140    141    142    143   5     4.74884    -0.63178     1.67360  0.0
    140    141    142    160   5     0.00000     0.00000     1.25520  0.0
    140    141    142    161   5     0.00000     0.00000     1.25520  0.0
    158    141    142    143   5     0.00000     0.00000     1.25520  0.0
    158    141    142    160   5     0.00000     0.00000     1.25520  0.0
    158    141    142    161   5     0.00000     0.00000     1.25520  0.0
    159    141    142    143   5     0.00000     0.00000     1.25520  0.0
    159    141    142    160   5     0.00000     0.00000     1.25520  0.0
    159    141    142    161   5     0.00000     0.00000     1.25520  0.0
    141    142    143    144   5     4.74884    -0.63178     1.67360  0.0
    141    142    143    162   5     0.00000     0.00000     1.25520  0.0
    141    142    143    163   5     0.00000     0.00000     1.25520  0.0
    160    142    143    144   5     0.00000     0.00000     1.25520  0.0
    160    142    143    162   5     0.00000     0.00000     1.25520  0.0
    160    142    143    163   5     0.00000     0.00000     1.25520  0.0
    161    142    143    144   5     0.00000     0.00000     1.25520  0.0
    161    142    143    162   5     0.00000     0.00000     1.25520  0.0
    161    142    143    163   5     0.00000     0.00000     1.25520  0.0
    142    143    144    164   5     0.00000     0.00000     1.25520  0.0
    142    143    144    165   5     0.00000     0.00000     1.25520  0.0
    142    143    144    166   5     0.00000     0.00000     1.25520  0.0
    162    143    144    164   5     0.00000     0.00000     1.25520  0.0
    162    143    144    165   5     0.00000     0.00000     1.25520  0.0
    162    143    144    166   5     0.00000     0.00000     1.25520  0.0
    163    143    144    164   5     0.00000     0.00000     1.25520  0.0
    163    143    144    165   5     0.00000     0.00000     1.25520  0.0
    163    143    144    166   5     0.00000     0.00000     1.25520  0.0
    135    167    168    169   5     4.74884    -0.63178     1.67360  0.0
    135    167    168    180   5     0.00000     0.00000     1.25520  0.0
    135    167    168    200   5     4.74884    -0.63178     1.67360  0.0
    178    167    168    169   5     0.00000     0.00000     1.25520  0.0
    178    167    168    180   5     0.00000     0.00000     1.25520  0.0
    178    167    168    200   5     0.00000     0.00000     1.25520  0.0
    179    167    168    169   5     0.00000     0.00000     1.25520  0.0
    179    167    168    180   5     0.00000     0.00000     1.25520  0.0
    179    167    168    200   5     0.00000     0.00000     1.25520  0.0
    167    168    169    170   5     4.74884    -0.63178     1.67360  0.0
    167    168    169    181   5     0.00000     0.00000     1.25520  0.0
    167    168    169    182   5     0.00000     0.00000     1.25520  0.0
    180    168    169    170   5     0.00000     0.00000     1.25520  0.0
    180    168    169    181   5     0.00000     0.00000     1.25520  0.0
    180    168    169    182   5     0.00000     0.00000     1.25520  0.0
    200    168    169    170   5     4.74884    -0.63178     1.67360  0.0
    200    168    169    181   5     0.00000     0.00000     1.25520  0.0
    200    168    169    182   5     0.00000     0.00000     1.25520  0.0
    167    168    200    201   5     4.74884    -0.63178     1.67360  0.0
    167    168    200    211   5     0.00000     0.00000     1.25520  0.0
    167    168    200    212   5     0.00000     0.00000     1.25520  0.0
    169    168    200    201   5     4.74884    -0.63178     1.67360  0.0
    169    168    200    211   5     0.00000     0.00000     1.25520  0.0
    169    168    200    212   5     0.00000     0.00000     1.25520  0.0
    180    168    200    201   5     0.00000     0.00000     1.25520  0.0
    180    168    200    211   5     0.00000     0.00000     1.25520  0.0
    180    168    200    212   5     0.00000     0.00000     1.25520  0.0
    168    169    170    171   5     4.74884    -0.63178     1.67360  0.0
    168    169    170    183   5     0.00000     0.00000     1.25520  0.0
    168    169    170    184   5     0.00000     0.00000     1.25520  0.0
    181    169    170    171   5     0.00000     0.00000     1.25520  0.0
    181    169    170    183   5     0.00000     0.00000     1.25520  0.0
    181    169    170    184   5     0.00000     0.00000     1.25520  0.0
    182    169    170    171   5     0.00000     0.00000     1.25520  0.0
    182    169    170    183   5     0.00000     0.00000     1.25520  0.0
    182    169    170    184   5     0.00000     0.00000     1.25520  0.0
    169    170    171    172   5     4.74884    -0.63178     1.67360  0.0
    169    170    171    185   5     0.00000     0.00000     1.25520  0.0
    169    170    171    186   5     0.00000     0.00000     1.25520  0.0
    183    170    171    172   5     0.00000     0.00000     1.25520  0.0
    183    170    171    185   5     0.00000     0.00000     1.25520  0.0
    183    170    171    186   5     0.00000     0.00000     1.25520  0.0
    184    170    171    172   5     0.00000     0.00000     1.25520  0.0
    184    170    171    185   5     0.00000     0.00000     1.25520  0.0
    184    170    171    186   5     0.00000     0.00000     1.25520  0.0
    170    171    172    173   5     4.74884    -0.63178     1.67360  0.0
    170    171    172    187   5     0.00000     0.00000     1.25520  0.0
    170    171    172    188   5     0.00000     0.00000     1.25520  0.0
    185    171    172    173   5     0.00000     0.00000     1.25520  0.0
    185    171    172    187   5     0.00000     0.00000     1.25520  0.0
    185    171    172    188   5     0.00000     0.00000     1.25520  0.0
    186    171    172    173   5     0.00000     0.00000     1.25520  0.0
    186    171    172    187   5     0.00000     0.00000     1.25520  0.0
    186    171    172    188   5     0.00000     0.00000     1.25520  0.0
    171    172    173    174   5     4.74884    -0.63178     1.67360  0.0
    171    172    173    189   5     0.00000     0.00000     1.25520  0.0
    171    172    173    190   5     0.00000     0.00000     1.25520  0.0
    187    172    173    174   5     0.00000     0.00000     1.25520  0.0
    187    172    173    189   5     0.00000     0.00000     1.25520  0.0
    187    172    173    190   5     0.00000     0.00000     1.25520  0.0
    188    172    173    174   5     0.00000     0.00000     1.25520  0.0
    188    172    173    189   5     0.00000     0.00000     1.25520  0.0
    188    172    173    190   5     0.00000     0.00000     1.25520  0.0
    172    173    174    175   5     4.74884    -0.63178     1.67360  0.0
    172    173    174    191   5     0.00000     0.00000     1.25520  0.0
    172    173    174    192   5     0.00000     0.00000     1.25520  0.0
    189    173    174    175   5     0.00000     0.00000     1.25520  0.0
    189    173    174    191   5     0.00000     0.00000     1.25520  0.0
    189    173    174    192   5     0.00000     0.00000     1.25520  0.0
    190    173    174    175   5     0.00000     0.00000     1.25520  0.0
    190    173    174    191   5     0.00000     0.00000     1.25520  0.0
    190    173    174    192   5     0.00000     0.00000     1.25520  0.0
    173    174    175    176   5     4.74884    -0.63178     1.67360  0.0
    173    174    175    193   5     0.00000     0.00000     1.25520  0.0
    173    174    175    194   5     0.00000     0.00000     1.25520  0.0
    191    174    175    176   5     0.00000     0.00000     1.25520  0.0
    191    174    175    193   5     0.00000     0.00000     1.25520  0.0
    191    174    175    194   5     0.00000     0.00000     1.25520  0.0
    192    174    175    176   5     0.00000     0.00000     1.25520  0.0
    192    174    175    193   5     0.00000     0.00000     1.25520  0.0
    192    174    175    194   5     0.00000     0.00000     1.25520  0.0
    174    175    176    177   5     4.74884    -0.63178     1.67360  0.0
    174    175    176    195   5     0.00000     0.00000     1.25520  0.0
    174    175    176    196   5     0.00000     0.00000     1.25520  0.0
    193    175    176    177   5     0.00000     0.00000     1.25520  0.0
    193    175    176    195   5     0.00000     0.00000     1.25520  0.0
    193    175    176    196   5     0.00000     0.00000     1.25520  0.0
    194    175    176    177   5     0.00000     0.00000     1.25520  0.0
    194    175    176    195   5     0.00000     0.00000     1.25520  0.0
    194    175    176    196   5     0.00000     0.00000     1.25520  0.0
    175    176    177    197   5     0.00000     0.00000     1.25520  0.0
    175    176    177    198   5     0.00000     0.00000     1.25520  0.0
    175    176    177    199   5     0.00000     0.00000     1.25520  0.0
    195    176    177    197   5     0.00000     0.00000     1.25520  0.0
    195    176    177    198   5     0.00000     0.00000     1.25520  0.0
    195    176    177    199   5     0.00000     0.00000     1.25520  0.0
    196    176    177    197   5     0.00000     0.00000     1.25520  0.0
    196    176    177    198   5     0.00000     0.00000     1.25520  0.0
    196    176    177    199   5     0.00000     0.00000     1.25520  0.0
    168    200    201    202   5     4.74884    -0.63178     1.67360  0.0
    168    200    201    213   5     0.00000     0.00000     1.25520  0.0
    168    200    201    233   5     4.74884    -0.63178     1.67360  0.0
    211    200    201    202   5     0.00000     0.00000     1.25520  0.0
    211    200    201    213   5     0.00000     0.00000     1.25520  0.0
    211    200    201    233   5     0.00000     0.00000     1.25520  0.0
    212    200    201    202   5     0.00000     0.00000     1.25520  0.0
    212    200    201    213   5     0.00000     0.00000     1.25520  0.0
    212    200    201    233   5     0.00000     0.00000     1.25520  0.0
    200    201    202    203   5     4.74884    -0.63178     1.67360  0.0
    200    201    202    214   5     0.00000     0.00000     1.25520  0.0
    200    201    202    215   5     0.00000     0.00000     1.25520  0.0
    213    201    202    203   5     0.00000     0.00000     1.25520  0.0
    213    201    202    214   5     0.00000     0.00000     1.25520  0.0
    213    201    202    215   5     0.00000     0.00000     1.25520  0.0
    233    201    202    203   5     4.74884    -0.63178     1.67360  0.0
    233    201    202    214   5     0.00000     0.00000     1.25520  0.0
    233    201    202    215   5     0.00000     0.00000     1.25520  0.0
    200    201    233    234   5     4.74884    -0.63178     1.67360  0.0
    200    201    233    244   5     0.00000     0.00000     1.25520  0.0
    200    201    233    245   5     0.00000     0.00000     1.25520  0.0
    202    201    233    234   5     4.74884    -0.63178     1.67360  0.0
    202    201    233    244   5     0.00000     0.00000     1.25520  0.0
    202    201    233    245   5     0.00000     0.00000     1.25520  0.0
    213    201    233    234   5     0.00000     0.00000     1.25520  0.0
    213    201    233    244   5     0.00000     0.00000     1.25520  0.0
    213    201    233    245   5     0.00000     0.00000     1.25520  0.0
    201    202    203    204   5     4.74884    -0.63178     1.67360  0.0
    201    202    203    216   5     0.00000     0.00000     1.25520  0.0
    201    202    203    217   5     0.00000     0.00000     1.25520  0.0
    214    202    203    204   5     0.00000     0.00000     1.25520  0.0
    214    202    203    216   5     0.00000     0.00000     1.25520  0.0
    214    202    203    217   5     0.00000     0.00000     1.25520  0.0
    215    202    203    204   5     0.00000     0.00000     1.25520  0.0
    215    202    203    216   5     0.00000     0.00000     1.25520  0.0
    215    202    203    217   5     0.00000     0.00000     1.25520  0.0
    202    203    204    205   5     4.74884    -0.63178     1.67360  0.0
    202    203    204    218   5     0.00000     0.00000     1.25520  0.0
    202    203    204    219   5     0.00000     0.00000     1.25520  0.0
    216    203    204    205   5     0.00000     0.00000     1.25520  0.0
    216    203    204    218   5     0.00000     0.00000     1.25520  0.0
    216    203    204    219   5     0.00000     0.00000     1.25520  0.0
    217    203    204    205   5     0.00000     0.00000     1.25520  0.0
    217    203    204    218   5     0.00000     0.00000     1.25520  0.0
    217    203    204    219   5     0.00000     0.00000     1.25520  0.0
    203    204    205    206   5     4.74884    -0.63178     1.67360  0.0
    203    204    205    220   5     0.00000     0.00000     1.25520  0.0
    203    204    205    221   5     0.00000     0.00000     1.25520  0.0
    218    204    205    206   5     0.00000     0.00000     1.25520  0.0
    218    204    205    220   5     0.00000     0.00000     1.25520  0.0
    218    204    205    221   5     0.00000     0.00000     1.25520  0.0
    219    204    205    206   5     0.00000     0.00000     1.25520  0.0
    219    204    205    220   5     0.00000     0.00000     1.25520  0.0
    219    204    205    221   5     0.00000     0.00000     1.25520  0.0
    204    205    206    207   5     4.74884    -0.63178     1.67360  0.0
    204    205    206    222   5     0.00000     0.00000     1.25520  0.0
    204    205    206    223   5     0.00000     0.00000     1.25520  0.0
    220    205    206    207   5     0.00000     0.00000     1.25520  0.0
    220    205    206    222   5     0.00000     0.00000     1.25520  0.0
    220    205    206    223   5     0.00000     0.00000     1.25520  0.0
    221    205    206    207   5     0.00000     0.00000     1.25520  0.0
    221    205    206    222   5     0.00000     0.00000     1.25520  0.0
    221    205    206    223   5     0.00000     0.00000     1.25520  0.0
    205    206    207    208   5     4.74884    -0.63178     1.67360  0.0
    205    206    207    224   5     0.00000     0.00000     1.25520  0.0
    205    206    207    225   5     0.00000     0.00000     1.25520  0.0
    222    206    207    208   5     0.00000     0.00000     1.25520  0.0
    222    206    207    224   5     0.00000     0.00000     1.25520  0.0
    222    206    207    225   5     0.00000     0.00000     1.25520  0.0
    223    206    207    208   5     0.00000     0.00000     1.25520  0.0
    223    206    207    224   5     0.00000     0.00000     1.25520  0.0
    223    206    207    225   5     0.00000     0.00000     1.25520  0.0
    206    207    208    209   5     4.74884    -0.63178     1.67360  0.0
    206    207    208    226   5     0.00000     0.00000     1.25520  0.0
    206    207    208    227   5     0.00000     0.00000     1.25520  0.0
    224    207    208    209   5     0.00000     0.00000     1.25520  0.0
    224    207    208    226   5     0.00000     0.00000     1.25520  0.0
    224    207    208    227   5     0.00000     0.00000     1.25520  0.0
    225    207    208    209   5     0.00000     0.00000     1.25520  0.0
    225    207    208    226   5     0.00000     0.00000     1.25520  0.0
    225    207    208    227   5     0.00000     0.00000     1.25520  0.0
    207    208    209    210   5     4.74884    -0.63178     1.67360  0.0
    207    208    209    228   5     0.00000     0.00000     1.25520  0.0
    207    208    209    229   5     0.00000     0.00000     1.25520  0.0
    226    208    209    210   5     0.00000     0.00000     1.25520  0.0
    226    208    209    228   5     0.00000     0.00000     1.25520  0.0
    226    208    209    229   5     0.00000     0.00000     1.25520  0.0
    227    208    209    210   5     0.00000     0.00000     1.25520  0.0
    227    208    209    228   5     0.00000     0.00000     1.25520  0.0
    227    208    209    229   5     0.00000     0.00000     1.25520  0.0
    208    209    210    230   5     0.00000     0.00000     1.25520  0.0
    208    209    210    231   5     0.00000     0.00000     1.25520  0.0
    208    209    210    232   5     0.00000     0.00000     1.25520  0.0
    228    209    210    230   5     0.00000     0.00000     1.25520  0.0
    228    209    210    231   5     0.00000     0.00000     1.25520  0.0
    228    209    210    232   5     0.00000     0.00000     1.25520  0.0
    229    209    210    230   5     0.00000     0.00000     1.25520  0.0
    229    209    210    231   5     0.00000     0.00000     1.25520  0.0
    229    209    210    232   5     0.00000     0.00000     1.25520  0.0
    201    233    234    235   5     4.74884    -0.63178     1.67360  0.0
    201    233    234    246   5     0.00000     0.00000     1.25520  0.0
    201    233    234    266   5     4.74884    -0.63178     1.67360  0.0
    244    233    234    235   5     0.00000     0.00000     1.25520  0.0
    244    233    234    246   5     0.00000     0.00000     1.25520  0.0
    244    233    234    266   5     0.00000     0.00000     1.25520  0.0
    245    233    234    235   5     0.00000     0.00000     1.25520  0.0
    245    233    234    246   5     0.00000     0.00000     1.25520  0.0
    245    233    234    266   5     0.00000     0.00000     1.25520  0.0
    233    234    235    236   5     4.74884    -0.63178     1.67360  0.0
    233    234    235    247   5     0.00000     0.00000     1.25520  0.0
    233    234    235    248   5     0.00000     0.00000     1.25520  0.0
    246    234    235    236   5     0.00000     0.00000     1.25520  0.0
    246    234    235    247   5     0.00000     0.00000     1.25520  0.0
    246    234    235    248   5     0.00000     0.00000     1.25520  0.0
    266    234    235    236   5     4.74884    -0.63178     1.67360  0.0
    266    234    235    247   5     0.00000     0.00000     1.25520  0.0
    266    234    235    248   5     0.00000     0.00000     1.25520  0.0
    233    234    266    267   5     4.74884    -0.63178     1.67360  0.0
    233    234    266    277   5     0.00000     0.00000     1.25520  0.0
    233    234    266    278   5     0.00000     0.00000     1.25520  0.0
    235    234    266    267   5     4.74884    -0.63178     1.67360  0.0
    235    234    266    277   5     0.00000     0.00000     1.25520  0.0
    235    234    266    278   5     0.00000     0.00000     1.25520  0.0
    246    234    266    267   5     0.00000     0.00000     1.25520  0.0
    246    234    266    277   5     0.00000     0.00000     1.25520  0.0
    246    234    266    278   5     0.00000     0.00000     1.25520  0.0
    234    235    236    237   5     4.74884    -0.63178     1.67360  0.0
    234    235    236    249   5     0.00000     0.00000     1.25520  0.0
    234    235    236    250   5     0.00000     0.00000     1.25520  0.0
    247    235    236    237   5     0.00000     0.00000     1.25520  0.0
    247    235    236    249   5     0.00000     0.00000     1.25520  0.0
    247    235    236    250   5     0.00000     0.00000     1.25520  0.0
    248    235    236    237   5     0.00000     0.00000     1.25520  0.0
    248    235    236    249   5     0.00000     0.00000     1.25520  0.0
    248    235    236    250   5     0.00000     0.00000     1.25520  0.0
    235    236    237    238   5     4.74884    -0.63178     1.67360  0.0
    235    236    237    251   5     0.00000     0.00000     1.25520  0.0
    235    236    237    252   5     0.00000     0.00000     1.25520  0.0
    249    236    237    238   5     0.00000     0.00000     1.25520  0.0
    249    236    237    251   5     0.00000     0.00000     1.25520  0.0
    249    236    237    252   5     0.00000     0.00000     1.25520  0.0
    250    236    237    238   5     0.00000     0.00000     1.25520  0.0
    250    236    237    251   5     0.00000     0.00000     1.25520  0.0
    250    236    237    252   5     0.00000     0.00000     1.25520  0.0
    236    237    238    239   5     4.74884    -0.63178     1.67360  0.0
    236    237    238    253   5     0.00000     0.00000     1.25520  0.0
    236    237    238    254   5     0.00000     0.00000     1.25520  0.0
    251    237    238    239   5     0.00000     0.00000     1.25520  0.0
    251    237    238    253   5     0.00000     0.00000     1.25520  0.0
    251    237    238    254   5     0.00000     0.00000     1.25520  0.0
    252    237    238    239   5     0.00000     0.00000     1.25520  0.0
    252    237    238    253   5     0.00000     0.00000     1.25520  0.0
    252    237    238    254   5     0.00000     0.00000     1.25520  0.0
    237    238    239    240   5     4.74884    -0.63178     1.67360  0.0
    237    238    239    255   5     0.00000     0.00000     1.25520  0.0
    237    238    239    256   5     0.00000     0.00000     1.25520  0.0
    253    238    239    240   5     0.00000     0.00000     1.25520  0.0
    253    238    239    255   5     0.00000     0.00000     1.25520  0.0
    253    238    239    256   5     0.00000     0.00000     1.25520  0.0
    254    238    239    240   5     0.00000     0.00000     1.25520  0.0
    254    238    239    255   5     0.00000     0.00000     1.25520  0.0
    254    238    239    256   5     0.00000     0.00000     1.25520  0.0
    238    239    240    241   5     4.74884    -0.63178     1.67360  0.0
    238    239    240    257   5     0.00000     0.00000     1.25520  0.0
    238    239    240    258   5     0.00000     0.00000     1.25520  0.0
    255    239    240    241   5     0.00000     0.00000     1.25520  0.0
    255    239    240    257   5     0.00000     0.00000     1.25520  0.0
    255    239    240    258   5     0.00000     0.00000     1.25520  0.0
    256    239    240    241   5     0.00000     0.00000     1.25520  0.0
    256    239    240    257   5     0.00000     0.00000     1.25520  0.0
    256    239    240    258   5     0.00000     0.00000     1.25520  0.0
    239    240    241    242   5     4.74884    -0.63178     1.67360  0.0
    239    240    241    259   5     0.00000     0.00000     1.25520  0.0
    239    240    241    260   5     0.00000     0.00000     1.25520  0.0
    257    240    241    242   5     0.00000     0.00000     1.25520  0.0
    257    240    241    259   5     0.00000     0.00000     1.25520  0.0
    257    240    241    260   5     0.00000     0.00000     1.25520  0.0
    258    240    241    242   5     0.00000     0.00000     1.25520  0.0
    258    240    241    259   5     0.00000     0.00000     1.25520  0.0
    258    240    241    260   5     0.00000     0.00000     1.25520  0.0
    240    241    242    243   5     4.74884    -0.63178     1.67360  0.0
    240    241    242    261   5     0.00000     0.00000     1.25520  0.0
    240    241    242    262   5     0.00000     0.00000     1.25520  0.0
    259    241    242    243   5     0.00000     0.00000     1.25520  0.0
    259    241    242    261   5     0.00000     0.00000     1.25520  0.0
    259    241    242    262   5     0.00000     0.00000     1.25520  0.0
    260    241    242    243   5     0.00000     0.00000     1.25520  0.0
    260    241    242    261   5     0.00000     0.00000     1.25520  0.0
    260    241    242    262   5     0.00000     0.00000     1.25520  0.0
    241    242    243    263   5     0.00000     0.00000     1.25520  0.0
    241    242    243    264   5     0.00000     0.00000     1.25520  0.0
    241    242    243    265   5     0.00000     0.00000     1.25520  0.0
    261    242    243    263   5     0.00000     0.00000     1.25520  0.0
    261    242    243    264   5     0.00000     0.00000     1.25520  0.0
    261    242    243    265   5     0.00000     0.00000     1.25520  0.0
    262    242    243    263   5     0.00000     0.00000     1.25520  0.0
    262    242    243    264   5     0.00000     0.00000     1.25520  0.0
    262    242    243    265   5     0.00000     0.00000     1.25520  0.0
    234    266    267    268   5     4.74884    -0.63178     1.67360  0.0
    234    266    267    279   5     0.00000     0.00000     1.25520  0.0
    234    266    267    299   5     4.74884    -0.63178     1.67360  0.0
    277    266    267    268   5     0.00000     0.00000     1.25520  0.0
    277    266    267    279   5     0.00000     0.00000     1.25520  0.0
    277    266    267    299   5     0.00000     0.00000     1.25520  0.0
    278    266    267    268   5     0.00000     0.00000     1.25520  0.0
    278    266    267    279   5     0.00000     0.00000     1.25520  0.0
    278    266    267    299   5     0.00000     0.00000     1.25520  0.0
    266    267    268    269   5     4.74884    -0.63178     1.67360  0.0
    266    267    268    280   5     0.00000     0.00000     1.25520  0.0
    266    267    268    281   5     0.00000     0.00000     1.25520  0.0
    279    267    268    269   5     0.00000     0.00000     1.25520  0.0
    279    267    268    280   5     0.00000     0.00000     1.25520  0.0
    279    267    268    281   5     0.00000     0.00000     1.25520  0.0
    299    267    268    269   5     4.74884    -0.63178     1.67360  0.0
    299    267    268    280   5     0.00000     0.00000     1.25520  0.0
    299    267    268    281   5     0.00000     0.00000     1.25520  0.0
    266    267    299    300   5     4.74884    -0.63178     1.67360  0.0
    266    267    299    310   5     0.00000     0.00000     1.25520  0.0
    266    267    299    311   5     0.00000     0.00000     1.25520  0.0
    268    267    299    300   5     4.74884    -0.63178     1.67360  0.0
    268    267    299    310   5     0.00000     0.00000     1.25520  0.0
    268    267    299    311   5     0.00000     0.00000     1.25520  0.0
    279    267    299    300   5     0.00000     0.00000     1.25520  0.0
    279    267    299    310   5     0.00000     0.00000     1.25520  0.0
    279    267    299    311   5     0.00000     0.00000     1.25520  0.0
    267    268    269    270   5     4.74884    -0.63178     1.67360  0.0
    267    268    269    282   5     0.00000     0.00000     1.25520  0.0
    267    268    269    283   5     0.00000     0.00000     1.25520  0.0
    280    268    269    270   5     0.00000     0.00000     1.25520  0.0
    280    268    269    282   5     0.00000     0.00000     1.25520  0.0
    280    268    269    283   5     0.00000     0.00000     1.25520  0.0
    281    268    269    270   5     0.00000     0.00000     1.25520  0.0
    281    268    269    282   5     0.00000     0.00000     1.25520  0.0
    281    268    269    283   5     0.00000     0.00000     1.25520  0.0
    268    269    270    271   5     4.74884    -0.63178     1.67360  0.0
    268    269    270    284   5     0.00000     0.00000     1.25520  0.0
    268    269    270    285   5     0.00000     0.00000     1.25520  0.0
    282    269    270    271   5     0.00000     0.00000     1.25520  0.0
    282    269    270    284   5     0.00000     0.00000     1.25520  0.0
    282    269    270    285   5     0.00000     0.00000     1.25520  0.0
    283    269    270    271   5     0.00000     0.00000     1.25520  0.0
    283    269    270    284   5     0.00000     0.00000     1.25520  0.0
    283    269    270    285   5     0.00000     0.00000     1.25520  0.0
    269    270    271    272   5     4.74884    -0.63178     1.67360  0.0
    269    270    271    286   5     0.00000     0.00000     1.25520  0.0
    269    270    271    287   5     0.00000     0.00000     1.25520  0.0
    284    270    271    272   5     0.00000     0.00000     1.25520  0.0
    284    270    271    286   5     0.00000     0.00000     1.25520  0.0
    284    270    271    287   5     0.00000     0.00000     1.25520  0.0
    285    270    271    272   5     0.00000     0.00000     1.25520  0.0
    285    270    271    286   5     0.00000     0.00000     1.25520  0.0
    285    270    271    287   5     0.00000     0.00000     1.25520  0.0
    270    271    272    273   5     4.74884    -0.63178     1.67360  0.0
    270    271    272    288   5     0.00000     0.00000     1.25520  0.0
    270    271    272    289   5     0.00000     0.00000     1.25520  0.0
    286    271    272    273   5     0.00000     0.00000     1.25520  0.0
    286    271    272    288   5     0.00000     0.00000     1.25520  0.0
    286    271    272    289   5     0.00000     0.00000     1.25520  0.0
    287    271    272    273   5     0.00000     0.00000     1.25520  0.0
    287    271    272    288   5     0.00000     0.00000     1.25520  0.0
    287    271    272    289   5     0.00000     0.00000     1.25520  0.0
    271    272    273    274   5     4.74884    -0.63178     1.67360  0.0
    271    272    273    290   5     0.00000     0.00000     1.25520  0.0
    271    272    273    291   5     0.00000     0.00000     1.25520  0.0
    288    272    273    274   5     0.00000     0.00000     1.25520  0.0
    288    272    273    290   5     0.00000     0.00000     1.25520  0.0
    288    272    273    291   5     0.00000     0.00000     1.25520  0.0
    289    272    273    274   5     0.00000     0.00000     1.25520  0.0
    289    272    273    290   5     0.00000     0.00000     1.25520  0.0
    289    272    273    291   5     0.00000     0.00000     1.25520  0.0
    272    273    274    275   5     4.74884    -0.63178     1.67360  0.0
    272    273    274    292   5     0.00000     0.00000     1.25520  0.0
    272    273    274    293   5     0.00000     0.00000     1.25520  0.0
    290    273    274    275   5     0.00000     0.00000     1.25520  0.0
    290    273    274    292   5     0.00000     0.00000     1.25520  0.0
    290    273    274    293   5     0.00000     0.00000     1.25520  0.0
    291    273    274    275   5     0.00000     0.00000     1.25520  0.0
    291    273    274    292   5     0.00000     0.00000     1.25520  0.0
    291    273    274    293   5     0.00000     0.00000     1.25520  0.0
    273    274    275    276   5     4.74884    -0.63178     1.67360  0.0
    273    274    275    294   5     0.00000     0.00000     1.25520  0.0
    273    274    275    295   5     0.00000     0.00000     1.25520  0.0
    292    274    275    276   5     0.00000     0.00000     1.25520  0.0
    292    274    275    294   5     0.00000     0.00000     1.25520  0.0
    292    274    275    295   5     0.00000     0.00000     1.25520  0.0
    293    274    275    276   5     0.00000     0.00000     1.25520  0.0
    293    274    275    294   5     0.00000     0.00000     1.25520  0.0
    293    274    275    295   5     0.00000     0.00000     1.25520  0.0
    274    275    276    296   5     0.00000     0.00000     1.25520  0.0
    274    275    276    297   5     0.00000     0.00000     1.25520  0.0
    274    275    276    298   5     0.00000     0.00000     1.25520  0.0
    294    275    276    296   5     0.00000     0.00000     1.25520  0.0
    294    275    276    297   5     0.00000     0.00000     1.25520  0.0
    294    275    276    298   5     0.00000     0.00000     1.25520  0.0
    295    275    276    296   5     0.00000     0.00000     1.25520  0.0
    295    275    276    297   5     0.00000     0.00000     1.25520  0.0
    295    275    276    298   5     0.00000     0.00000     1.25520  0.0
    267    299    300    301   5     4.74884    -0.63178     1.67360  0.0
    267    299    300    312   5     0.00000     0.00000     1.25520  0.0
    267    299    300    332   5     4.74884    -0.63178     1.67360  0.0
    310    299    300    301   5     0.00000     0.00000     1.25520  0.0
    310    299    300    312   5     0.00000     0.00000     1.25520  0.0
    310    299    300    332   5     0.00000     0.00000     1.25520  0.0
    311    299    300    301   5     0.00000     0.00000     1.25520  0.0
    311    299    300    312   5     0.00000     0.00000     1.25520  0.0
    311    299    300    332   5     0.00000     0.00000     1.25520  0.0
    299    300    301    302   5     4.74884    -0.63178     1.67360  0.0
    299    300    301    313   5     0.00000     0.00000     1.25520  0.0
    299    300    301    314   5     0.00000     0.00000     1.25520  0.0
    312    300    301    302   5     0.00000     0.00000     1.25520  0.0
    312    300    301    313   5     0.00000     0.00000     1.25520  0.0
    312    300    301    314   5     0.00000     0.00000     1.25520  0.0
    332    300    301    302   5     4.74884    -0.63178     1.67360  0.0
    332    300    301    313   5     0.00000     0.00000     1.25520  0.0
    332    300    301    314   5     0.00000     0.00000     1.25520  0.0
    299    300    332    333   5     4.74884    -0.63178     1.67360  0.0
    299    300    332    343   5     0.00000     0.00000     1.25520  0.0
    299    300    332    344   5     0.00000     0.00000     1.25520  0.0
    301    300    332    333   5     4.74884    -0.63178     1.67360  0.0
    301    300    332    343   5     0.00000     0.00000     1.25520  0.0
    301    300    332    344   5     0.00000     0.00000     1.25520  0.0
    312    300    332    333   5     0.00000     0.00000     1.25520  0.0
    312    300    332    343   5     0.00000     0.00000     1.25520  0.0
    312    300    332    344   5     0.00000     0.00000     1.25520  0.0
    300    301    302    303   5     4.74884    -0.63178     1.67360  0.0
    300    301    302    315   5     0.00000     0.00000     1.25520  0.0
    300    301    302    316   5     0.00000     0.00000     1.25520  0.0
    313    301    302    303   5     0.00000     0.00000     1.25520  0.0
    313    301    302    315   5     0.00000     0.00000     1.25520  0.0
    313    301    302    316   5     0.00000     0.00000     1.25520  0.0
    314    301    302    303   5     0.00000     0.00000     1.25520  0.0
    314    301    302    315   5     0.00000     0.00000     1.25520  0.0
    314    301    302    316   5     0.00000     0.00000     1.25520  0.0
    301    302    303    304   5     4.74884    -0.63178     1.67360  0.0
    301    302    303    317   5     0.00000     0.00000     1.25520  0.0
    301    302    303    318   5     0.00000     0.00000     1.25520  0.0
    315    302    303    304   5     0.00000     0.00000     1.25520  0.0
    315    302    303    317   5     0.00000     0.00000     1.25520  0.0
    315    302    303    318   5     0.00000     0.00000     1.25520  0.0
    316    302    303    304   5     0.00000     0.00000     1.25520  0.0
    316    302    303    317   5     0.00000     0.00000     1.25520  0.0
    316    302    303    318   5     0.00000     0.00000     1.25520  0.0
    302    303    304    305   5     4.74884    -0.63178     1.67360  0.0
    302    303    304    319   5     0.00000     0.00000     1.25520  0.0
    302    303    304    320   5     0.00000     0.00000     1.25520  0.0
    317    303    304    305   5     0.00000     0.00000     1.25520  0.0
    317    303    304    319   5     0.00000     0.00000     1.25520  0.0
    317    303    304    320   5     0.00000     0.00000     1.25520  0.0
    318    303    304    305   5     0.00000     0.00000     1.25520  0.0
    318    303    304    319   5     0.00000     0.00000     1.25520  0.0
    318    303    304    320   5     0.00000     0.00000     1.25520  0.0
    303    304    305    306   5     4.74884    -0.63178     1.67360  0.0
    303    304    305    321   5     0.00000     0.00000     1.25520  0.0
    303    304    305    322   5     0.00000     0.00000     1.25520  0.0
    319    304    305    306   5     0.00000     0.00000     1.25520  0.0
    319    304    305    321   5     0.00000     0.00000     1.25520  0.0
    319    304    305    322   5     0.00000     0.00000     1.25520  0.0
    320    304    305    306   5     0.00000     0.00000     1.25520  0.0
    320    304    305    321   5     0.00000     0.00000     1.25520  0.0
    320    304    305    322   5     0.00000     0.00000     1.25520  0.0
    304    305    306    307   5     4.74884    -0.63178     1.67360  0.0
    304    305    306    323   5     0.00000     0.00000     1.25520  0.0
    304    305    306    324   5     0.00000     0.00000     1.25520  0.0
    321    305    306    307   5     0.00000     0.00000     1.25520  0.0
    321    305    306    323   5     0.00000     0.00000     1.25520  0.0
    321    305    306    324   5     0.00000     0.00000     1.25520  0.0
    322    305    306    307   5     0.00000     0.00000     1.25520  0.0
    322    305    306    323   5     0.00000     0.00000     1.25520  0.0
    322    305    306    324   5     0.00000     0.00000     1.25520  0.0
    305    306    307    308   5     4.74884    -0.63178     1.67360  0.0
    305    306    307    325   5     0.00000     0.00000     1.25520  0.0
    305    306    307    326   5     0.00000     0.00000     1.25520  0.0
    323    306    307    308   5     0.00000     0.00000     1.25520  0.0
    323    306    307    325   5     0.00000     0.00000     1.25520  0.0
    323    306    307    326   5     0.00000     0.00000     1.25520  0.0
    324    306    307    308   5     0.00000     0.00000     1.25520  0.0
    324    306    307    325   5     0.00000     0.00000     1.25520  0.0
    324    306    307    326   5     0.00000     0.00000     1.25520  0.0
    306    307    308    309   5     4.74884    -0.63178     1.67360  0.0
    306    307    308    327   5     0.00000     0.00000     1.25520  0.0
    306    307    308    328   5     0.00000     0.00000     1.25520  0.0
    325    307    308    309   5     0.00000     0.00000     1.25520  0.0
    325    307    308    327   5     0.00000     0.00000     1.25520  0.0
    325    307    308    328   5     0.00000     0.00000     1.25520  0.0
    326    307    308    309   5     0.00000     0.00000     1.25520  0.0
    326    307    308    327   5     0.00000     0.00000     1.25520  0.0
    326    307    308    328   5     0.00000     0.00000     1.25520  0.0
    307    308    309    329   5     0.00000     0.00000     1.25520  0.0
    307    308    309    330   5     0.00000     0.00000     1.25520  0.0
    307    308    309    331   5     0.00000     0.00000     1.25520  0.0
    327    308    309    329   5     0.00000     0.00000     1.25520  0.0
    327    308    309    330   5     0.00000     0.00000     1.25520  0.0
    327    308    309    331   5     0.00000     0.00000     1.25520  0.0
    328    308    309    329   5     0.00000     0.00000     1.25520  0.0
    328    308    309    330   5     0.00000     0.00000     1.25520  0.0
    328    308    309    331   5     0.00000     0.00000     1.25520  0.0
    300    332    333    334   5     4.74884    -0.63178     1.67360  0.0
    300    332    333    345   5     0.00000     0.00000     1.25520  0.0
    300    332    333    365   5     4.74884    -0.63178     1.67360  0.0
    343    332    333    334   5     0.00000     0.00000     1.25520  0.0
    343    332    333    345   5     0.00000     0.00000     1.25520  0.0
    343    332    333    365   5     0.00000     0.00000     1.25520  0.0
    344    332    333    334   5     0.00000     0.00000     1.25520  0.0
    344    332    333    345   5     0.00000     0.00000     1.25520  0.0
    344    332    333    365   5     0.00000     0.00000     1.25520  0.0
    332    333    334    335   5     4.74884    -0.63178     1.67360  0.0
    332    333    334    346   5     0.00000     0.00000     1.25520  0.0
    332    333    334    347   5     0.00000     0.00000     1.25520  0.0
    345    333    334    335   5     0.00000     0.00000     1.25520  0.0
    345    333    334    346   5     0.00000     0.00000     1.25520  0.0
    345    333    334    347   5     0.00000     0.00000     1.25520  0.0
    365    333    334    335   5     4.74884    -0.63178     1.67360  0.0
    365    333    334    346   5     0.00000     0.00000     1.25520  0.0
    365    333    334    347   5     0.00000     0.00000     1.25520  0.0
    332    333    365    366   5     4.74884    -0.63178     1.67360  0.0
    332    333    365    376   5     0.00000     0.00000     1.25520  0.0
    332    333    365    377   5     0.00000     0.00000     1.25520  0.0
    334    333    365    366   5     4.74884    -0.63178     1.67360  0.0
    334    333    365    376   5     0.00000     0.00000     1.25520  0.0
    334    333    365    377   5     0.00000     0.00000     1.25520  0.0
    345    333    365    366   5     0.00000     0.00000     1.25520  0.0
    345    333    365    376   5     0.00000     0.00000     1.25520  0.0
    345    333    365    377   5     0.00000     0.00000     1.25520  0.0
    333    334    335    336   5     4.74884    -0.63178     1.67360  0.0
    333    334    335    348   5     0.00000     0.00000     1.25520  0.0
    333    334    335    349   5     0.00000     0.00000     1.25520  0.0
    346    334    335    336   5     0.00000     0.00000     1.25520  0.0
    346    334    335    348   5     0.00000     0.00000     1.25520  0.0
    346    334    335    349   5     0.00000     0.00000     1.25520  0.0
    347    334    335    336   5     0.00000     0.00000     1.25520  0.0
    347    334    335    348   5     0.00000     0.00000     1.25520  0.0
    347    334    335    349   5     0.00000     0.00000     1.25520  0.0
    334    335    336    337   5     4.74884    -0.63178     1.67360  0.0
    334    335    336    350   5     0.00000     0.00000     1.25520  0.0
    334    335    336    351   5     0.00000     0.00000     1.25520  0.0
    348    335    336    337   5     0.00000     0.00000     1.25520  0.0
    348    335    336    350   5     0.00000     0.00000     1.25520  0.0
    348    335    336    351   5     0.00000     0.00000     1.25520  0.0
    349    335    336    337   5     0.00000     0.00000     1.25520  0.0
    349    335    336    350   5     0.00000     0.00000     1.25520  0.0
    349    335    336    351   5     0.00000     0.00000     1.25520  0.0
    335    336    337    338   5     4.74884    -0.63178     1.67360  0.0
    335    336    337    352   5     0.00000     0.00000     1.25520  0.0
    335    336    337    353   5     0.00000     0.00000     1.25520  0.0
    350    336    337    338   5     0.00000     0.00000     1.25520  0.0
    350    336    337    352   5     0.00000     0.00000     1.25520  0.0
    350    336    337    353   5     0.00000     0.00000     1.25520  0.0
    351    336    337    338   5     0.00000     0.00000     1.25520  0.0
    351    336    337    352   5     0.00000     0.00000     1.25520  0.0
    351    336    337    353   5     0.00000     0.00000     1.25520  0.0
    336    337    338    339   5     4.74884    -0.63178     1.67360  0.0
    336    337    338    354   5     0.00000     0.00000     1.25520  0.0
    336    337    338    355   5     0.00000     0.00000     1.25520  0.0
    352    337    338    339   5     0.00000     0.00000     1.25520  0.0
    352    337    338    354   5     0.00000     0.00000     1.25520  0.0
    352    337    338    355   5     0.00000     0.00000     1.25520  0.0
    353    337    338    339   5     0.00000     0.00000     1.25520  0.0
    353    337    338    354   5     0.00000     0.00000     1.25520  0.0
    353    337    338    355   5     0.00000     0.00000     1.25520  0.0
    337    338    339    340   5     4.74884    -0.63178     1.67360  0.0
    337    338    339    356   5     0.00000     0.00000     1.25520  0.0
    337    338    339    357   5     0.00000     0.00000     1.25520  0.0
    354    338    339    340   5     0.00000     0.00000     1.25520  0.0
    354    338    339    356   5     0.00000     0.00000     1.25520  0.0
    354    338    339    357   5     0.00000     0.00000     1.25520  0.0
    355    338    339    340   5     0.00000     0.00000     1.25520  0.0
    355    338    339    356   5     0.00000     0.00000     1.25520  0.0
    355    338    339    357   5     0.00000     0.00000     1.25520  0.0
    338    339    340    341   5     4.74884    -0.63178     1.67360  0.0
    338    339    340    358   5     0.00000     0.00000     1.25520  0.0
    338    339    340    359   5     0.00000     0.00000     1.25520  0.0
    356    339    340    341   5     0.00000     0.00000     1.25520  0.0
    356    339    340    358   5     0.00000     0.00000     1.25520  0.0
    356    339    340    359   5     0.00000     0.00000     1.25520  0.0
    357    339    340    341   5     0.00000     0.00000     1.25520  0.0
    357    339    340    358   5     0.00000     0.00000     1.25520  0.0
    357    339    340    359   5     0.00000     0.00000     1.25520  0.0
    339    340    341    342   5     4.74884    -0.63178     1.67360  0.0
    339    340    341    360   5     0.00000     0.00000     1.25520  0.0
    339    340    341    361   5     0.00000     0.00000     1.25520  0.0
    358    340    341    342   5     0.00000     0.00000     1.25520  0.0
    358    340    341    360   5     0.00000     0.00000     1.25520  0.0
    358    340    341    361   5     0.00000     0.00000     1.25520  0.0
    359    340    341    342   5     0.00000     0.00000     1.25520  0.0
    359    340    341    360   5     0.00000     0.00000     1.25520  0.0
    359    340    341    361   5     0.00000     0.00000     1.25520  0.0
    340    341    342    362   5     0.00000     0.00000     1.25520  0.0
    340    341    342    363   5     0.00000     0.00000     1.25520  0.0
    340    341    342    364   5     0.00000     0.00000     1.25520  0.0
    360    341    342    362   5     0.00000     0.00000     1.25520  0.0
    360    341    342    363   5     0.00000     0.00000     1.25520  0.0
    360    341    342    364   5     0.00000     0.00000     1.25520  0.0
    361    341    342    362   5     0.00000     0.00000     1.25520  0.0
    361    341    342    363   5     0.00000     0.00000     1.25520  0.0
    361    341    342    364   5     0.00000     0.00000     1.25520  0.0
    333    365    366    367   5     4.74884    -0.63178     1.67360  0.0
    333    365    366    378   5     0.00000     0.00000     1.25520  0.0
    333    365    366    398   5     4.74884    -0.63178     1.67360  0.0
    376    365    366    367   5     0.00000     0.00000     1.25520  0.0
    376    365    366    378   5     0.00000     0.00000     1.25520  0.0
    376    365    366    398   5     0.00000     0.00000     1.25520  0.0
    377    365    366    367   5     0.00000     0.00000     1.25520  0.0
    377    365    366    378   5     0.00000     0.00000     1.25520  0.0
    377    365    366    398   5     0.00000     0.00000     1.25520  0.0
    365    366    367    368   5     4.74884    -0.63178     1.67360  0.0
    365    366    367    379   5     0.00000     0.00000     1.25520  0.0
    365    366    367    380   5     0.00000     0.00000     1.25520  0.0
    378    366    367    368   5     0.00000     0.00000     1.25520  0.0
    378    366    367    379   5     0.00000     0.00000     1.25520  0.0
    378    366    367    380   5     0.00000     0.00000     1.25520  0.0
    398    366    367    368   5     4.74884    -0.63178     1.67360  0.0
    398    366    367    379   5     0.00000     0.00000     1.25520  0.0
    398    366    367    380   5     0.00000     0.00000     1.25520  0.0
    365    366    398    399   5     4.74884    -0.63178     1.67360  0.0
    365    366    398    409   5     0.00000     0.00000     1.25520  0.0
    365    366    398    410   5     0.00000     0.00000     1.25520  0.0
    367    366    398    399   5     4.74884    -0.63178     1.67360  0.0
    367    366    398    409   5     0.00000     0.00000     1.25520  0.0
    367    366    398    410   5     0.00000     0.00000     1.25520  0.0
    378    366    398    399   5     0.00000     0.00000     1.25520  0.0
    378    366    398    409   5     0.00000     0.00000     1.25520  0.0
    378    366    398    410   5     0.00000     0.00000     1.25520  0.0
    366    367    368    369   5     4.74884    -0.63178     1.67360  0.0
    366    367    368    381   5     0.00000     0.00000     1.25520  0.0
    366    367    368    382   5     0.00000     0.00000     1.25520  0.0
    379    367    368    369   5     0.00000     0.00000     1.25520  0.0
    379    367    368    381   5     0.00000     0.00000     1.25520  0.0
    379    367    368    382   5     0.00000     0.00000     1.25520  0.0
    380    367    368    369   5     0.00000     0.00000     1.25520  0.0
    380    367    368    381   5     0.00000     0.00000     1.25520  0.0
    380    367    368    382   5     0.00000     0.00000     1.25520  0.0
    367    368    369    370   5     4.74884    -0.63178     1.67360  0.0
    367    368    369    383   5     0.00000     0.00000     1.25520  0.0
    367    368    369    384   5     0.00000     0.00000     1.25520  0.0
    381    368    369    370   5     0.00000     0.00000     1.25520  0.0
    381    368    369    383   5     0.00000     0.00000     1.25520  0.0
    381    368    369    384   5     0.00000     0.00000     1.25520  0.0
    382    368    369    370   5     0.00000     0.00000     1.25520  0.0
    382    368    369    383   5     0.00000     0.00000     1.25520  0.0
    382    368    369    384   5     0.00000     0.00000     1.25520  0.0
    368    369    370    371   5     4.74884    -0.63178     1.67360  0.0
    368    369    370    385   5     0.00000     0.00000     1.25520  0.0
    368    369    370    386   5     0.00000     0.00000     1.25520  0.0
    383    369    370    371   5     0.00000     0.00000     1.25520  0.0
    383    369    370    385   5     0.00000     0.00000     1.25520  0.0
    383    369    370    386   5     0.00000     0.00000     1.25520  0.0
    384    369    370    371   5     0.00000     0.00000     1.25520  0.0
    384    369    370    385   5     0.00000     0.00000     1.25520  0.0
    384    369    370    386   5     0.00000     0.00000     1.25520  0.0
    369    370    371    372   5     4.74884    -0.63178     1.67360  0.0
    369    370    371    387   5     0.00000     0.00000     1.25520  0.0
    369    370    371    388   5     0.00000     0.00000     1.25520  0.0
    385    370    371    372   5     0.00000     0.00000     1.25520  0.0
    385    370    371    387   5     0.00000     0.00000     1.25520  0.0
    385    370    371    388   5     0.00000     0.00000     1.25520  0.0
    386    370    371    372   5     0.00000     0.00000     1.25520  0.0
    386    370    371    387   5     0.00000     0.00000     1.25520  0.0
    386    370    371    388   5     0.00000     0.00000     1.25520  0.0
    370    371    372    373   5     4.74884    -0.63178     1.67360  0.0
    370    371    372    389   5     0.00000     0.00000     1.25520  0.0
    370    371    372    390   5     0.00000     0.00000     1.25520  0.0
    387    371    372    373   5     0.00000     0.00000     1.25520  0.0
    387    371    372    389   5     0.00000     0.00000     1.25520  0.0
    387    371    372    390   5     0.00000     0.00000     1.25520  0.0
    388    371    372    373   5     0.00000     0.00000     1.25520  0.0
    388    371    372    389   5     0.00000     0.00000     1.25520  0.0
    388    371    372    390   5     0.00000     0.00000     1.25520  0.0
    371    372    373    374   5     4.74884    -0.63178     1.67360  0.0
    371    372    373    391   5     0.00000     0.00000     1.25520  0.0
    371    372    373    392   5     0.00000     0.00000     1.25520  0.0
    389    372    373    374   5     0.00000     0.00000     1.25520  0.0
    389    372    373    391   5     0.00000     0.00000     1.25520  0.0
    389    372    373    392   5     0.00000     0.00000     1.25520  0.0
    390    372    373    374   5     0.00000     0.00000     1.25520  0.0
    390    372    373    391   5     0.00000     0.00000     1.25520  0.0
    390    372    373    392   5     0.00000     0.00000     1.25520  0.0
    372    373    374    375   5     4.74884    -0.63178     1.67360  0.0
    372    373    374    393   5     0.00000     0.00000     1.25520  0.0
    372    373    374    394   5     0.00000     0.00000     1.25520  0.0
    391    373    374    375   5     0.00000     0.00000     1.25520  0.0
    391    373    374    393   5     0.00000     0.00000     1.25520  0.0
    391    373    374    394   5     0.00000     0.00000     1.25520  0.0
    392    373    374    375   5     0.00000     0.00000     1.25520  0.0
    392    373    374    393   5     0.00000     0.00000     1.25520  0.0
    392    373    374    394   5     0.00000     0.00000     1.25520  0.0
    373    374    375    395   5     0.00000     0.00000     1.25520  0.0
    373    374    375    396   5     0.00000     0.00000     1.25520  0.0
    373    374    375    397   5     0.00000     0.00000     1.25520  0.0
    393    374    375    395   5     0.00000     0.00000     1.25520  0.0
    393    374    375    396   5     0.00000     0.00000     1.25520  0.0
    393    374    375    397   5     0.00000     0.00000     1.25520  0.0
    394    374    375    395   5     0.00000     0.00000     1.25520  0.0
    394    374    375    396   5     0.00000     0.00000     1.25520  0.0
    394    374    375    397   5     0.00000     0.00000     1.25520  0.0
    366    398    399    400   5     4.74884    -0.63178     1.67360  0.0
    366    398    399    411   5     0.00000     0.00000     1.25520  0.0
    366    398    399    431   5     4.74884    -0.63178     1.67360  0.0
    409    398    399    400   5     0.00000     0.00000     1.25520  0.0
    409    398    399    411   5     0.00000     0.00000     1.25520  0.0
    409    398    399    431   5     0.00000     0.00000     1.25520  0.0
    410    398    399    400   5     0.00000     0.00000     1.25520  0.0
    410    398    399    411   5     0.00000     0.00000     1.25520  0.0
    410    398    399    431   5     0.00000     0.00000     1.25520  0.0
    398    399    400    401   5     4.74884    -0.63178     1.67360  0.0
    398    399    400    412   5     0.00000     0.00000     1.25520  0.0
    398    399    400    413   5     0.00000     0.00000     1.25520  0.0
    411    399    400    401   5     0.00000     0.00000     1.25520  0.0
    411    399    400    412   5     0.00000     0.00000     1.25520  0.0
    411    399    400    413   5     0.00000     0.00000     1.25520  0.0
    431    399    400    401   5     4.74884    -0.63178     1.67360  0.0
    431    399    400    412   5     0.00000     0.00000     1.25520  0.0
    431    399    400    413   5     0.00000     0.00000     1.25520  0.0
    398    399    431    432   5     4.74884    -0.63178     1.67360  0.0
    398    399    431    442   5     0.00000     0.00000     1.25520  0.0
    398    399    431    443   5     0.00000     0.00000     1.25520  0.0
    400    399    431    432   5     4.74884    -0.63178     1.67360  0.0
    400    399    431    442   5     0.00000     0.00000     1.25520  0.0
    400    399    431    443   5     0.00000     0.00000     1.25520  0.0
    411    399    431    432   5     0.00000     0.00000     1.25520  0.0
    411    399    431    442   5     0.00000     0.00000     1.25520  0.0
    411    399    431    443   5     0.00000     0.00000     1.25520  0.0
    399    400    401    402   5     4.74884    -0.63178     1.67360  0.0
    399    400    401    414   5     0.00000     0.00000     1.25520  0.0
    399    400    401    415   5     0.00000     0.00000     1.25520  0.0
    412    400    401    402   5     0.00000     0.00000     1.25520  0.0
    412    400    401    414   5     0.00000     0.00000     1.25520  0.0
    412    400    401    415   5     0.00000     0.00000     1.25520  0.0
    413    400    401    402   5     0.00000     0.00000     1.25520  0.0
    413    400    401    414   5     0.00000     0.00000     1.25520  0.0
    413    400    401    415   5     0.00000     0.00000     1.25520  0.0
    400    401    402    403   5     4.74884    -0.63178     1.67360  0.0
    400    401    402    416   5     0.00000     0.00000     1.25520  0.0
    400    401    402    417   5     0.00000     0.00000     1.25520  0.0
    414    401    402    403   5     0.00000     0.00000     1.25520  0.0
    414    401    402    416   5     0.00000     0.00000     1.25520  0.0
    414    401    402    417   5     0.00000     0.00000     1.25520  0.0
    415    401    402    403   5     0.00000     0.00000     1.25520  0.0
    415    401    402    416   5     0.00000     0.00000     1.25520  0.0
    415    401    402    417   5     0.00000     0.00000     1.25520  0.0
    401    402    403    404   5     4.74884    -0.63178     1.67360  0.0
    401    402    403    418   5     0.00000     0.00000     1.25520  0.0
    401    402    403    419   5     0.00000     0.00000     1.25520  0.0
    416    402    403    404   5     0.00000     0.00000     1.25520  0.0
    416    402    403    418   5     0.00000     0.00000     1.25520  0.0
    416    402    403    419   5     0.00000     0.00000     1.25520  0.0
    417    402    403    404   5     0.00000     0.00000     1.25520  0.0
    417    402    403    418   5     0.00000     0.00000     1.25520  0.0
    417    402    403    419   5     0.00000     0.00000     1.25520  0.0
    402    403    404    405   5     4.74884    -0.63178     1.67360  0.0
    402    403    404    420   5     0.00000     0.00000     1.25520  0.0
    402    403    404    421   5     0.00000     0.00000     1.25520  0.0
    418    403    404    405   5     0.00000     0.00000     1.25520  0.0
    418    403    404    420   5     0.00000     0.00000     1.25520  0.0
    418    403    404    421   5     0.00000     0.00000     1.25520  0.0
    419    403    404    405   5     0.00000     0.00000     1.25520  0.0
    419    403    404    420   5     0.00000     0.00000     1.25520  0.0
    419    403    404    421   5     0.00000     0.00000     1.25520  0.0
    403    404    405    406   5     4.74884    -0.63178     1.67360  0.0
    403    404    405    422   5     0.00000     0.00000     1.25520  0.0
    403    404    405    423   5     0.00000     0.00000     1.25520  0.0
    420    404    405    406   5     0.00000     0.00000     1.25520  0.0
    420    404    405    422   5     0.00000     0.00000     1.25520  0.0
    420    404    405    423   5     0.00000     0.00000     1.25520  0.0
    421    404    405    406   5     0.00000     0.00000     1.25520  0.0
    421    404    405    422   5     0.00000     0.00000     1.25520  0.0
    421    404    405    423   5     0.00000     0.00000     1.25520  0.0
    404    405    406    407   5     4.74884    -0.63178     1.67360  0.0
    404    405    406    424   5     0.00000     0.00000     1.25520  0.0
    404    405    406    425   5     0.00000     0.00000     1.25520  0.0
    422    405    406    407   5     0.00000     0.00000     1.25520  0.0
    422    405    406    424   5     0.00000     0.00000     1.25520  0.0
    422    405    406    425   5     0.00000     0.00000     1.25520  0.0
    423    405    406    407   5     0.00000     0.00000     1.25520  0.0
    423    405    406    424   5     0.00000     0.00000     1.25520  0.0
    423    405    406    425   5     0.00000     0.00000     1.25520  0.0
    405    406    407    408   5     4.74884    -0.63178     1.67360  0.0
    405    406    407    426   5     0.00000     0.00000     1.25520  0.0
    405    406    407    427   5     0.00000     0.00000     1.25520  0.0
    424    406    407    408   5     0.00000     0.00000     1.25520  0.0
    424    406    407    426   5     0.00000     0.00000     1.25520  0.0
    424    406    407    427   5     0.00000     0.00000     1.25520  0.0
    425    406    407    408   5     0.00000     0.00000     1.25520  0.0
    425    406    407    426   5     0.00000     0.00000     1.25520  0.0
    425    406    407    427   5     0.00000     0.00000     1.25520  0.0
    406    407    408    428   5     0.00000     0.00000     1.25520  0.0
    406    407    408    429   5     0.00000     0.00000     1.25520  0.0
    406    407    408    430   5     0.00000     0.00000     1.25520  0.0
    426    407    408    428   5     0.00000     0.00000     1.25520  0.0
    426    407    408    429   5     0.00000     0.00000     1.25520  0.0
    426    407    408    430   5     0.00000     0.00000     1.25520  0.0
    427    407    408    428   5     0.00000     0.00000     1.25520  0.0
    427    407    408    429   5     0.00000     0.00000     1.25520  0.0
    427    407    408    430   5     0.00000     0.00000     1.25520  0.0
    399    431    432    433   5     4.74884    -0.63178     1.67360  0.0
    399    431    432    444   5     0.00000     0.00000     1.25520  0.0
    399    431    432    464   5     4.74884    -0.63178     1.67360  0.0
    442    431    432    433   5     0.00000     0.00000     1.25520  0.0
    442    431    432    444   5     0.00000     0.00000     1.25520  0.0
    442    431    432    464   5     0.00000     0.00000     1.25520  0.0
    443    431    432    433   5     0.00000     0.00000     1.25520  0.0
    443    431    432    444   5     0.00000     0.00000     1.25520  0.0
    443    431    432    464   5     0.00000     0.00000     1.25520  0.0
    431    432    433    434   5     4.74884    -0.63178     1.67360  0.0
    431    432    433    445   5     0.00000     0.00000     1.25520  0.0
    431    432    433    446   5     0.00000     0.00000     1.25520  0.0
    444    432    433    434   5     0.00000     0.00000     1.25520  0.0
    444    432    433    445   5     0.00000     0.00000     1.25520  0.0
    444    432    433    446   5     0.00000     0.00000     1.25520  0.0
    464    432    433    434   5     4.74884    -0.63178     1.67360  0.0
    464    432    433    445   5     0.00000     0.00000     1.25520  0.0
    464    432    433    446   5     0.00000     0.00000     1.25520  0.0
    431    432    464    465   5     4.74884    -0.63178     1.67360  0.0
    431    432    464    475   5     0.00000     0.00000     1.25520  0.0
    431    432    464    476   5     0.00000     0.00000     1.25520  0.0
    433    432    464    465   5     4.74884    -0.63178     1.67360  0.0
    433    432    464    475   5     0.00000     0.00000     1.25520  0.0
    433    432    464    476   5     0.00000     0.00000     1.25520  0.0
    444    432    464    465   5     0.00000     0.00000     1.25520  0.0
    444    432    464    475   5     0.00000     0.00000     1.25520  0.0
    444    432    464    476   5     0.00000     0.00000     1.25520  0.0
    432    433    434    435   5     4.74884    -0.63178     1.67360  0.0
    432    433    434    447   5     0.00000     0.00000     1.25520  0.0
    432    433    434    448   5     0.00000     0.00000     1.25520  0.0
    445    433    434    435   5     0.00000     0.00000     1.25520  0.0
    445    433    434    447   5     0.00000     0.00000     1.25520  0.0
    445    433    434    448   5     0.00000     0.00000     1.25520  0.0
    446    433    434    435   5     0.00000     0.00000     1.25520  0.0
    446    433    434    447   5     0.00000     0.00000     1.25520  0.0
    446    433    434    448   5     0.00000     0.00000     1.25520  0.0
    433    434    435    436   5     4.74884    -0.63178     1.67360  0.0
    433    434    435    449   5     0.00000     0.00000     1.25520  0.0
    433    434    435    450   5     0.00000     0.00000     1.25520  0.0
    447    434    435    436   5     0.00000     0.00000     1.25520  0.0
    447    434    435    449   5     0.00000     0.00000     1.25520  0.0
    447    434    435    450   5     0.00000     0.00000     1.25520  0.0
    448    434    435    436   5     0.00000     0.00000     1.25520  0.0
    448    434    435    449   5     0.00000     0.00000     1.25520  0.0
    448    434    435    450   5     0.00000     0.00000     1.25520  0.0
    434    435    436    437   5     4.74884    -0.63178     1.67360  0.0
    434    435    436    451   5     0.00000     0.00000     1.25520  0.0
    434    435    436    452   5     0.00000     0.00000     1.25520  0.0
    449    435    436    437   5     0.00000     0.00000     1.25520  0.0
    449    435    436    451   5     0.00000     0.00000     1.25520  0.0
    449    435    436    452   5     0.00000     0.00000     1.25520  0.0
    450    435    436    437   5     0.00000     0.00000     1.25520  0.0
    450    435    436    451   5     0.00000     0.00000     1.25520  0.0
    450    435    436    452   5     0.00000     0.00000     1.25520  0.0
    435    436    437    438   5     4.74884    -0.63178     1.67360  0.0
    435    436    437    453   5     0.00000     0.00000     1.25520  0.0
    435    436    437    454   5     0.00000     0.00000     1.25520  0.0
    451    436    437    438   5     0.00000     0.00000     1.25520  0.0
    451    436    437    453   5     0.00000     0.00000     1.25520  0.0
    451    436    437    454   5     0.00000     0.00000     1.25520  0.0
    452    436    437    438   5     0.00000     0.00000     1.25520  0.0
    452    436    437    453   5     0.00000     0.00000     1.25520  0.0
    452    436    437    454   5     0.00000     0.00000     1.25520  0.0
    436    437    438    439   5     4.74884    -0.63178     1.67360  0.0
    436    437    438    455   5     0.00000     0.00000     1.25520  0.0
    436    437    438    456   5     0.00000     0.00000     1.25520  0.0
    453    437    438    439   5     0.00000     0.00000     1.25520  0.0
    453    437    438    455   5     0.00000     0.00000     1.25520  0.0
    453    437    438    456   5     0.00000     0.00000     1.25520  0.0
    454    437    438    439   5     0.00000     0.00000     1.25520  0.0
    454    437    438    455   5     0.00000     0.00000     1.25520  0.0
    454    437    438    456   5     0.00000     0.00000     1.25520  0.0
    437    438    439    440   5     4.74884    -0.63178     1.67360  0.0
    437    438    439    457   5     0.00000     0.00000     1.25520  0.0
    437    438    439    458   5     0.00000     0.00000     1.25520  0.0
    455    438    439    440   5     0.00000     0.00000     1.25520  0.0
    455    438    439    457   5     0.00000     0.00000     1.25520  0.0
    455    438    439    458   5     0.00000     0.00000     1.25520  0.0
    456    438    439    440   5     0.00000     0.00000     1.25520  0.0
    456    438    439    457   5     0.00000     0.00000     1.25520  0.0
    456    438    439    458   5     0.00000     0.00000     1.25520  0.0
    438    439    440    441   5     4.74884    -0.63178     1.67360  0.0
    438    439    440    459   5     0.00000     0.00000     1.25520  0.0
    438    439    440    460   5     0.00000     0.00000     1.25520  0.0
    457    439    440    441   5     0.00000     0.00000     1.25520  0.0
    457    439    440    459   5     0.00000     0.00000     1.25520  0.0
    457    439    440    460   5     0.00000     0.00000     1.25520  0.0
    458    439    440    441   5     0.00000     0.00000     1.25520  0.0
    458    439    440    459   5     0.00000     0.00000     1.25520  0.0
    458    439    440    460   5     0.00000     0.00000     1.25520  0.0
    439    440    441    461   5     0.00000     0.00000     1.25520  0.0
    439    440    441    462   5     0.00000     0.00000     1.25520  0.0
    439    440    441    463   5     0.00000     0.00000     1.25520  0.0
    459    440    441    461   5     0.00000     0.00000     1.25520  0.0
    459    440    441    462   5     0.00000     0.00000     1.25520  0.0
    459    440    441    463   5     0.00000     0.00000     1.25520  0.0
    460    440    441    461   5     0.00000     0.00000     1.25520  0.0
    460    440    441    462   5     0.00000     0.00000     1.25520  0.0
    460    440    441    463   5     0.00000     0.00000     1.25520  0.0
    432    464    465    466   5     4.74884    -0.63178     1.67360  0.0
    432    464    465    477   5     0.00000     0.00000     1.25520  0.0
    432    464    465    497   5     4.74884    -0.63178     1.67360  0.0
    475    464    465    466   5     0.00000     0.00000     1.25520  0.0
    475    464    465    477   5     0.00000     0.00000     1.25520  0.0
    475    464    465    497   5     0.00000     0.00000     1.25520  0.0
    476    464    465    466   5     0.00000     0.00000     1.25520  0.0
    476    464    465    477   5     0.00000     0.00000     1.25520  0.0
    476    464    465    497   5     0.00000     0.00000     1.25520  0.0
    464    465    466    467   5     4.74884    -0.63178     1.67360  0.0
    464    465    466    478   5     0.00000     0.00000     1.25520  0.0
    464    465    466    479   5     0.00000     0.00000     1.25520  0.0
    477    465    466    467   5     0.00000     0.00000     1.25520  0.0
    477    465    466    478   5     0.00000     0.00000     1.25520  0.0
    477    465    466    479   5     0.00000     0.00000     1.25520  0.0
    497    465    466    467   5     4.74884    -0.63178     1.67360  0.0
    497    465    466    478   5     0.00000     0.00000     1.25520  0.0
    497    465    466    479   5     0.00000     0.00000     1.25520  0.0
    464    465    497    498   5     4.74884    -0.63178     1.67360  0.0
    464    465    497    508   5     0.00000     0.00000     1.25520  0.0
    464    465    497    509   5     0.00000     0.00000     1.25520  0.0
    466    465    497    498   5     4.74884    -0.63178     1.67360  0.0
    466    465    497    508   5     0.00000     0.00000     1.25520  0.0
    466    465    497    509   5     0.00000     0.00000     1.25520  0.0
    477    465    497    498   5     0.00000     0.00000     1.25520  0.0
    477    465    497    508   5     0.00000     0.00000     1.25520  0.0
    477    465    497    509   5     0.00000     0.00000     1.25520  0.0
    465    466    467    468   5     4.74884    -0.63178     1.67360  0.0
    465    466    467    480   5     0.00000     0.00000     1.25520  0.0
    465    466    467    481   5     0.00000     0.00000     1.25520  0.0
    478    466    467    468   5     0.00000     0.00000     1.25520  0.0
    478    466    467    480   5     0.00000     0.00000     1.25520  0.0
    478    466    467    481   5     0.00000     0.00000     1.25520  0.0
    479    466    467    468   5     0.00000     0.00000     1.25520  0.0
    479    466    467    480   5     0.00000     0.00000     1.25520  0.0
    479    466    467    481   5     0.00000     0.00000     1.25520  0.0
    466    467    468    469   5     4.74884    -0.63178     1.67360  0.0
    466    467    468    482   5     0.00000     0.00000     1.25520  0.0
    466    467    468    483   5     0.00000     0.00000     1.25520  0.0
    480    467    468    469   5     0.00000     0.00000     1.25520  0.0
    480    467    468    482   5     0.00000     0.00000     1.25520  0.0
    480    467    468    483   5     0.00000     0.00000     1.25520  0.0
    481    467    468    469   5     0.00000     0.00000     1.25520  0.0
    481    467    468    482   5     0.00000     0.00000     1.25520  0.0
    481    467    468    483   5     0.00000     0.00000     1.25520  0.0
    467    468    469    470   5     4.74884    -0.63178     1.67360  0.0
    467    468    469    484   5     0.00000     0.00000     1.25520  0.0
    467    468    469    485   5     0.00000     0.00000     1.25520  0.0
    482    468    469    470   5     0.00000     0.00000     1.25520  0.0
    482    468    469    484   5     0.00000     0.00000     1.25520  0.0
    482    468    469    485   5     0.00000     0.00000     1.25520  0.0
    483    468    469    470   5     0.00000     0.00000     1.25520  0.0
    483    468    469    484   5     0.00000     0.00000     1.25520  0.0
    483    468    469    485   5     0.00000     0.00000     1.25520  0.0
    468    469    470    471   5     4.74884    -0.63178     1.67360  0.0
    468    469    470    486   5     0.00000     0.00000     1.25520  0.0
    468    469    470    487   5     0.00000     0.00000     1.25520  0.0
    484    469    470    471   5     0.00000     0.00000     1.25520  0.0
    484    469    470    486   5     0.00000     0.00000     1.25520  0.0
    484    469    470    487   5     0.00000     0.00000     1.25520  0.0
    485    469    470    471   5     0.00000     0.00000     1.25520  0.0
    485    469    470    486   5     0.00000     0.00000     1.25520  0.0
    485    469    470    487   5     0.00000     0.00000     1.25520  0.0
    469    470    471    472   5     4.74884    -0.63178     1.67360  0.0
    469    470    471    488   5     0.00000     0.00000     1.25520  0.0
    469    470    471    489   5     0.00000     0.00000     1.25520  0.0
    486    470    471    472   5     0.00000     0.00000     1.25520  0.0
    486    470    471    488   5     0.00000     0.00000     1.25520  0.0
    486    470    471    489   5     0.00000     0.00000     1.25520  0.0
    487    470    471    472   5     0.00000     0.00000     1.25520  0.0
    487    470    471    488   5     0.00000     0.00000     1.25520  0.0
    487    470    471    489   5     0.00000     0.00000     1.25520  0.0
    470    471    472    473   5     4.74884    -0.63178     1.67360  0.0
    470    471    472    490   5     0.00000     0.00000     1.25520  0.0
    470    471    472    491   5     0.00000     0.00000     1.25520  0.0
    488    471    472    473   5     0.00000     0.00000     1.25520  0.0
    488    471    472    490   5     0.00000     0.00000     1.25520  0.0
    488    471    472    491   5     0.00000     0.00000     1.25520  0.0
    489    471    472    473   5     0.00000     0.00000     1.25520  0.0
    489    471    472    490   5     0.00000     0.00000     1.25520  0.0
    489    471    472    491   5     0.00000     0.00000     1.25520  0.0
    471    472    473    474   5     4.74884    -0.63178     1.67360  0.0
    471    472    473    492   5     0.00000     0.00000     1.25520  0.0
    471    472    473    493   5     0.00000     0.00000     1.25520  0.0
    490    472    473    474   5     0.00000     0.00000     1.25520  0.0
    490    472    473    492   5     0.00000     0.00000     1.25520  0.0
    490    472    473    493   5     0.00000     0.00000     1.25520  0.0
    491    472    473    474   5     0.00000     0.00000     1.25520  0.0
    491    472    473    492   5     0.00000     0.00000     1.25520  0.0
    491    472    473    493   5     0.00000     0.00000     1.25520  0.0
    472    473    474    494   5     0.00000     0.00000     1.25520  0.0
    472    473    474    495   5     0.00000     0.00000     1.25520  0.0
    472    473    474    496   5     0.00000     0.00000     1.25520  0.0
    492    473    474    494   5     0.00000     0.00000     1.25520  0.0
    492    473    474    495   5     0.00000     0.00000     1.25520  0.0
    492    473    474    496   5     0.00000     0.00000     1.25520  0.0
    493    473    474    494   5     0.00000     0.00000     1.25520  0.0
    493    473    474    495   5     0.00000     0.00000     1.25520  0.0
    493    473    474    496   5     0.00000     0.00000     1.25520  0.0
    465    497    498    499   5     4.74884    -0.63178     1.67360  0.0
    465    497    498    510   5     0.00000     0.00000     1.25520  0.0
    465    497    498    530   5     4.74884    -0.63178     1.67360  0.0
    508    497    498    499   5     0.00000     0.00000     1.25520  0.0
    508    497    498    510   5     0.00000     0.00000     1.25520  0.0
    508    497    498    530   5     0.00000     0.00000     1.25520  0.0
    509    497    498    499   5     0.00000     0.00000     1.25520  0.0
    509    497    498    510   5     0.00000     0.00000     1.25520  0.0
    509    497    498    530   5     0.00000     0.00000     1.25520  0.0
    497    498    499    500   5     4.74884    -0.63178     1.67360  0.0
    497    498    499    511   5     0.00000     0.00000     1.25520  0.0
    497    498    499    512   5     0.00000     0.00000     1.25520  0.0
    510    498    499    500   5     0.00000     0.00000     1.25520  0.0
    510    498    499    511   5     0.00000     0.00000     1.25520  0.0
    510    498    499    512   5     0.00000     0.00000     1.25520  0.0
    530    498    499    500   5     4.74884    -0.63178     1.67360  0.0
    530    498    499    511   5     0.00000     0.00000     1.25520  0.0
    530    498    499    512   5     0.00000     0.00000     1.25520  0.0
    497    498    530    531   5     4.74884    -0.63178     1.67360  0.0
    497    498    530    541   5     0.00000     0.00000     1.25520  0.0
    497    498    530    542   5     0.00000     0.00000     1.25520  0.0
    499    498    530    531   5     4.74884    -0.63178     1.67360  0.0
    499    498    530    541   5     0.00000     0.00000     1.25520  0.0
    499    498    530    542   5     0.00000     0.00000     1.25520  0.0
    510    498    530    531   5     0.00000     0.00000     1.25520  0.0
    510    498    530    541   5     0.00000     0.00000     1.25520  0.0
    510    498    530    542   5     0.00000     0.00000     1.25520  0.0
    498    499    500    501   5     4.74884    -0.63178     1.67360  0.0
    498    499    500    513   5     0.00000     0.00000     1.25520  0.0
    498    499    500    514   5     0.00000     0.00000     1.25520  0.0
    511    499    500    501   5     0.00000     0.00000     1.25520  0.0
    511    499    500    513   5     0.00000     0.00000     1.25520  0.0
    511    499    500    514   5     0.00000     0.00000     1.25520  0.0
    512    499    500    501   5     0.00000     0.00000     1.25520  0.0
    512    499    500    513   5     0.00000     0.00000     1.25520  0.0
    512    499    500    514   5     0.00000     0.00000     1.25520  0.0
    499    500    501    502   5     4.74884    -0.63178     1.67360  0.0
    499    500    501    515   5     0.00000     0.00000     1.25520  0.0
    499    500    501    516   5     0.00000     0.00000     1.25520  0.0
    513    500    501    502   5     0.00000     0.00000     1.25520  0.0
    513    500    501    515   5     0.00000     0.00000     1.25520  0.0
    513    500    501    516   5     0.00000     0.00000     1.25520  0.0
    514    500    501    502   5     0.00000     0.00000     1.25520  0.0
    514    500    501    515   5     0.00000     0.00000     1.25520  0.0
    514    500    501    516   5     0.00000     0.00000     1.25520  0.0
    500    501    502    503   5     4.74884    -0.63178     1.67360  0.0
    500    501    502    517   5     0.00000     0.00000     1.25520  0.0
    500    501    502    518   5     0.00000     0.00000     1.25520  0.0
    515    501    502    503   5     0.00000     0.00000     1.25520  0.0
    515    501    502    517   5     0.00000     0.00000     1.25520  0.0
    515    501    502    518   5     0.00000     0.00000     1.25520  0.0
    516    501    502    503   5     0.00000     0.00000     1.25520  0.0
    516    501    502    517   5     0.00000     0.00000     1.25520  0.0
    516    501    502    518   5     0.00000     0.00000     1.25520  0.0
    501    502    503    504   5     4.74884    -0.63178     1.67360  0.0
    501    502    503    519   5     0.00000     0.00000     1.25520  0.0
    501    502    503    520   5     0.00000     0.00000     1.25520  0.0
    517    502    503    504   5     0.00000     0.00000     1.25520  0.0
    517    502    503    519   5     0.00000     0.00000     1.25520  0.0
    517    502    503    520   5     0.00000     0.00000     1.25520  0.0
    518    502    503    504   5     0.00000     0.00000     1.25520  0.0
    518    502    503    519   5     0.00000     0.00000     1.25520  0.0
    518    502    503    520   5     0.00000     0.00000     1.25520  0.0
    502    503    504    505   5     4.74884    -0.63178     1.67360  0.0
    502    503    504    521   5     0.00000     0.00000     1.25520  0.0
    502    503    504    522   5     0.00000     0.00000     1.25520  0.0
    519    503    504    505   5     0.00000     0.00000     1.25520  0.0
    519    503    504    521   5     0.00000     0.00000     1.25520  0.0
    519    503    504    522   5     0.00000     0.00000     1.25520  0.0
    520    503    504    505   5     0.00000     0.00000     1.25520  0.0
    520    503    504    521   5     0.00000     0.00000     1.25520  0.0
    520    503    504    522   5     0.00000     0.00000     1.25520  0.0
    503    504    505    506   5     4.74884    -0.63178     1.67360  0.0
    503    504    505    523   5     0.00000     0.00000     1.25520  0.0
    503    504    505    524   5     0.00000     0.00000     1.25520  0.0
    521    504    505    506   5     0.00000     0.00000     1.25520  0.0
    521    504    505    523   5     0.00000     0.00000     1.25520  0.0
    521    504    505    524   5     0.00000     0.00000     1.25520  0.0
    522    504    505    506   5     0.00000     0.00000     1.25520  0.0
    522    504    505    523   5     0.00000     0.00000     1.25520  0.0
    522    504    505    524   5     0.00000     0.00000     1.25520  0.0
    504    505    506    507   5     4.74884    -0.63178     1.67360  0.0
    504    505    506    525   5     0.00000     0.00000     1.25520  0.0
    504    505    506    526   5     0.00000     0.00000     1.25520  0.0
    523    505    506    507   5     0.00000     0.00000     1.25520  0.0
    523    505    506    525   5     0.00000     0.00000     1.25520  0.0
    523    505    506    526   5     0.00000     0.00000     1.25520  0.0
    524    505    506    507   5     0.00000     0.00000     1.25520  0.0
    524    505    506    525   5     0.00000     0.00000     1.25520  0.0
    524    505    506    526   5     0.00000     0.00000     1.25520  0.0
    505    506    507    527   5     0.00000     0.00000     1.25520  0.0
    505    506    507    528   5     0.00000     0.00000     1.25520  0.0
    505    506    507    529   5     0.00000     0.00000     1.25520  0.0
    525    506    507    527   5     0.00000     0.00000     1.25520  0.0
    525    506    507    528   5     0.00000     0.00000     1.25520  0.0
    525    506    507    529   5     0.00000     0.00000     1.25520  0.0
    526    506    507    527   5     0.00000     0.00000     1.25520  0.0
    526    506    507    528   5     0.00000     0.00000     1.25520  0.0
    526    506    507    529   5     0.00000     0.00000     1.25520  0.0
    498    530    531    532   5     4.74884    -0.63178     1.67360  0.0
    498    530    531    543   5     0.00000     0.00000     1.25520  0.0
    498    530    531    563   5     4.74884    -0.63178     1.67360  0.0
    541    530    531    532   5     0.00000     0.00000     1.25520  0.0
    541    530    531    543   5     0.00000     0.00000     1.25520  0.0
    541    530    531    563   5     0.00000     0.00000     1.25520  0.0
    542    530    531    532   5     0.00000     0.00000     1.25520  0.0
    542    530    531    543   5     0.00000     0.00000     1.25520  0.0
    542    530    531    563   5     0.00000     0.00000     1.25520  0.0
    530    531    532    533   5     4.74884    -0.63178     1.67360  0.0
    530    531    532    544   5     0.00000     0.00000     1.25520  0.0
    530    531    532    545   5     0.00000     0.00000     1.25520  0.0
    543    531    532    533   5     0.00000     0.00000     1.25520  0.0
    543    531    532    544   5     0.00000     0.00000     1.25520  0.0
    543    531    532    545   5     0.00000     0.00000     1.25520  0.0
    563    531    532    533   5     4.74884    -0.63178     1.67360  0.0
    563    531    532    544   5     0.00000     0.00000     1.25520  0.0
    563    531    532    545   5     0.00000     0.00000     1.25520  0.0
    530    531    563    564   5     4.74884    -0.63178     1.67360  0.0
    530    531    563    574   5     0.00000     0.00000     1.25520  0.0
    530    531    563    575   5     0.00000     0.00000     1.25520  0.0
    532    531    563    564   5     4.74884    -0.63178     1.67360  0.0
    532    531    563    574   5     0.00000     0.00000     1.25520  0.0
    532    531    563    575   5     0.00000     0.00000     1.25520  0.0
    543    531    563    564   5     0.00000     0.00000     1.25520  0.0
    543    531    563    574   5     0.00000     0.00000     1.25520  0.0
    543    531    563    575   5     0.00000     0.00000     1.25520  0.0
    531    532    533    534   5     4.74884    -0.63178     1.67360  0.0
    531    532    533    546   5     0.00000     0.00000     1.25520  0.0
    531    532    533    547   5     0.00000     0.00000     1.25520  0.0
    544    532    533    534   5     0.00000     0.00000     1.25520  0.0
    544    532    533    546   5     0.00000     0.00000     1.25520  0.0
    544    532    533    547   5     0.00000     0.00000     1.25520  0.0
    545    532    533    534   5     0.00000     0.00000     1.25520  0.0
    545    532    533    546   5     0.00000     0.00000     1.25520  0.0
    545    532    533    547   5     0.00000     0.00000     1.25520  0.0
    532    533    534    535   5     4.74884    -0.63178     1.67360  0.0
    532    533    534    548   5     0.00000     0.00000     1.25520  0.0
    532    533    534    549   5     0.00000     0.00000     1.25520  0.0
    546    533    534    535   5     0.00000     0.00000     1.25520  0.0
    546    533    534    548   5     0.00000     0.00000     1.25520  0.0
    546    533    534    549   5     0.00000     0.00000     1.25520  0.0
    547    533    534    535   5     0.00000     0.00000     1.25520  0.0
    547    533    534    548   5     0.00000     0.00000     1.25520  0.0
    547    533    534    549   5     0.00000     0.00000     1.25520  0.0
    533    534    535    536   5     4.74884    -0.63178     1.67360  0.0
    533    534    535    550   5     0.00000     0.00000     1.25520  0.0
    533    534    535    551   5     0.00000     0.00000     1.25520  0.0
    548    534    535    536   5     0.00000     0.00000     1.25520  0.0
    548    534    535    550   5     0.00000     0.00000     1.25520  0.0
    548    534    535    551   5     0.00000     0.00000     1.25520  0.0
    549    534    535    536   5     0.00000     0.00000     1.25520  0.0
    549    534    535    550   5     0.00000     0.00000     1.25520  0.0
    549    534    535    551   5     0.00000     0.00000     1.25520  0.0
    534    535    536    537   5     4.74884    -0.63178     1.67360  0.0
    534    535    536    552   5     0.00000     0.00000     1.25520  0.0
    534    535    536    553   5     0.00000     0.00000     1.25520  0.0
    550    535    536    537   5     0.00000     0.00000     1.25520  0.0
    550    535    536    552   5     0.00000     0.00000     1.25520  0.0
    550    535    536    553   5     0.00000     0.00000     1.25520  0.0
    551    535    536    537   5     0.00000     0.00000     1.25520  0.0
    551    535    536    552   5     0.00000     0.00000     1.25520  0.0
    551    535    536    553   5     0.00000     0.00000     1.25520  0.0
    535    536    537    538   5     4.74884    -0.63178     1.67360  0.0
    535    536    537    554   5     0.00000     0.00000     1.25520  0.0
    535    536    537    555   5     0.00000     0.00000     1.25520  0.0
    552    536    537    538   5     0.00000     0.00000     1.25520  0.0
    552    536    537    554   5     0.00000     0.00000     1.25520  0.0
    552    536    537    555   5     0.00000     0.00000     1.25520  0.0
    553    536    537    538   5     0.00000     0.00000     1.25520  0.0
    553    536    537    554   5     0.00000     0.00000     1.25520  0.0
    553    536    537    555   5     0.00000     0.00000     1.25520  0.0
    536    537    538    539   5     4.74884    -0.63178     1.67360  0.0
    536    537    538    556   5     0.00000     0.00000     1.25520  0.0
    536    537    538    557   5     0.00000     0.00000     1.25520  0.0
    554    537    538    539   5     0.00000     0.00000     1.25520  0.0
    554    537    538    556   5     0.00000     0.00000     1.25520  0.0
    554    537    538    557   5     0.00000     0.00000     1.25520  0.0
    555    537    538    539   5     0.00000     0.00000     1.25520  0.0
    555    537    538    556   5     0.00000     0.00000     1.25520  0.0
    555    537    538    557   5     0.00000     0.00000     1.25520  0.0
    537    538    539    540   5     4.74884    -0.63178     1.67360  0.0
    537    538    539    558   5     0.00000     0.00000     1.25520  0.0
    537    538    539    559   5     0.00000     0.00000     1.25520  0.0
    556    538    539    540   5     0.00000     0.00000     1.25520  0.0
    556    538    539    558   5     0.00000     0.00000     1.25520  0.0
    556    538    539    559   5     0.00000     0.00000     1.25520  0.0
    557    538    539    540   5     0.00000     0.00000     1.25520  0.0
    557    538    539    558   5     0.00000     0.00000     1.25520  0.0
    557    538    539    559   5     0.00000     0.00000     1.25520  0.0
    538    539    540    560   5     0.00000     0.00000     1.25520  0.0
    538    539    540    561   5     0.00000     0.00000     1.25520  0.0
    538    539    540    562   5     0.00000     0.00000     1.25520  0.0
    558    539    540    560   5     0.00000     0.00000     1.25520  0.0
    558    539    540    561   5     0.00000     0.00000     1.25520  0.0
    558    539    540    562   5     0.00000     0.00000     1.25520  0.0
    559    539    540    560   5     0.00000     0.00000     1.25520  0.0
    559    539    540    561   5     0.00000     0.00000     1.25520  0.0
    559    539    540    562   5     0.00000     0.00000     1.25520  0.0
    531    563    564    565   5     4.74884    -0.63178     1.67360  0.0
    531    563    564    576   5     0.00000     0.00000     1.25520  0.0
    531    563    564    596   5     4.74884    -0.63178     1.67360  0.0
    574    563    564    565   5     0.00000     0.00000     1.25520  0.0
    574    563    564    576   5     0.00000     0.00000     1.25520  0.0
    574    563    564    596   5     0.00000     0.00000     1.25520  0.0
    575    563    564    565   5     0.00000     0.00000     1.25520  0.0
    575    563    564    576   5     0.00000     0.00000     1.25520  0.0
    575    563    564    596   5     0.00000     0.00000     1.25520  0.0
    563    564    565    566   5     4.74884    -0.63178     1.67360  0.0
    563    564    565    577   5     0.00000     0.00000     1.25520  0.0
    563    564    565    578   5     0.00000     0.00000     1.25520  0.0
    576    564    565    566   5     0.00000     0.00000     1.25520  0.0
    576    564    565    577   5     0.00000     0.00000     1.25520  0.0
    576    564    565    578   5     0.00000     0.00000     1.25520  0.0
    596    564    565    566   5     4.74884    -0.63178     1.67360  0.0
    596    564    565    577   5     0.00000     0.00000     1.25520  0.0
    596    564    565    578   5     0.00000     0.00000     1.25520  0.0
    563    564    596    597   5     4.74884    -0.63178     1.67360  0.0
    563    564    596    607   5     0.00000     0.00000     1.25520  0.0
    563    564    596    608   5     0.00000     0.00000     1.25520  0.0
    565    564    596    597   5     4.74884    -0.63178     1.67360  0.0
    565    564    596    607   5     0.00000     0.00000     1.25520  0.0
    565    564    596    608   5     0.00000     0.00000     1.25520  0.0
    576    564    596    597   5     0.00000     0.00000     1.25520  0.0
    576    564    596    607   5     0.00000     0.00000     1.25520  0.0
    576    564    596    608   5     0.00000     0.00000     1.25520  0.0
    564    565    566    567   5     4.74884    -0.63178     1.67360  0.0
    564    565    566    579   5     0.00000     0.00000     1.25520  0.0
    564    565    566    580   5     0.00000     0.00000     1.25520  0.0
    577    565    566    567   5     0.00000     0.00000     1.25520  0.0
    577    565    566    579   5     0.00000     0.00000     1.25520  0.0
    577    565    566    580   5     0.00000     0.00000     1.25520  0.0
    578    565    566    567   5     0.00000     0.00000     1.25520  0.0
    578    565    566    579   5     0.00000     0.00000     1.25520  0.0
    578    565    566    580   5     0.00000     0.00000     1.25520  0.0
    565    566    567    568   5     4.74884    -0.63178     1.67360  0.0
    565    566    567    581   5     0.00000     0.00000     1.25520  0.0
    565    566    567    582   5     0.00000     0.00000     1.25520  0.0
    579    566    567    568   5     0.00000     0.00000     1.25520  0.0
    579    566    567    581   5     0.00000     0.00000     1.25520  0.0
    579    566    567    582   5     0.00000     0.00000     1.25520  0.0
    580    566    567    568   5     0.00000     0.00000     1.25520  0.0
    580    566    567    581   5     0.00000     0.00000     1.25520  0.0
    580    566    567    582   5     0.00000     0.00000     1.25520  0.0
    566    567    568    569   5     4.74884    -0.63178     1.67360  0.0
    566    567    568    583   5     0.00000     0.00000     1.25520  0.0
    566    567    568    584   5     0.00000     0.00000     1.25520  0.0
    581    567    568    569   5     0.00000     0.00000     1.25520  0.0
    581    567    568    583   5     0.00000     0.00000     1.25520  0.0
    581    567    568    584   5     0.00000     0.00000     1.25520  0.0
    582    567    568    569   5     0.00000     0.00000     1.25520  0.0
    582    567    568    583   5     0.00000     0.00000     1.25520  0.0
    582    567    568    584   5     0.00000     0.00000     1.25520  0.0
    567    568    569    570   5     4.74884    -0.63178     1.67360  0.0
    567    568    569    585   5     0.00000     0.00000     1.25520  0.0
    567    568    569    586   5     0.00000     0.00000     1.25520  0.0
    583    568    569    570   5     0.00000     0.00000     1.25520  0.0
    583    568    569    585   5     0.00000     0.00000     1.25520  0.0
    583    568    569    586   5     0.00000     0.00000     1.25520  0.0
    584    568    569    570   5     0.00000     0.00000     1.25520  0.0
    584    568    569    585   5     0.00000     0.00000     1.25520  0.0
    584    568    569    586   5     0.00000     0.00000     1.25520  0.0
    568    569    570    571   5     4.74884    -0.63178     1.67360  0.0
    568    569    570    587   5     0.00000     0.00000     1.25520  0.0
    568    569    570    588   5     0.00000     0.00000     1.25520  0.0
    585    569    570    571   5     0.00000     0.00000     1.25520  0.0
    585    569    570    587   5     0.00000     0.00000     1.25520  0.0
    585    569    570    588   5     0.00000     0.00000     1.25520  0.0
    586    569    570    571   5     0.00000     0.00000     1.25520  0.0
    586    569    570    587   5     0.00000     0.00000     1.25520  0.0
    586    569    570    588   5     0.00000     0.00000     1.25520  0.0
    569    570    571    572   5     4.74884    -0.63178     1.67360  0.0
    569    570    571    589   5     0.00000     0.00000     1.25520  0.0
    569    570    571    590   5     0.00000     0.00000     1.25520  0.0
    587    570    571    572   5     0.00000     0.00000     1.25520  0.0
    587    570    571    589   5     0.00000     0.00000     1.25520  0.0
    587    570    571    590   5     0.00000     0.00000     1.25520  0.0
    588    570    571    572   5     0.00000     0.00000     1.25520  0.0
    588    570    571    589   5     0.00000     0.00000     1.25520  0.0
    588    570    571    590   5     0.00000     0.00000     1.25520  0.0
    570    571    572    573   5     4.74884    -0.63178     1.67360  0.0
    570    571    572    591   5     0.00000     0.00000     1.25520  0.0
    570    571    572    592   5     0.00000     0.00000     1.25520  0.0
    589    571    572    573   5     0.00000     0.00000     1.25520  0.0
    589    571    572    591   5     0.00000     0.00000     1.25520  0.0
    589    571    572    592   5     0.00000     0.00000     1.25520  0.0
    590    571    572    573   5     0.00000     0.00000     1.25520  0.0
    590    571    572    591   5     0.00000     0.00000     1.25520  0.0
    590    571    572    592   5     0.00000     0.00000     1.25520  0.0
    571    572    573    593   5     0.00000     0.00000     1.25520  0.0
    571    572    573    594   5     0.00000     0.00000     1.25520  0.0
    571    572    573    595   5     0.00000     0.00000     1.25520  0.0
    591    572    573    593   5     0.00000     0.00000     1.25520  0.0
    591    572    573    594   5     0.00000     0.00000     1.25520  0.0
    591    572    573    595   5     0.00000     0.00000     1.25520  0.0
    592    572    573    593   5     0.00000     0.00000     1.25520  0.0
    592    572    573    594   5     0.00000     0.00000     1.25520  0.0
    592    572    573    595   5     0.00000     0.00000     1.25520  0.0
    564    596    597    598   5     4.74884    -0.63178     1.67360  0.0
    564    596    597    609   5     0.00000     0.00000     1.25520  0.0
    564    596    597    629   5     4.74884    -0.63178     1.67360  0.0
    607    596    597    598   5     0.00000     0.00000     1.25520  0.0
    607    596    597    609   5     0.00000     0.00000     1.25520  0.0
    607    596    597    629   5     0.00000     0.00000     1.25520  0.0
    608    596    597    598   5     0.00000     0.00000     1.25520  0.0
    608    596    597    609   5     0.00000     0.00000     1.25520  0.0
    608    596    597    629   5     0.00000     0.00000     1.25520  0.0
    596    597    598    599   5     4.74884    -0.63178     1.67360  0.0
    596    597    598    610   5     0.00000     0.00000     1.25520  0.0
    596    597    598    611   5     0.00000     0.00000     1.25520  0.0
    609    597    598    599   5     0.00000     0.00000     1.25520  0.0
    609    597    598    610   5     0.00000     0.00000     1.25520  0.0
    609    597    598    611   5     0.00000     0.00000     1.25520  0.0
    629    597    598    599   5     4.74884    -0.63178     1.67360  0.0
    629    597    598    610   5     0.00000     0.00000     1.25520  0.0
    629    597    598    611   5     0.00000     0.00000     1.25520  0.0
    596    597    629    630   5     4.74884    -0.63178     1.67360  0.0
    596    597    629    640   5     0.00000     0.00000     1.25520  0.0
    596    597    629    641   5     0.00000     0.00000     1.25520  0.0
    598    597    629    630   5     4.74884    -0.63178     1.67360  0.0
    598    597    629    640   5     0.00000     0.00000     1.25520  0.0
    598    597    629    641   5     0.00000     0.00000     1.25520  0.0
    609    597    629    630   5     0.00000     0.00000     1.25520  0.0
    609    597    629    640   5     0.00000     0.00000     1.25520  0.0
    609    597    629    641   5     0.00000     0.00000     1.25520  0.0
    597    598    599    600   5     4.74884    -0.63178     1.67360  0.0
    597    598    599    612   5     0.00000     0.00000     1.25520  0.0
    597    598    599    613   5     0.00000     0.00000     1.25520  0.0
    610    598    599    600   5     0.00000     0.00000     1.25520  0.0
    610    598    599    612   5     0.00000     0.00000     1.25520  0.0
    610    598    599    613   5     0.00000     0.00000     1.25520  0.0
    611    598    599    600   5     0.00000     0.00000     1.25520  0.0
    611    598    599    612   5     0.00000     0.00000     1.25520  0.0
    611    598    599    613   5     0.00000     0.00000     1.25520  0.0
    598    599    600    601   5     4.74884    -0.63178     1.67360  0.0
    598    599    600    614   5     0.00000     0.00000     1.25520  0.0
    598    599    600    615   5     0.00000     0.00000     1.25520  0.0
    612    599    600    601   5     0.00000     0.00000     1.25520  0.0
    612    599    600    614   5     0.00000     0.00000     1.25520  0.0
    612    599    600    615   5     0.00000     0.00000     1.25520  0.0
    613    599    600    601   5     0.00000     0.00000     1.25520  0.0
    613    599    600    614   5     0.00000     0.00000     1.25520  0.0
    613    599    600    615   5     0.00000     0.00000     1.25520  0.0
    599    600    601    602   5     4.74884    -0.63178     1.67360  0.0
    599    600    601    616   5     0.00000     0.00000     1.25520  0.0
    599    600    601    617   5     0.00000     0.00000     1.25520  0.0
    614    600    601    602   5     0.00000     0.00000     1.25520  0.0
    614    600    601    616   5     0.00000     0.00000     1.25520  0.0
    614    600    601    617   5     0.00000     0.00000     1.25520  0.0
    615    600    601    602   5     0.00000     0.00000     1.25520  0.0
    615    600    601    616   5     0.00000     0.00000     1.25520  0.0
    615    600    601    617   5     0.00000     0.00000     1.25520  0.0
    600    601    602    603   5     4.74884    -0.63178     1.67360  0.0
    600    601    602    618   5     0.00000     0.00000     1.25520  0.0
    600    601    602    619   5     0.00000     0.00000     1.25520  0.0
    616    601    602    603   5     0.00000     0.00000     1.25520  0.0
    616    601    602    618   5     0.00000     0.00000     1.25520  0.0
    616    601    602    619   5     0.00000     0.00000     1.25520  0.0
    617    601    602    603   5     0.00000     0.00000     1.25520  0.0
    617    601    602    618   5     0.00000     0.00000     1.25520  0.0
    617    601    602    619   5     0.00000     0.00000     1.25520  0.0
    601    602    603    604   5     4.74884    -0.63178     1.67360  0.0
    601    602    603    620   5     0.00000     0.00000     1.25520  0.0
    601    602    603    621   5     0.00000     0.00000     1.25520  0.0
    618    602    603    604   5     0.00000     0.00000     1.25520  0.0
    618    602    603    620   5     0.00000     0.00000     1.25520  0.0
    618    602    603    621   5     0.00000     0.00000     1.25520  0.0
    619    602    603    604   5     0.00000     0.00000     1.25520  0.0
    619    602    603    620   5     0.00000     0.00000     1.25520  0.0
    619    602    603    621   5     0.00000     0.00000     1.25520  0.0
    602    603    604    605   5     4.74884    -0.63178     1.67360  0.0
    602    603    604    622   5     0.00000     0.00000     1.25520  0.0
    602    603    604    623   5     0.00000     0.00000     1.25520  0.0
    620    603    604    605   5     0.00000     0.00000     1.25520  0.0
    620    603    604    622   5     0.00000     0.00000     1.25520  0.0
    620    603    604    623   5     0.00000     0.00000     1.25520  0.0
    621    603    604    605   5     0.00000     0.00000     1.25520  0.0
    621    603    604    622   5     0.00000     0.00000     1.25520  0.0
    621    603    604    623   5     0.00000     0.00000     1.25520  0.0
    603    604    605    606   5     4.74884    -0.63178     1.67360  0.0
    603    604    605    624   5     0.00000     0.00000     1.25520  0.0
    603    604    605    625   5     0.00000     0.00000     1.25520  0.0
    622    604    605    606   5     0.00000     0.00000     1.25520  0.0
    622    604    605    624   5     0.00000     0.00000     1.25520  0.0
    622    604    605    625   5     0.00000     0.00000     1.25520  0.0
    623    604    605    606   5     0.00000     0.00000     1.25520  0.0
    623    604    605    624   5     0.00000     0.00000     1.25520  0.0
    623    604    605    625   5     0.00000     0.00000     1.25520  0.0
    604    605    606    626   5     0.00000     0.00000     1.25520  0.0
    604    605    606    627   5     0.00000     0.00000     1.25520  0.0
    604    605    606    628   5     0.00000     0.00000     1.25520  0.0
    624    605    606    626   5     0.00000     0.00000     1.25520  0.0
    624    605    606    627   5     0.00000     0.00000     1.25520  0.0
    624    605    606    628   5     0.00000     0.00000     1.25520  0.0
    625    605    606    626   5     0.00000     0.00000     1.25520  0.0
    625    605    606    627   5     0.00000     0.00000     1.25520  0.0
    625    605    606    628   5     0.00000     0.00000     1.25520  0.0
    597    629    630    631   5     4.74884    -0.63178     1.67360  0.0
    597    629    630    642   5     0.00000     0.00000     1.25520  0.0
    597    629    630    662   5     0.00000     0.00000     1.25520  0.0
    640    629    630    631   5     0.00000     0.00000     1.25520  0.0
    640    629    630    642   5     0.00000     0.00000     1.25520  0.0
    640    629    630    662   5     0.00000     0.00000     1.25520  0.0
    641    629    630    631   5     0.00000     0.00000     1.25520  0.0
    641    629    630    642   5     0.00000     0.00000     1.25520  0.0
    641    629    630    662   5     0.00000     0.00000     1.25520  0.0
    629    630    631    632   5     4.74884    -0.63178     1.67360  0.0
    629    630    631    643   5     0.00000     0.00000     1.25520  0.0
    629    630    631    644   5     0.00000     0.00000     1.25520  0.0
    642    630    631    632   5     0.00000     0.00000     1.25520  0.0
    642    630    631    643   5     0.00000     0.00000     1.25520  0.0
    642    630    631    644   5     0.00000     0.00000     1.25520  0.0
    662    630    631    632   5     0.00000     0.00000     1.25520  0.0
    662    630    631    643   5     0.00000     0.00000     1.25520  0.0
    662    630    631    644   5     0.00000     0.00000     1.25520  0.0
    630    631    632    633   5     4.74884    -0.63178     1.67360  0.0
    630    631    632    645   5     0.00000     0.00000     1.25520  0.0
    630    631    632    646   5     0.00000     0.00000     1.25520  0.0
    643    631    632    633   5     0.00000     0.00000     1.25520  0.0
    643    631    632    645   5     0.00000     0.00000     1.25520  0.0
    643    631    632    646   5     0.00000     0.00000     1.25520  0.0
    644    631    632    633   5     0.00000     0.00000     1.25520  0.0
    644    631    632    645   5     0.00000     0.00000     1.25520  0.0
    644    631    632    646   5     0.00000     0.00000     1.25520  0.0
    631    632    633    634   5     4.74884    -0.63178     1.67360  0.0
    631    632    633    647   5     0.00000     0.00000     1.25520  0.0
    631    632    633    648   5     0.00000     0.00000     1.25520  0.0
    645    632    633    634   5     0.00000     0.00000     1.25520  0.0
    645    632    633    647   5     0.00000     0.00000     1.25520  0.0
    645    632    633    648   5     0.00000     0.00000     1.25520  0.0
    646    632    633    634   5     0.00000     0.00000     1.25520  0.0
    646    632    633    647   5     0.00000     0.00000     1.25520  0.0
    646    632    633    648   5     0.00000     0.00000     1.25520  0.0
    632    633    634    635   5     4.74884    -0.63178     1.67360  0.0
    632    633    634    649   5     0.00000     0.00000     1.25520  0.0
    632    633    634    650   5     0.00000     0.00000     1.25520  0.0
    647    633    634    635   5     0.00000     0.00000     1.25520  0.0
    647    633    634    649   5     0.00000     0.00000     1.25520  0.0
    647    633    634    650   5     0.00000     0.00000     1.25520  0.0
    648    633    634    635   5     0.00000     0.00000     1.25520  0.0
    648    633    634    649   5     0.00000     0.00000     1.25520  0.0
    648    633    634    650   5     0.00000     0.00000     1.25520  0.0
    633    634    635    636   5     4.74884    -0.63178     1.67360  0.0
    633    634    635    651   5     0.00000     0.00000     1.25520  0.0
    633    634    635    652   5     0.00000     0.00000     1.25520  0.0
    649    634    635    636   5     0.00000     0.00000     1.25520  0.0
    649    634    635    651   5     0.00000     0.00000     1.25520  0.0
    649    634    635    652   5     0.00000     0.00000     1.25520  0.0
    650    634    635    636   5     0.00000     0.00000     1.25520  0.0
    650    634    635    651   5     0.00000     0.00000     1.25520  0.0
    650    634    635    652   5     0.00000     0.00000     1.25520  0.0
    634    635    636    637   5     4.74884    -0.63178     1.67360  0.0
    634    635    636    653   5     0.00000     0.00000     1.25520  0.0
    634    635    636    654   5     0.00000     0.00000     1.25520  0.0
    651    635    636    637   5     0.00000     0.00000     1.25520  0.0
    651    635    636    653   5     0.00000     0.00000     1.25520  0.0
    651    635    636    654   5     0.00000     0.00000     1.25520  0.0
    652    635    636    637   5     0.00000     0.00000     1.25520  0.0
    652    635    636    653   5     0.00000     0.00000     1.25520  0.0
    652    635    636    654   5     0.00000     0.00000     1.25520  0.0
    635    636    637    638   5     4.74884    -0.63178     1.67360  0.0
    635    636    637    655   5     0.00000     0.00000     1.25520  0.0
    635    636    637    656   5     0.00000     0.00000     1.25520  0.0
    653    636    637    638   5     0.00000     0.00000     1.25520  0.0
    653    636    637    655   5     0.00000     0.00000     1.25520  0.0
    653    636    637    656   5     0.00000     0.00000     1.25520  0.0
    654    636    637    638   5     0.00000     0.00000     1.25520  0.0
    654    636    637    655   5     0.00000     0.00000     1.25520  0.0
    654    636    637    656   5     0.00000     0.00000     1.25520  0.0
    636    637    638    639   5     4.74884    -0.63178     1.67360  0.0
    636    637    638    657   5     0.00000     0.00000     1.25520  0.0
    636    637    638    658   5     0.00000     0.00000     1.25520  0.0
    655    637    638    639   5     0.00000     0.00000     1.25520  0.0
    655    637    638    657   5     0.00000     0.00000     1.25520  0.0
    655    637    638    658   5     0.00000     0.00000     1.25520  0.0
    656    637    638    639   5     0.00000     0.00000     1.25520  0.0
    656    637    638    657   5     0.00000     0.00000     1.25520  0.0
    656    637    638    658   5     0.00000     0.00000     1.25520  0.0
    637    638    639    659   5     0.00000     0.00000     1.25520  0.0
    637    638    639    660   5     0.00000     0.00000     1.25520  0.0
    637    638    639    661   5     0.00000     0.00000     1.25520  0.0
    657    638    639    659   5     0.00000     0.00000     1.25520  0.0
    657    638    639    660   5     0.00000     0.00000     1.25520  0.0
    657    638    639    661   5     0.00000     0.00000     1.25520  0.0
    658    638    639    659   5     0.00000     0.00000     1.25520  0.0
    658    638    639    660   5     0.00000     0.00000     1.25520  0.0
    658    638    639    661   5     0.00000     0.00000     1.25520  0.0
